 Gaussian 09, Revision D.01,
 Gaussian 09:  ES64L-G09RevD.01 24-Apr-2013

 -----------------------------
 # b3lyp 6-31G(2df,p) opt Freq
 -----------------------------

 -----
 titel
 -----
 Symbolic Z-matrix:
 Charge =  0 Multiplicity = 1

 SCF Done:  E(RB3LYP) =  -423.156321064     A.U. after   14 cycles
 Optimization completed.
    -- Stationary point found.
 Normal termination of Gaussian 09 at Mon Jan 27 14:09:06 2020.

 ----------------------------------------------------------------------
 #N Geom=AllCheck Guess=TCheck SCRF=Check GenChk RB3LYP/6-31G(2df,p) Fr
 eq
 ----------------------------------------------------------------------

 Structure from the checkpoint file:  "/scratch/puck/g09_5c4fa462-2917-4221-9fd3-b9e2dab12a40/Gau-70759.chk"
 -----
 titel
 -----
 Charge =  0 Multiplicity = 1

                         Standard orientation:
 ---------------------------------------------------------------------
 Center     Atomic      Atomic             Coordinates (Angstroms)
 Number     Number       Type             X           Y           Z
 ---------------------------------------------------------------------
      1          6           0        2.637953    1.381157    0.000022
      2          6           0        2.610675   -0.129699    0.000084
      3          8           0        3.606455   -0.813859   -0.000272
      4          6           0        1.241953   -0.814109    0.000183
      5          8           0        0.197127    0.127453    0.000075
      6          6           0       -1.087110   -0.459361    0.000072
      7          6           0       -2.115511    0.676508   -0.000055
      8          6           0       -3.483284    0.176552   -0.000062
      9          6           0       -4.600486   -0.265803   -0.000068
     10          1           0        2.103963    1.766348    0.874723
     11          1           0        3.671908    1.726845   -0.000150
     12          1           0        2.103699    1.766286   -0.874546
     13          1           0        1.195438   -1.470787   -0.884201
     14          1           0        1.195472   -1.470532    0.884762
     15          1           0       -1.225602   -1.096140   -0.887415
     16          1           0       -1.225670   -1.096003    0.887648
     17          1           0       -1.939907    1.308142    0.878780
     18          1           0       -1.939844    1.307997   -0.878982
     19          1           0       -5.593248   -0.642374   -0.000103
 ---------------------------------------------------------------------

 SCF Done:  E(RB3LYP) =  -423.156321064     A.U. after    1 cycles

 The electronic state is 1-A.
 Alpha  occ. eigenvalues --  -19.15994 -19.13012 -10.27442 -10.24694 -10.24331
 Alpha  occ. eigenvalues --  -10.21668 -10.18802 -10.18681 -10.17719  -1.05740
 Alpha  occ. eigenvalues --   -1.04011  -0.81145  -0.76092  -0.72867  -0.69748
 Alpha  occ. eigenvalues --   -0.63534  -0.54761  -0.53030  -0.50975  -0.50712
 Alpha  occ. eigenvalues --   -0.47493  -0.46444  -0.44492  -0.42187  -0.41949
 Alpha  occ. eigenvalues --   -0.41764  -0.38721  -0.38366  -0.34998  -0.34354
 Alpha  occ. eigenvalues --   -0.27490  -0.27295  -0.26940  -0.24796
 Alpha virt. eigenvalues --   -0.01494   0.04704   0.05263   0.07662   0.11329
 Alpha virt. eigenvalues --    0.11973   0.12359   0.13548   0.13857   0.15759
 Alpha virt. eigenvalues --    0.15917   0.17076   0.18989   0.19594   0.20577

 Mulliken charges:
               1
     1  C   -0.466871
     2  C    0.347983
     3  O   -0.294106
     4  C   -0.155177
     5  O   -0.244974
     6  C   -0.047925
     7  C   -0.352811
     8  C    0.284383
     9  C   -0.442652
    10  H    0.147536
    11  H    0.136999
    12  H    0.147556
    13  H    0.122990
    14  H    0.122977
    15  H    0.106264
    16  H    0.106262
    17  H    0.141074
    18  H    0.141074
    19  H    0.199417
 Sum of Mulliken charges =   0.00000

 Dipole moment (field-independent basis, Debye):
    X=             -2.0629    Y=              0.6887    Z=              0.0006  Tot=              2.1748
 Quadrupole moment (field-independent basis, Debye-Ang):
   XX=            -62.9756   YY=            -52.4600   ZZ=            -52.2842
   XY=              6.9584   XZ=              0.0024   YZ=             -0.0007

  Exact polarizability: 112.148   5.526  70.366  -0.001   0.000  55.818
 Approx polarizability: 146.890   8.334 104.430  -0.004   0.002  85.043

                      1                      2                      3
                      A                      A                      A
 Frequencies --     14.4528                42.3117                78.4093
 Red. masses --      2.4406                 5.0291                 4.6165
 Frc consts  --      0.0003                 0.0053                 0.0167
 IR Inten    --      5.0185                 1.3649                 0.9417

                      4                      5                      6
                      A                      A                      A
 Frequencies --    109.6273               127.1743               147.8326
 Red. masses --      2.2402                 3.1084                 1.0806
 Frc consts  --      0.0159                 0.0296                 0.0139
 IR Inten    --      4.1862                 1.4188                 0.0365

                      7                      8                      9
                      A                      A                      A
 Frequencies --    160.7662               305.0911               326.8497
 Red. masses --      4.0551                 3.9441                 6.2924
 Frc consts  --      0.0618                 0.2163                 0.3961
 IR Inten    --      2.1833                 5.8492                 2.2748

                     10                     11                     12
                      A                      A                      A
 Frequencies --    353.6447               468.5756               487.2900
 Red. masses --      3.2000                 3.7632                 2.1690
 Frc consts  --      0.2358                 0.4868                 0.3034
 IR Inten    --      4.8857                 1.7525                 1.6468

                     13                     14                     15
                      A                      A                      A
 Frequencies --    534.4963               555.6365               627.3184
 Red. masses --      4.3345                 5.1046                 1.2087
 Frc consts  --      0.7296                 0.9285                 0.2802
 IR Inten    --     16.5525                 5.5807                44.3584

                     16                     17                     18
                      A                      A                      A
 Frequencies --    653.4820               787.6906               796.8579
 Red. masses --      1.2328                 3.4831                 1.1567
 Frc consts  --      0.3102                 1.2733                 0.4328
 IR Inten    --     41.8290                 3.7845                 0.0042

                     19                     20                     21
                      A                      A                      A
 Frequencies --    866.9557               966.3440               983.3762
 Red. masses --      1.3093                 3.8475                 1.9021
 Frc consts  --      0.5798                 2.1169                 1.0837
 IR Inten    --      1.1850                 5.4833                10.8575

                     22                     23                     24
                      A                      A                      A
 Frequencies --   1044.7401              1083.4062              1084.2389
 Red. masses --      3.1365                 5.4464                 1.7015
 Frc consts  --      2.0170                 3.7665                 1.1785
 IR Inten    --     12.0609                16.8845                 1.2492

                     25                     26                     27
                      A                      A                      A
 Frequencies --   1099.5001              1165.1828              1226.6303
 Red. masses --      1.8327                 8.0949                 1.1642
 Frc consts  --      1.3054                 6.4751                 1.0321
 IR Inten    --      0.0148               291.8501                 0.9222

                     28                     29                     30
                      A                      A                      A
 Frequencies --   1241.2169              1253.3193              1300.6000
 Red. masses --      3.0860                 1.1379                 1.0843
 Frc consts  --      2.8011                 1.0532                 1.0806
 IR Inten    --     56.0513                 7.3668                 1.1421

                     31                     32                     33
                      A                      A                      A
 Frequencies --   1304.0365              1366.0115              1381.3825
 Red. masses --      1.3828                 1.3848                 1.3348
 Frc consts  --      1.3854                 1.5225                 1.5007
 IR Inten    --     13.7770                24.4242                36.1380

                     34                     35                     36
                      A                      A                      A
 Frequencies --   1429.0624              1453.5823              1465.2840
 Red. masses --      1.4056                 1.0568                 1.0503
 Frc consts  --      1.6912                 1.3155                 1.3286
 IR Inten    --     19.9309                14.5737                 8.2542

                     37                     38                     39
                      A                      A                      A
 Frequencies --   1475.8965              1482.6641              1527.6129
 Red. masses --      1.0806                 1.1061                 1.0900
 Frc consts  --      1.3869                 1.4326                 1.4987
 IR Inten    --      5.2213                13.6781                 1.9923

                     40                     41                     42
                      A                      A                      A
 Frequencies --   1820.7334              2243.3675              2968.2765
 Red. masses --     11.1509                 5.9223                 1.0547
 Frc consts  --     21.7797                17.5607                 5.4751
 IR Inten    --    168.7347                 2.3274                24.6223

                     43                     44                     45
                      A                      A                      A
 Frequencies --   2980.4655              2999.6858              3011.9532
 Red. masses --      1.0547                 1.1032                 1.1069
 Frc consts  --      5.5201                 5.8485                 5.9163
 IR Inten    --     40.4492                39.1653                23.0922

                     46                     47                     48
                      A                      A                      A
 Frequencies --   3035.2025              3047.0513              3073.2532
 Red. masses --      1.0580                 1.0352                 1.1031
 Frc consts  --      5.7426                 5.6629                 6.1387
 IR Inten    --     15.8375                 0.9388                15.7596

                     49                     50                     51
                      A                      A                      A
 Frequencies --   3108.7935              3160.1625              3507.0984
 Red. masses --      1.0971                 1.1044                 1.1627
 Frc consts  --      6.2472                 6.4983                 8.4261
 IR Inten    --      4.4351                12.2200                70.0016

 - Thermochemistry -
 -------------------
 Temperature   298.150 Kelvin.  Pressure   1.00000 Atm.
 Atom     1 has atomic number  6 and mass  12.00000

 Molecular mass:   126.06808 amu.
 Principal axes and moments of inertia in atomic units:
                           1         2         3
     Eigenvalues --   275.563393334.826503565.65511
           X            0.99991   0.01323   0.00000
           Y           -0.01323   0.99991  -0.00001
           Z            0.00000   0.00001   1.00000
 This molecule is an asymmetric top.
 Rotational symmetry number  1.
 Rotational temperatures (Kelvin)      0.31432     0.02597     0.02429
 Rotational constants (GHZ):           6.54928     0.54118     0.50615
 Zero-point vibrational energy     405142.8 (Joules/Mol)
                                   96.83146 (Kcal/Mol)
 Warning -- explicit consideration of  14 degrees of freedom as
           vibrations may cause significant error
 Vibrational temperatures:     20.79    60.88   112.81   157.73   182.98
          (Kelvin)            212.70   231.31   438.96   470.26   508.82
                              674.17   701.10   769.02   799.44   902.57
                              940.21  1133.31  1146.50  1247.35  1390.35
                             1414.86  1503.15  1558.78  1559.98  1581.93
                             1676.44  1764.85  1785.83  1803.24  1871.27
                             1876.22  1965.38  1987.50  2056.10  2091.38
                             2108.21  2123.48  2133.22  2197.89  2619.63
                             3227.70  4270.68  4288.22  4315.87  4333.52
                             4366.97  4384.02  4421.72  4472.85  4546.76
                             5045.93

 Zero-point correction=                           0.154311 (Hartree/Particle)
 Thermal correction to Energy=                    0.165209
 Thermal correction to Enthalpy=                  0.166153
 Thermal correction to Gibbs Free Energy=         0.115613
 Sum of electronic and zero-point Energies=           -423.002010
 Sum of electronic and thermal Energies=              -422.991113
 Sum of electronic and thermal Enthalpies=            -422.990168
 Sum of electronic and thermal Free Energies=         -423.040708

                     E (Thermal)             CV                S
                      KCal/Mol        Cal/Mol-Kelvin    Cal/Mol-Kelvin
 Total                  103.670             36.909            106.369
 Electronic               0.000              0.000              0.000
 Translational            0.889              2.981             40.409
 Rotational               0.889              2.981             29.573
 Vibrational            101.892             30.947             36.388
 Vibration     1          0.593              1.986              7.279
 Vibration     2          0.595              1.980              5.148
 Vibration     3          0.600              1.964              3.930
 Vibration     4          0.606              1.942              3.276
 Vibration     5          0.611              1.926              2.988
 Vibration     6          0.617              1.905              2.700
 Vibration     7          0.622              1.890              2.541
 Vibration     8          0.696              1.664              1.389
 Vibration     9          0.711              1.622              1.276
 Vibration    10          0.730              1.568              1.150
 Vibration    11          0.826              1.320              0.742
 Vibration    12          0.843              1.278              0.691
 Vibration    13          0.889              1.174              0.577
 Vibration    14          0.911              1.127              0.533

 Optimization completed.
    -- Stationary point found.
 Normal termination of Gaussian 09 at Mon Jan 27 14:44:56 2020.
