 Gaussian 09, Revision D.01,
 Gaussian 09:  ES64L-G09RevD.01 24-Apr-2013

 -----------------------------
 # b3lyp 6-31G(2df,p) opt Freq
 -----------------------------

 -----
 titel
 -----
 Symbolic Z-matrix:
 Charge =  0 Multiplicity = 1

 SCF Done:  E(RB3LYP) =  -423.141977654     A.U. after   13 cycles
 Optimization completed.
    -- Stationary point found.
 Normal termination of Gaussian 09 at Mon Jan 27 22:01:31 2020.

 ----------------------------------------------------------------------
 #N Geom=AllCheck Guess=TCheck SCRF=Check GenChk RB3LYP/6-31G(2df,p) Fr
 eq
 ----------------------------------------------------------------------

 Structure from the checkpoint file:  "/scratch/puck/g09_3c7e211e-c93f-48f0-9e16-f11c61de7563/Gau-175807.chk"
 -----
 titel
 -----
 Charge =  0 Multiplicity = 1

                         Standard orientation:
 ---------------------------------------------------------------------
 Center     Atomic      Atomic             Coordinates (Angstroms)
 Number     Number       Type             X           Y           Z
 ---------------------------------------------------------------------
      1          6           0       -1.703826    1.543733   -0.001224
      2          6           0       -0.541024    0.572611   -0.041362
      3          8           0        0.625169    1.374831   -0.206734
      4          6           0        1.783725    0.733183    0.247326
      5          8           0        1.856622   -0.594867   -0.209311
      6          6           0        0.609212   -1.221520   -0.062408
      7          6           0       -0.578046   -0.712015   -0.936865
      8          6           0       -1.499589   -1.368933    0.122800
      9          6           0       -0.423068   -0.637497    0.964952
     10          1           0       -1.620470    2.191018    0.877049
     11          1           0       -1.668493    2.183627   -0.887962
     12          1           0       -2.673903    1.045811    0.024143
     13          1           0        2.646068    1.274608   -0.148374
     14          1           0        1.808007    0.741296    1.351079
     15          1           0        0.773571   -2.300820   -0.041953
     16          1           0       -0.660303   -0.754110   -2.023352
     17          1           0       -2.524596   -1.009914    0.197784
     18          1           0       -1.466652   -2.460697    0.167366
     19          1           0       -0.351858   -0.607908    2.053268
 ---------------------------------------------------------------------

 SCF Done:  E(RB3LYP) =  -423.141977654     A.U. after    1 cycles

 The electronic state is 1-A.
 Alpha  occ. eigenvalues --  -19.14471 -19.14255 -10.27140 -10.24868 -10.24183
 Alpha  occ. eigenvalues --  -10.20284 -10.19434 -10.19395 -10.17618  -1.08176
 Alpha  occ. eigenvalues --   -1.00412  -0.90762  -0.74245  -0.70035  -0.64056
 Alpha  occ. eigenvalues --   -0.63341  -0.61804  -0.52331  -0.50998  -0.50317
 Alpha  occ. eigenvalues --   -0.49372  -0.43908  -0.42780  -0.41848  -0.39688
 Alpha  occ. eigenvalues --   -0.38237  -0.37434  -0.35908  -0.34442  -0.32359
 Alpha  occ. eigenvalues --   -0.32049  -0.29304  -0.25485  -0.24639
 Alpha virt. eigenvalues --    0.09719   0.10678   0.11908   0.12705   0.13203
 Alpha virt. eigenvalues --    0.14205   0.14841   0.14937   0.16315   0.17054
 Alpha virt. eigenvalues --    0.17314   0.18385   0.19227   0.20751   0.21735

 Mulliken charges:
               1
     1  C   -0.473970
     2  C    0.465955
     3  O   -0.316655
     4  C    0.009633
     5  O   -0.272033
     6  C    0.150838
     7  C   -0.139425
     8  C   -0.260748
     9  C   -0.179903
    10  H    0.124298
    11  H    0.131947
    12  H    0.119453
    13  H    0.117675
    14  H    0.083125
    15  H    0.084490
    16  H    0.075071
    17  H    0.104344
    18  H    0.098984
    19  H    0.076920
 Sum of Mulliken charges =   0.00000

 Dipole moment (field-independent basis, Debye):
    X=             -1.2169    Y=             -0.4158    Z=              0.8241  Tot=              1.5273
 Quadrupole moment (field-independent basis, Debye-Ang):
   XX=            -53.2047   YY=            -53.7266   ZZ=            -52.5581
   XY=              1.6145   XZ=              1.3940   YZ=              0.4906

  Exact polarizability:  80.484   2.825  77.053   1.118   0.400  65.257
 Approx polarizability: 112.780   3.527 110.895   0.182  -0.131 103.621

                      1                      2                      3
                      A                      A                      A
 Frequencies --    180.3300               203.8510               268.4933
 Red. masses --      1.0697                 3.4553                 2.2462
 Frc consts  --      0.0205                 0.0846                 0.0954
 IR Inten    --      0.0654                 0.6886                 5.6568

                      4                      5                      6
                      A                      A                      A
 Frequencies --    359.3998               367.9390               445.0269
 Red. masses --      2.6314                 2.8483                 2.9199
 Frc consts  --      0.2003                 0.2272                 0.3407
 IR Inten    --      1.3104                 1.6396                 0.2897

                      7                      8                      9
                      A                      A                      A
 Frequencies --    465.3143               534.8699               567.5122
 Red. masses --      3.5529                 3.9826                 6.0445
 Frc consts  --      0.4532                 0.6713                 1.1470
 IR Inten    --      2.3915                 6.0527                 3.0083

                     10                     11                     12
                      A                      A                      A
 Frequencies --    648.4720               743.6332               784.4969
 Red. masses --      3.7239                 4.8361                 2.8963
 Frc consts  --      0.9226                 1.5757                 1.0502
 IR Inten    --      3.0855                 4.5862                 1.5469

                     13                     14                     15
                      A                      A                      A
 Frequencies --    796.0446               885.0325               898.9461
 Red. masses --      2.9990                 1.9933                 1.9843
 Frc consts  --      1.1197                 0.9199                 0.9447
 IR Inten    --      0.8215                 9.2421                 4.8994

                     16                     17                     18
                      A                      A                      A
 Frequencies --    910.9114               918.4480               996.0050
 Red. masses --      2.1067                 2.4928                 2.1549
 Frc consts  --      1.0299                 1.2389                 1.2595
 IR Inten    --      2.8250                 0.7061                20.9778

                     19                     20                     21
                      A                      A                      A
 Frequencies --   1007.2321              1027.0091              1081.7083
 Red. masses --      1.0692                 2.6593                 3.3370
 Frc consts  --      0.6391                 1.6526                 2.3005
 IR Inten    --      0.8128                51.3319                 7.6560

                     22                     23                     24
                      A                      A                      A
 Frequencies --   1084.3030              1086.2775              1096.5581
 Red. masses --      2.0131                 1.8196                 1.6126
 Frc consts  --      1.3945                 1.2650                 1.1425
 IR Inten    --     22.6095                 6.3975                 9.3202

                     25                     26                     27
                      A                      A                      A
 Frequencies --   1142.4452              1158.0905              1167.2471
 Red. masses --      2.4940                 1.7782                 2.0218
 Frc consts  --      1.9178                 1.4051                 1.6230
 IR Inten    --     31.1377                 8.0652                14.2123

                     28                     29                     30
                      A                      A                      A
 Frequencies --   1186.0781              1208.4883              1232.9850
 Red. masses --      1.4297                 3.1671                 2.2020
 Frc consts  --      1.1850                 2.7252                 1.9724
 IR Inten    --      0.5564               153.3724                20.9716

                     31                     32                     33
                      A                      A                      A
 Frequencies --   1243.7491              1254.9244              1281.3795
 Red. masses --      1.7996                 2.1381                 1.2114
 Frc consts  --      1.6402                 1.9838                 1.1719
 IR Inten    --      6.1382               127.3989                 2.9916

                     34                     35                     36
                      A                      A                      A
 Frequencies --   1316.0183              1395.8894              1416.1520
 Red. masses --      2.3942                 1.2322                 1.3342
 Frc consts  --      2.4430                 1.4146                 1.5765
 IR Inten    --     38.9795                24.9043                11.9025

                     37                     38                     39
                      A                      A                      A
 Frequencies --   1450.4741              1482.1627              1494.1477
 Red. masses --      1.2543                 1.0480                 1.0712
 Frc consts  --      1.5548                 1.3565                 1.4090
 IR Inten    --     15.0121                 4.0338                 1.9265

                     40                     41                     42
                      A                      A                      A
 Frequencies --   1525.1975              1529.0069              2947.4714
 Red. masses --      1.1010                 1.1064                 1.0704
 Frc consts  --      1.5090                 1.5239                 5.4789
 IR Inten    --      0.9296                 4.8361                82.0510

                     43                     44                     45
                      A                      A                      A
 Frequencies --   3049.8475              3070.3043              3091.5151
 Red. masses --      1.0375                 1.0616                 1.0859
 Frc consts  --      5.6856                 5.8963                 6.1148
 IR Inten    --     18.9751                32.1747                39.1827

                     46                     47                     48
                      A                      A                      A
 Frequencies --   3102.6627              3103.4774              3111.2749
 Red. masses --      1.0915                 1.0936                 1.1009
 Frc consts  --      6.1909                 6.2057                 6.2789
 IR Inten    --     45.1427                67.8058                13.7673

                     49                     50                     51
                      A                      A                      A
 Frequencies --   3115.8210              3139.3461              3154.1135
 Red. masses --      1.0941                 1.1015                 1.0996
 Frc consts  --      6.2584                 6.3962                 6.4455
 IR Inten    --     26.5603                17.4481                30.3033

 - Thermochemistry -
 -------------------
 Temperature   298.150 Kelvin.  Pressure   1.00000 Atm.
 Atom     1 has atomic number  6 and mass  12.00000

 Molecular mass:   126.06808 amu.
 Principal axes and moments of inertia in atomic units:
                           1         2         3
     Eigenvalues --   673.10076 871.166521287.80227
           X            0.99994  -0.00377   0.01042
           Y            0.00372   0.99998   0.00496
           Z           -0.01044  -0.00493   0.99993
 This molecule is an asymmetric top.
 Rotational symmetry number  1.
 Warning -- assumption of classical behavior for rotation
           may cause significant error
 Rotational temperatures (Kelvin)      0.12868     0.09942     0.06726
 Rotational constants (GHZ):           2.68123     2.07164     1.40141
 Zero-point vibrational energy     423047.9 (Joules/Mol)
                                  101.11087 (Kcal/Mol)
 Warning -- explicit consideration of   9 degrees of freedom as
           vibrations may cause significant error
 Vibrational temperatures:    259.45   293.30   386.30   517.10   529.38
          (Kelvin)            640.29   669.48   769.56   816.52   933.01
                             1069.92  1128.71  1145.33  1273.36  1293.38
                             1310.60  1321.44  1433.03  1449.18  1477.64
                             1556.34  1560.07  1562.91  1577.70  1643.72
                             1666.23  1679.41  1706.50  1738.74  1773.99
                             1789.48  1805.55  1843.62  1893.45  2008.37
                             2037.52  2086.91  2132.50  2149.74  2194.42
                             2199.90  4240.75  4388.04  4417.48  4448.00
                             4464.03  4465.21  4476.43  4482.97  4516.81
                             4538.06

 Zero-point correction=                           0.161130 (Hartree/Particle)
 Thermal correction to Energy=                    0.168179
 Thermal correction to Enthalpy=                  0.169123
 Thermal correction to Gibbs Free Energy=         0.130140
 Sum of electronic and zero-point Energies=           -422.980847
 Sum of electronic and thermal Energies=              -422.973799
 Sum of electronic and thermal Enthalpies=            -422.972855
 Sum of electronic and thermal Free Energies=         -423.011838

                     E (Thermal)             CV                S
                      KCal/Mol        Cal/Mol-Kelvin    Cal/Mol-Kelvin
 Total                  105.534             29.263             82.046
 Electronic               0.000              0.000              0.000
 Translational            0.889              2.981             40.409
 Rotational               0.889              2.981             28.115
 Vibrational            103.756             23.302             13.523
 Vibration     1          0.629              1.866              2.325
 Vibration     2          0.640              1.834              2.098
 Vibration     3          0.673              1.731              1.606
 Vibration     4          0.734              1.556              1.125
 Vibration     5          0.741              1.538              1.088
 Vibration     6          0.804              1.372              0.811
 Vibration     7          0.823              1.327              0.751
 Vibration     8          0.890              1.173              0.576
 Vibration     9          0.923              1.102              0.509

 Optimization completed.
    -- Stationary point found.
 Normal termination of Gaussian 09 at Mon Jan 27 22:54:48 2020.
