 Gaussian 09, Revision D.01,
 Gaussian 09:  ES64L-G09RevD.01 24-Apr-2013

 -----------------------------
 # b3lyp 6-31G(2df,p) opt Freq
 -----------------------------

 -----
 titel
 -----
 Symbolic Z-matrix:
 Charge =  0 Multiplicity = 1

 SCF Done:  E(RB3LYP) =  -423.155860766     A.U. after   14 cycles
 Optimization completed.
    -- Stationary point found.
 Normal termination of Gaussian 09 at Tue Jan 28 02:53:32 2020.

 ----------------------------------------------------------------------
 #N Geom=AllCheck Guess=TCheck SCRF=Check GenChk RB3LYP/6-31G(2df,p) Fr
 eq
 ----------------------------------------------------------------------

 Structure from the checkpoint file:  "/scratch/puck/g09_0a84e279-4e12-4a37-8c37-172970b2e8c5/Gau-87671.chk"
 -----
 titel
 -----
 Charge =  0 Multiplicity = 1

                         Standard orientation:
 ---------------------------------------------------------------------
 Center     Atomic      Atomic             Coordinates (Angstroms)
 Number     Number       Type             X           Y           Z
 ---------------------------------------------------------------------
      1          6           0        2.789848   -1.052054    0.312507
      2          6           0        1.946472    0.002356   -0.373035
      3          8           0        0.678920   -0.558390   -0.847229
      4          6           0       -0.047510    0.276000    0.065035
      5          6           0       -1.247837   -0.321934    0.739595
      6          6           0       -2.388925   -0.552585   -0.238306
      7          8           0       -3.534905   -0.253566   -0.023699
      8          6           0        0.165890    1.722009   -0.271486
      9          6           0        1.204505    0.974401    0.543807
     10          1           0        3.048798   -1.846749   -0.393287
     11          1           0        3.718948   -0.609688    0.688992
     12          1           0        2.250206   -1.497452    1.153606
     13          1           0        2.495668    0.463365   -1.204216
     14          1           0       -0.969449   -1.297651    1.162478
     15          1           0       -1.606281    0.317967    1.550239
     16          1           0       -2.085687   -1.037253   -1.191954
     17          1           0        0.376383    2.011196   -1.297709
     18          1           0       -0.431896    2.430237    0.294229
     19          1           0        1.516542    1.272509    1.536335
 ---------------------------------------------------------------------

 SCF Done:  E(RB3LYP) =  -423.155860766     A.U. after    1 cycles

 The electronic state is 1-A.
 Alpha  occ. eigenvalues --  -19.14239 -19.13963 -10.27205 -10.25470 -10.24584
 Alpha  occ. eigenvalues --  -10.20255 -10.20188 -10.19593 -10.18496  -1.05714
 Alpha  occ. eigenvalues --   -1.04616  -0.84216  -0.78117  -0.74952  -0.64048
 Alpha  occ. eigenvalues --   -0.60868  -0.57890  -0.53904  -0.50679  -0.49648
 Alpha  occ. eigenvalues --   -0.47593  -0.46197  -0.43443  -0.42459  -0.41177
 Alpha  occ. eigenvalues --   -0.39187  -0.38754  -0.37436  -0.36948  -0.34234
 Alpha  occ. eigenvalues --   -0.31866  -0.28981  -0.25231  -0.23692
 Alpha virt. eigenvalues --   -0.02227   0.07688   0.09846   0.10547   0.10587
 Alpha virt. eigenvalues --    0.12318   0.12848   0.13984   0.15603   0.15740
 Alpha virt. eigenvalues --    0.17280   0.17727   0.18479   0.19758   0.22833

 Mulliken charges:
               1
     1  C   -0.399780
     2  C    0.140972
     3  O   -0.341821
     4  C    0.465479
     5  C   -0.385731
     6  C    0.160312
     7  O   -0.239393
     8  C   -0.342434
     9  C   -0.206559
    10  H    0.130373
    11  H    0.118190
    12  H    0.121027
    13  H    0.082214
    14  H    0.130286
    15  H    0.127303
    16  H    0.099069
    17  H    0.117378
    18  H    0.121257
    19  H    0.101856
 Sum of Mulliken charges =   0.00000

 Dipole moment (field-independent basis, Debye):
    X=              3.0972    Y=              0.4671    Z=              1.1552  Tot=              3.3384
 Quadrupole moment (field-independent basis, Debye-Ang):
   XX=            -63.0431   YY=            -51.7590   ZZ=            -52.3565
   XY=              0.2514   XZ=              0.2326   YZ=             -0.6098

  Exact polarizability:  94.219  -3.920  70.480  -0.431   0.613  65.656
 Approx polarizability: 127.265  -4.395 103.877  -0.953   3.599 100.437

                      1                      2                      3
                      A                      A                      A
 Frequencies --     46.2630                57.6171               115.8223
 Red. masses --      4.8946                 3.3814                 3.3858
 Frc consts  --      0.0062                 0.0066                 0.0268
 IR Inten    --      2.4494                 4.2427                 3.7301

                      4                      5                      6
                      A                      A                      A
 Frequencies --    181.3693               236.3338               286.9328
 Red. masses --      2.4324                 1.0917                 2.3032
 Frc consts  --      0.0471                 0.0359                 0.1117
 IR Inten    --      0.6322                 0.6780                 0.6881

                      7                      8                      9
                      A                      A                      A
 Frequencies --    347.5208               366.4318               427.4388
 Red. masses --      2.5330                 3.3942                 3.5122
 Frc consts  --      0.1802                 0.2685                 0.3781
 IR Inten    --      2.4874                 2.3823                14.1520

                     10                     11                     12
                      A                      A                      A
 Frequencies --    469.6677               494.3975               686.3102
 Red. masses --      2.6455                 2.8277                 2.3220
 Frc consts  --      0.3438                 0.4072                 0.6444
 IR Inten    --      0.6115                 8.7129                 2.6715

                     13                     14                     15
                      A                      A                      A
 Frequencies --    759.0318               798.5900               846.8513
 Red. masses --      2.2605                 1.9157                 2.6686
 Frc consts  --      0.7673                 0.7198                 1.1276
 IR Inten    --      1.2450                 7.6091                 3.7249

                     16                     17                     18
                      A                      A                      A
 Frequencies --    877.1212               880.6768               932.3144
 Red. masses --      2.4379                 2.6467                 1.6182
 Frc consts  --      1.1051                 1.2095                 0.8287
 IR Inten    --     11.6114                29.3300                 9.0510

                     19                     20                     21
                      A                      A                      A
 Frequencies --    973.4280               985.8470              1000.3642
 Red. masses --      1.9950                 1.9800                 1.4274
 Frc consts  --      1.1138                 1.1338                 0.8416
 IR Inten    --     10.8454                26.0151                 1.2355

                     22                     23                     24
                      A                      A                      A
 Frequencies --   1043.0252              1057.4606              1073.3990
 Red. masses --      2.8995                 1.5145                 2.1753
 Frc consts  --      1.8585                 0.9978                 1.4767
 IR Inten    --     71.0936                12.6306                13.3211

                     25                     26                     27
                      A                      A                      A
 Frequencies --   1083.4816              1100.8017              1150.7580
 Red. masses --      1.8058                 1.7194                 2.3000
 Frc consts  --      1.2490                 1.2276                 1.7945
 IR Inten    --      9.2295                 0.9664                15.8814

                     28                     29                     30
                      A                      A                      A
 Frequencies --   1173.7914              1240.1473              1250.9816
 Red. masses --      1.9303                 1.3329                 1.7100
 Frc consts  --      1.5669                 1.2078                 1.5767
 IR Inten    --      9.6453                15.1266                 8.5764

                     31                     32                     33
                      A                      A                      A
 Frequencies --   1300.1172              1308.7738              1385.3187
 Red. masses --      1.5316                 1.6926                 1.4431
 Frc consts  --      1.5253                 1.7082                 1.6317
 IR Inten    --     13.5451                16.1601                 7.9856

                     34                     35                     36
                      A                      A                      A
 Frequencies --   1398.0262              1405.5157              1426.0581
 Red. masses --      1.9012                 1.3663                 1.1915
 Frc consts  --      2.1893                 1.5902                 1.4276
 IR Inten    --     11.2511                12.6362                 9.2673

                     37                     38                     39
                      A                      A                      A
 Frequencies --   1444.1128              1482.2080              1489.7865
 Red. masses --      1.1477                 1.1744                 1.1532
 Frc consts  --      1.4102                 1.5201                 1.5080
 IR Inten    --      6.0551                 2.6328                 9.7352

                     40                     41                     42
                      A                      A                      A
 Frequencies --   1490.6358              1833.9655              2899.1566
 Red. masses --      1.2884                 9.9726                 1.0838
 Frc consts  --      1.6867                19.7625                 5.3670
 IR Inten    --      4.6033               186.3617                73.9655

                     43                     44                     45
                      A                      A                      A
 Frequencies --   3017.2797              3021.7645              3035.1516
 Red. masses --      1.0652                 1.0840                 1.0358
 Frc consts  --      5.7134                 5.8317                 5.6218
 IR Inten    --     10.5377                48.8441                16.7437

                     46                     47                     48
                      A                      A                      A
 Frequencies --   3106.7942              3107.7541              3113.6436
 Red. masses --      1.0999                 1.0947                 1.0557
 Frc consts  --      6.2550                 6.2294                 6.0299
 IR Inten    --     18.1634                 8.3054                11.7524

                     49                     50                     51
                      A                      A                      A
 Frequencies --   3118.6130              3195.4236              3207.9160
 Red. masses --      1.1025                 1.0974                 1.1127
 Frc consts  --      6.3178                 6.6018                 6.7465
 IR Inten    --     23.1543                 6.1752                 8.8496

 - Thermochemistry -
 -------------------
 Temperature   298.150 Kelvin.  Pressure   1.00000 Atm.
 Atom     1 has atomic number  6 and mass  12.00000

 Molecular mass:   126.06808 amu.
 Principal axes and moments of inertia in atomic units:
                           1         2         3
     Eigenvalues --   470.251401909.181772102.48414
           X            0.99990  -0.01352   0.00403
           Y            0.01364   0.99941  -0.03140
           Z           -0.00361   0.03145   0.99950
 This molecule is an asymmetric top.
 Rotational symmetry number  1.
 Warning -- assumption of classical behavior for rotation
           may cause significant error
 Rotational temperatures (Kelvin)      0.18419     0.04537     0.04120
 Rotational constants (GHZ):           3.83782     0.94530     0.85839
 Zero-point vibrational energy     411109.8 (Joules/Mol)
                                   98.25760 (Kcal/Mol)
 Warning -- explicit consideration of  11 degrees of freedom as
           vibrations may cause significant error
 Vibrational temperatures:     66.56    82.90   166.64   260.95   340.03
          (Kelvin)            412.83   500.00   527.21   614.99   675.75
                              711.33   987.45  1092.08  1148.99  1218.43
                             1261.98  1267.10  1341.39  1400.54  1418.41
                             1439.30  1500.68  1521.45  1544.38  1558.89
                             1583.81  1655.68  1688.82  1784.29  1799.88
                             1870.58  1883.03  1993.16  2011.45  2022.22
                             2051.78  2077.75  2132.56  2143.47  2144.69
                             2638.66  4171.23  4341.19  4347.64  4366.90
                             4469.98  4471.36  4479.83  4486.98  4597.50
                             4615.47

 Zero-point correction=                           0.156583 (Hartree/Particle)
 Thermal correction to Energy=                    0.165699
 Thermal correction to Enthalpy=                  0.166643
 Thermal correction to Gibbs Free Energy=         0.121666
 Sum of electronic and zero-point Energies=           -422.999277
 Sum of electronic and thermal Energies=              -422.990162
 Sum of electronic and thermal Enthalpies=            -422.989218
 Sum of electronic and thermal Free Energies=         -423.034195

                     E (Thermal)             CV                S
                      KCal/Mol        Cal/Mol-Kelvin    Cal/Mol-Kelvin
 Total                  103.978             33.215             94.663
 Electronic               0.000              0.000              0.000
 Translational            0.889              2.981             40.409
 Rotational               0.889              2.981             29.025
 Vibrational            102.200             27.253             25.229
 Vibration     1          0.595              1.979              4.971
 Vibration     2          0.596              1.974              4.537
 Vibration     3          0.608              1.936              3.169
 Vibration     4          0.630              1.865              2.314
 Vibration     5          0.655              1.785              1.830
 Vibration     6          0.684              1.698              1.492
 Vibration     7          0.725              1.580              1.177
 Vibration     8          0.739              1.541              1.095
 Vibration     9          0.789              1.411              0.867
 Vibration    10          0.827              1.317              0.738
 Vibration    11          0.850              1.262              0.672

 Normal termination of Gaussian 09 at Tue Jan 28 03:32:59 2020.
