 Gaussian 09, Revision D.01,
 Gaussian 09:  ES64L-G09RevD.01 24-Apr-2013

 -----------------------------
 # b3lyp 6-31G(2df,p) opt Freq
 -----------------------------

 -----
 titel
 -----
 Symbolic Z-matrix:
 Charge =  0 Multiplicity = 1

 SCF Done:  E(RB3LYP) =  -423.196113592     A.U. after   14 cycles
 Optimization completed.
    -- Stationary point found.
 Normal termination of Gaussian 09 at Mon Jan 27 14:00:50 2020.

 ----------------------------------------------------------------------
 #N Geom=AllCheck Guess=TCheck SCRF=Check GenChk RB3LYP/6-31G(2df,p) Fr
 eq
 ----------------------------------------------------------------------

 Structure from the checkpoint file:  "/scratch/puck/g09_24b1f0b6-847d-4f60-ae67-66ff28e2c55f/Gau-4008.chk"
 -----
 titel
 -----
 Charge =  0 Multiplicity = 1

                         Standard orientation:
 ---------------------------------------------------------------------
 Center     Atomic      Atomic             Coordinates (Angstroms)
 Number     Number       Type             X           Y           Z
 ---------------------------------------------------------------------
      1          8           0       -4.013143    0.077496   -0.026774
      2          6           0       -2.922217   -0.179905   -0.467114
      3          6           0       -1.663202   -0.325095    0.351644
      4          6           0       -0.555752    0.629017   -0.126131
      5          6           0        0.782986    0.359644    0.576565
      6          8           0        1.199859   -0.989585    0.338051
      7          6           0        2.498601   -1.017903   -0.250320
      8          6           0        2.886952    0.424687   -0.408698
      9          6           0        1.923165    1.202356    0.069004
     10          1           0       -2.770659   -0.328884   -1.563387
     11          1           0       -1.907608   -0.165165    1.406053
     12          1           0       -1.295971   -1.353167    0.231791
     13          1           0       -0.406452    0.521589   -1.207624
     14          1           0       -0.850453    1.669467    0.059054
     15          1           0        0.638172    0.495550    1.662312
     16          1           0        3.193068   -1.568773    0.403694
     17          1           0        2.464347   -1.556276   -1.210066
     18          1           0        3.825425    0.741278   -0.845707
     19          1           0        1.913196    2.284294    0.103959
 ---------------------------------------------------------------------

 SCF Done:  E(RB3LYP) =  -423.196113592     A.U. after    1 cycles

 The electronic state is 1-A.
 Alpha  occ. eigenvalues --  -19.14222 -19.13429 -10.26670 -10.24336 -10.23811
 Alpha  occ. eigenvalues --  -10.19651 -10.19632 -10.19382 -10.19021  -1.04113
 Alpha  occ. eigenvalues --   -1.04016  -0.80748  -0.79320  -0.73739  -0.65887
 Alpha  occ. eigenvalues --   -0.58510  -0.57694  -0.56515  -0.51613  -0.49033
 Alpha  occ. eigenvalues --   -0.46762  -0.45073  -0.43231  -0.43145  -0.40704
 Alpha  occ. eigenvalues --   -0.39526  -0.38820  -0.37154  -0.35322  -0.34673
 Alpha  occ. eigenvalues --   -0.32485  -0.28433  -0.24864  -0.23976
 Alpha virt. eigenvalues --   -0.01712   0.00991   0.09150   0.11198   0.11738
 Alpha virt. eigenvalues --    0.12419   0.13681   0.14285   0.15286   0.16172
 Alpha virt. eigenvalues --    0.16700   0.17055   0.18211   0.18893   0.21704

 Mulliken charges:
               1
     1  O   -0.240232
     2  C    0.156137
     3  C   -0.270560
     4  C   -0.207463
     5  C    0.088277
     6  O   -0.277208
     7  C   -0.115238
     8  C   -0.094501
     9  C   -0.096435
    10  H    0.067421
    11  H    0.116919
    12  H    0.139854
    13  H    0.104928
    14  H    0.106943
    15  H    0.084508
    16  H    0.109153
    17  H    0.108374
    18  H    0.110253
    19  H    0.108869
 Sum of Mulliken charges =   0.00000

 Dipole moment (field-independent basis, Debye):
    X=              3.7178    Y=              0.6793    Z=             -0.8351  Tot=              3.8705
 Quadrupole moment (field-independent basis, Debye-Ang):
   XX=            -64.5206   YY=            -51.7334   ZZ=            -52.3949
   XY=              1.6618   XZ=             -0.2686   YZ=              1.3498

  Exact polarizability: 103.188  -6.974  70.627  -7.284   3.864  64.362
 Approx polarizability: 135.442 -16.431 108.805 -16.530   8.820  99.718

                      1                      2                      3
                      A                      A                      A
 Frequencies --     48.7902                56.5328                95.0666
 Red. masses --      4.0671                 4.2411                 3.2922
 Frc consts  --      0.0057                 0.0080                 0.0175
 IR Inten    --      1.0929                 4.2023                 6.6709

                      4                      5                      6
                      A                      A                      A
 Frequencies --    121.6526               148.2257               290.6565
 Red. masses --      2.4590                 3.1773                 3.3969
 Frc consts  --      0.0214                 0.0411                 0.1691
 IR Inten    --      2.0092                 1.7602                 1.0420

                      7                      8                      9
                      A                      A                      A
 Frequencies --    307.4912               401.1267               501.3554
 Red. masses --      2.5631                 3.0435                 2.6269
 Frc consts  --      0.1428                 0.2885                 0.3890
 IR Inten    --      1.1627                 4.2989                 7.6504

                     10                     11                     12
                      A                      A                      A
 Frequencies --    540.2256               705.9917               742.0636
 Red. masses --      2.3962                 1.5874                 1.5523
 Frc consts  --      0.4120                 0.4662                 0.5036
 IR Inten    --      8.2996                16.7485                 7.3313

                     13                     14                     15
                      A                      A                      A
 Frequencies --    778.9551               817.1456               831.2138
 Red. masses --      2.9186                 3.2890                 2.2413
 Frc consts  --      1.0434                 1.2939                 0.9124
 IR Inten    --      7.6660                 5.1686                 7.4180

                     16                     17                     18
                      A                      A                      A
 Frequencies --    905.6240               937.2437               960.2337
 Red. masses --      2.0643                 2.1332                 1.2608
 Frc consts  --      0.9975                 1.1040                 0.6850
 IR Inten    --     10.9717                 0.7850                 0.4193

                     19                     20                     21
                      A                      A                      A
 Frequencies --    987.2786              1010.7725              1034.6122
 Red. masses --      3.3134                 2.8992                 1.7814
 Frc consts  --      1.9028                 1.7451                 1.1235
 IR Inten    --     23.1447                18.1621                 8.6085

                     22                     23                     24
                      A                      A                      A
 Frequencies --   1045.5504              1085.1858              1114.9655
 Red. masses --      1.6518                 2.6544                 3.3305
 Frc consts  --      1.0639                 1.8417                 2.4394
 IR Inten    --      5.9995                37.6367                76.4012

                     25                     26                     27
                      A                      A                      A
 Frequencies --   1124.3200              1134.2653              1192.1915
 Red. masses --      2.4578                 1.5106                 1.1921
 Frc consts  --      1.8305                 1.1450                 0.9983
 IR Inten    --     17.8928                14.9755                 6.4113

                     28                     29                     30
                      A                      A                      A
 Frequencies --   1207.5378              1245.6020              1300.1575
 Red. masses --      1.2258                 1.3034                 1.1955
 Frc consts  --      1.0531                 1.1915                 1.1906
 IR Inten    --     16.6509                 0.3122                15.9907

                     31                     32                     33
                      A                      A                      A
 Frequencies --   1314.5368              1350.8433              1361.0056
 Red. masses --      1.2501                 1.4036                 1.6010
 Frc consts  --      1.2727                 1.5090                 1.7472
 IR Inten    --      0.1467                14.9330                 0.2458

                     34                     35                     36
                      A                      A                      A
 Frequencies --   1388.6414              1390.0448              1431.6181
 Red. masses --      1.4125                 1.5749                 1.1983
 Frc consts  --      1.6048                 1.7929                 1.4470
 IR Inten    --      9.3398                 1.6617                 6.4437

                     37                     38                     39
                      A                      A                      A
 Frequencies --   1463.8729              1483.6409              1521.0335
 Red. masses --      1.0848                 1.1003                 1.0849
 Frc consts  --      1.3697                 1.4270                 1.4788
 IR Inten    --      1.5571                 5.3387                 1.8900

                     40                     41                     42
                      A                      A                      A
 Frequencies --   1691.8062              1835.0949              2843.6719
 Red. masses --      6.5093                10.0541                 1.0812
 Frc consts  --     10.9771                19.9485                 5.1512
 IR Inten    --      1.0351               209.6096               111.2093

                     43                     44                     45
                      A                      A                      A
 Frequencies --   2950.1775              2976.7601              2994.8519
 Red. masses --      1.0817                 1.0578                 1.1041
 Frc consts  --      5.5468                 5.5227                 5.8345
 IR Inten    --     56.1739                82.2911                43.3428

                     46                     47                     48
                      A                      A                      A
 Frequencies --   3023.6237              3032.3276              3067.8209
 Red. masses --      1.0585                 1.0605                 1.1023
 Frc consts  --      5.7016                 5.7451                 6.1126
 IR Inten    --     10.5862                18.6312                16.1171

                     49                     50                     51
                      A                      A                      A
 Frequencies --   3101.5772              3207.8370              3232.2062
 Red. masses --      1.1017                 1.0854                 1.1067
 Frc consts  --      6.2443                 6.5803                 6.8118
 IR Inten    --     22.7449                 2.1406                 8.7506

 - Thermochemistry -
 -------------------
 Temperature   298.150 Kelvin.  Pressure   1.00000 Atm.
 Atom     1 has atomic number  8 and mass  15.99491

 Molecular mass:   126.06808 amu.
 Principal axes and moments of inertia in atomic units:
                           1         2         3
     Eigenvalues --   341.988052570.353552740.66877
           X            1.00000   0.00014  -0.00282
           Y           -0.00008   0.99973   0.02318
           Z            0.00282  -0.02318   0.99973
 This molecule is an asymmetric top.
 Rotational symmetry number  1.
 Rotational temperatures (Kelvin)      0.25327     0.03370     0.03160
 Rotational constants (GHZ):           5.27721     0.70214     0.65850
 Zero-point vibrational energy     414715.5 (Joules/Mol)
                                   99.11940 (Kcal/Mol)
 Warning -- explicit consideration of  10 degrees of freedom as
           vibrations may cause significant error
 Vibrational temperatures:     70.20    81.34   136.78   175.03   213.26
          (Kelvin)            418.19   442.41   577.13   721.34   777.26
                             1015.76  1067.66  1120.74  1175.69  1195.93
                             1302.99  1348.48  1381.56  1420.47  1454.27
                             1488.57  1504.31  1561.34  1604.18  1617.64
                             1631.95  1715.30  1737.38  1792.14  1870.63
                             1891.32  1943.56  1958.18  1997.94  1999.96
                             2059.78  2106.18  2134.63  2188.43  2434.13
                             2640.29  4091.40  4244.64  4282.89  4308.92
                             4350.31  4362.84  4413.90  4462.47  4615.36
                             4650.42

 Zero-point correction=                           0.157957 (Hartree/Particle)
 Thermal correction to Energy=                    0.167040
 Thermal correction to Enthalpy=                  0.167984
 Thermal correction to Gibbs Free Energy=         0.122427
 Sum of electronic and zero-point Energies=           -423.038157
 Sum of electronic and thermal Energies=              -423.029073
 Sum of electronic and thermal Enthalpies=            -423.028129
 Sum of electronic and thermal Free Energies=         -423.073687

                     E (Thermal)             CV                S
                      KCal/Mol        Cal/Mol-Kelvin    Cal/Mol-Kelvin
 Total                  104.819             32.006             95.885
 Electronic               0.000              0.000              0.000
 Translational            0.889              2.981             40.409
 Rotational               0.889              2.981             29.267
 Vibrational            103.042             26.044             26.209
 Vibration     1          0.595              1.978              4.866
 Vibration     2          0.596              1.975              4.575
 Vibration     3          0.603              1.953              3.553
 Vibration     4          0.609              1.931              3.074
 Vibration     5          0.618              1.905              2.695
 Vibration     6          0.687              1.691              1.470
 Vibration     7          0.697              1.659              1.376
 Vibration     8          0.767              1.468              0.959
 Vibration     9          0.857              1.247              0.655
 Vibration    10          0.895              1.161              0.565

 Optimization completed.
    -- Stationary point found.
 Normal termination of Gaussian 09 at Mon Jan 27 15:37:27 2020.
