 Gaussian 09, Revision D.01,
 Gaussian 09:  ES64L-G09RevD.01 24-Apr-2013

 -----------------------------
 # b3lyp 6-31G(2df,p) opt Freq
 -----------------------------

 -----
 titel
 -----
 Symbolic Z-matrix:
 Charge =  0 Multiplicity = 1

 SCF Done:  E(RB3LYP) =  -423.126513039     A.U. after   13 cycles
 Optimization completed.
    -- Stationary point found.
 Normal termination of Gaussian 09 at Tue Jan 28 01:52:55 2020.

 ----------------------------------------------------------------------
 #N Geom=AllCheck Guess=TCheck SCRF=Check GenChk RB3LYP/6-31G(2df,p) Fr
 eq
 ----------------------------------------------------------------------

 Structure from the checkpoint file:  "/scratch/puck/g09_ed4ce137-47ce-45e3-998d-b674ae7ffcf3/Gau-190724.chk"
 -----
 titel
 -----
 Charge =  0 Multiplicity = 1

                         Standard orientation:
 ---------------------------------------------------------------------
 Center     Atomic      Atomic             Coordinates (Angstroms)
 Number     Number       Type             X           Y           Z
 ---------------------------------------------------------------------
      1          6           0       -2.809242    0.704168    0.448105
      2          6           0       -1.529799    0.023243    0.088914
      3          6           0       -0.605083   -0.819323    1.001309
      4          6           0        0.572295   -0.371214    0.102240
      5          6           0        1.808156   -1.111842   -0.337655
      6          6           0        1.911469    0.113639    0.543732
      7          8           0        2.342012    1.326430   -0.007417
      8          6           0       -0.389824    0.416252   -0.762293
      9          8           0       -1.385639   -0.510364   -1.235961
     10          1           0       -3.136960    1.352807   -0.368553
     11          1           0       -3.600739   -0.029932    0.638557
     12          1           0       -2.687949    1.309349    1.352302
     13          1           0       -0.531421   -0.435778    2.023275
     14          1           0       -0.832945   -1.888392    1.019750
     15          1           0        2.016822   -2.082630    0.100964
     16          1           0        2.107449   -1.003361   -1.375391
     17          1           0        2.184011   -0.037414    1.589633
     18          1           0        3.285359    1.253127   -0.186381
     19          1           0       -0.202437    1.304157   -1.353243
 ---------------------------------------------------------------------

 SCF Done:  E(RB3LYP) =  -423.126513039     A.U. after    1 cycles

 The electronic state is 1-A.
 Alpha  occ. eigenvalues --  -19.14531 -19.13820 -10.23624 -10.23539 -10.22631
 Alpha  occ. eigenvalues --  -10.19688 -10.18562 -10.18285 -10.18242  -1.06543
 Alpha  occ. eigenvalues --   -1.02934  -0.85407  -0.76777  -0.72624  -0.64699
 Alpha  occ. eigenvalues --   -0.60752  -0.56312  -0.53411  -0.51818  -0.50093
 Alpha  occ. eigenvalues --   -0.45047  -0.44374  -0.43715  -0.41719  -0.40180
 Alpha  occ. eigenvalues --   -0.38215  -0.37565  -0.35948  -0.33779  -0.31947
 Alpha  occ. eigenvalues --   -0.29522  -0.27030  -0.25543  -0.23995
 Alpha virt. eigenvalues --    0.07637   0.09378   0.10383   0.11201   0.11928
 Alpha virt. eigenvalues --    0.12174   0.14561   0.14988   0.15279   0.16810
 Alpha virt. eigenvalues --    0.17371   0.18890   0.19150   0.20740   0.23360

 Mulliken charges:
               1
     1  C   -0.498686
     2  C    0.427201
     3  C   -0.392153
     4  C    0.353757
     5  C   -0.390912
     6  C    0.027812
     7  O   -0.422674
     8  C   -0.124501
     9  O   -0.293277
    10  H    0.134335
    11  H    0.128766
    12  H    0.124139
    13  H    0.106133
    14  H    0.106939
    15  H    0.113411
    16  H    0.118417
    17  H    0.084818
    18  H    0.289024
    19  H    0.107450
 Sum of Mulliken charges =   0.00000

 Dipole moment (field-independent basis, Debye):
    X=              1.3963    Y=              0.1894    Z=              1.4792  Tot=              2.0429
 Quadrupole moment (field-independent basis, Debye-Ang):
   XX=            -45.5972   YY=            -54.4423   ZZ=            -53.5838
   XY=             -2.1956   XZ=             -3.3282   YZ=             -2.5418

  Exact polarizability:  92.999  -1.704  68.628  -3.899  -2.630  68.867
 Approx polarizability: 118.703   2.828 103.133  -3.710  -1.278 107.327

                      1                      2                      3
                      A                      A                      A
 Frequencies --     95.3420               155.9602               184.0089
 Red. masses --      3.6841                 2.9365                 2.8987
 Frc consts  --      0.0197                 0.0421                 0.0578
 IR Inten    --      2.3430                 0.6012                 2.2501

                      4                      5                      6
                      A                      A                      A
 Frequencies --    202.3016               271.5368               316.0140
 Red. masses --      1.2047                 1.8411                 1.5154
 Frc consts  --      0.0290                 0.0800                 0.0892
 IR Inten    --      0.0037                32.7882                52.8463

                      7                      8                      9
                      A                      A                      A
 Frequencies --    329.5656               409.6494               429.1576
 Red. masses --      2.5634                 2.1926                 3.4196
 Frc consts  --      0.1640                 0.2168                 0.3711
 IR Inten    --     18.4095                 0.8172                 6.1393

                     10                     11                     12
                      A                      A                      A
 Frequencies --    441.6177               537.7409               589.2854
 Red. masses --      2.2126                 3.8690                 4.5147
 Frc consts  --      0.2542                 0.6592                 0.9237
 IR Inten    --      7.8351                 5.4089                13.9810

                     13                     14                     15
                      A                      A                      A
 Frequencies --    674.7239               775.1664               807.3175
 Red. masses --      3.2633                 3.4912                 2.3189
 Frc consts  --      0.8753                 1.2360                 0.8905
 IR Inten    --      0.7428                 4.9192                 2.1125

                     16                     17                     18
                      A                      A                      A
 Frequencies --    860.5816               873.4700               902.6590
 Red. masses --      2.4741                 1.7972                 2.0703
 Frc consts  --      1.0796                 0.8078                 0.9939
 IR Inten    --     10.2812                15.8507                 4.0399

                     19                     20                     21
                      A                      A                      A
 Frequencies --    931.7347               979.7071              1000.2241
 Red. masses --      2.3595                 1.7376                 1.9677
 Frc consts  --      1.2068                 0.9826                 1.1599
 IR Inten    --      9.9656                 6.0773                 2.1576

                     22                     23                     24
                      A                      A                      A
 Frequencies --   1005.2460              1032.5029              1049.6663
 Red. masses --      2.1835                 1.3744                 1.7705
 Frc consts  --      1.3000                 0.8632                 1.1494
 IR Inten    --     15.9242                 6.6092                12.1420

                     25                     26                     27
                      A                      A                      A
 Frequencies --   1090.0878              1110.9317              1163.3635
 Red. masses --      1.6696                 1.9853                 2.4877
 Frc consts  --      1.1689                 1.4436                 1.9837
 IR Inten    --     19.4551                10.2137                34.7242

                     28                     29                     30
                      A                      A                      A
 Frequencies --   1165.1498              1180.7106              1205.7636
 Red. masses --      1.3734                 1.8553                 1.5733
 Frc consts  --      1.0985                 1.5239                 1.3477
 IR Inten    --      1.2477                 6.4002                21.9021

                     31                     32                     33
                      A                      A                      A
 Frequencies --   1229.0050              1257.2537              1301.2793
 Red. masses --      1.7236                 2.3503                 1.3114
 Frc consts  --      1.5339                 2.1888                 1.3083
 IR Inten    --     18.3428                15.7975                68.8420

                     34                     35                     36
                      A                      A                      A
 Frequencies --   1358.7855              1403.0469              1426.7204
 Red. masses --      1.7263                 1.3008                 1.3303
 Frc consts  --      1.8779                 1.5088                 1.5955
 IR Inten    --      0.6554                 2.0950                 7.9884

                     37                     38                     39
                      A                      A                      A
 Frequencies --   1452.0785              1473.8617              1483.5730
 Red. masses --      2.1099                 1.2186                 1.1682
 Frc consts  --      2.6212                 1.5596                 1.5150
 IR Inten    --     13.0871                 2.1809                14.2127

                     40                     41                     42
                      A                      A                      A
 Frequencies --   1493.8630              1500.3049              3032.4876
 Red. masses --      1.2065                 2.1997                 1.0368
 Frc consts  --      1.5864                 2.9173                 5.6177
 IR Inten    --      4.0788                11.1102                24.7315

                     43                     44                     45
                      A                      A                      A
 Frequencies --   3052.7985              3083.8179              3094.2771
 Red. masses --      1.0572                 1.0870                 1.0993
 Frc consts  --      5.8049                 6.0907                 6.2013
 IR Inten    --     30.0414                37.1999                14.1091

                     46                     47                     48
                      A                      A                      A
 Frequencies --   3110.2921              3121.0991              3123.6613
 Red. masses --      1.1083                 1.1011                 1.0542
 Frc consts  --      6.3168                 6.3194                 6.0606
 IR Inten    --     19.9963                13.7605                10.5508

                     49                     50                     51
                      A                      A                      A
 Frequencies --   3201.0403              3212.8852              3804.6103
 Red. masses --      1.0943                 1.1168                 1.0663
 Frc consts  --      6.6065                 6.7921                 9.0936
 IR Inten    --      9.8612                 6.8992                23.0544

 - Thermochemistry -
 -------------------
 Temperature   298.150 Kelvin.  Pressure   1.00000 Atm.
 Atom     1 has atomic number  6 and mass  12.00000

 Molecular mass:   126.06808 amu.
 Principal axes and moments of inertia in atomic units:
                           1         2         3
     Eigenvalues --   519.733881623.782181683.77619
           X            0.99945  -0.02938  -0.01552
           Y            0.02700   0.99032  -0.13613
           Z            0.01937   0.13564   0.99057
 This molecule is an asymmetric top.
 Rotational symmetry number  1.
 Warning -- assumption of classical behavior for rotation
           may cause significant error
 Rotational temperatures (Kelvin)      0.16665     0.05334     0.05144
 Rotational constants (GHZ):           3.47243     1.11144     1.07184
 Zero-point vibrational energy     412639.4 (Joules/Mol)
                                   98.62319 (Kcal/Mol)
 Warning -- explicit consideration of  12 degrees of freedom as
           vibrations may cause significant error
 Vibrational temperatures:    137.18   224.39   264.75   291.07   390.68
          (Kelvin)            454.67   474.17   589.39   617.46   635.39
                              773.69   847.85   970.78  1115.29  1161.55
                             1238.18  1256.73  1298.72  1340.56  1409.58
                             1439.10  1446.32  1485.54  1510.23  1568.39
                             1598.38  1673.82  1676.39  1698.78  1734.82
                             1768.26  1808.91  1872.25  1954.99  2018.67
                             2052.73  2089.21  2120.56  2134.53  2149.33
                             2158.60  4363.07  4392.29  4436.92  4451.97
                             4475.01  4490.56  4494.25  4605.58  4622.62
                             5473.98

 Zero-point correction=                           0.157166 (Hartree/Particle)
 Thermal correction to Energy=                    0.165874
 Thermal correction to Enthalpy=                  0.166818
 Thermal correction to Gibbs Free Energy=         0.124133
 Sum of electronic and zero-point Energies=           -422.969347
 Sum of electronic and thermal Energies=              -422.960639
 Sum of electronic and thermal Enthalpies=            -422.959695
 Sum of electronic and thermal Free Energies=         -423.002380

                     E (Thermal)             CV                S
                      KCal/Mol        Cal/Mol-Kelvin    Cal/Mol-Kelvin
 Total                  104.087             33.692             89.838
 Electronic               0.000              0.000              0.000
 Translational            0.889              2.981             40.409
 Rotational               0.889              2.981             28.743
 Vibrational            102.310             27.730             20.687
 Vibration     1          0.603              1.953              3.547
 Vibration     2          0.620              1.896              2.598
 Vibration     3          0.631              1.862              2.287
 Vibration     4          0.639              1.837              2.112
 Vibration     5          0.675              1.726              1.586
 Vibration     6          0.703              1.643              1.331
 Vibration     7          0.712              1.616              1.262
 Vibration     8          0.774              1.449              0.928
 Vibration     9          0.791              1.407              0.861
 Vibration    10          0.801              1.379              0.822
 Vibration    11          0.893              1.167              0.570
 Vibration    12          0.947              1.055              0.468

 Optimization completed.
    -- Stationary point found.
 Normal termination of Gaussian 09 at Tue Jan 28 02:40:11 2020.
