 Gaussian 09, Revision D.01,
 Gaussian 09:  ES64L-G09RevD.01 24-Apr-2013

 -----------------------------
 # b3lyp 6-31G(2df,p) opt Freq
 -----------------------------

 -----
 titel
 -----
 Symbolic Z-matrix:
 Charge =  0 Multiplicity = 1

 SCF Done:  E(RB3LYP) =  -423.164833370     A.U. after   13 cycles
 SCF Done:  E(RB3LYP) =  -423.164833473     A.U. after    6 cycles
 Optimization completed.
    -- Stationary point found.
 Normal termination of Gaussian 09 at Tue Jan 28 14:17:07 2020.

 ----------------------------------------------------------------------
 #N Geom=AllCheck Guess=TCheck SCRF=Check GenChk RB3LYP/6-31G(2df,p) Fr
 eq
 ----------------------------------------------------------------------

 Structure from the checkpoint file:  "/scratch/puck/g09_0c70760d-e9ce-423e-9f87-bd4a2d9a7d07/Gau-61189.chk"
 -----
 titel
 -----
 Charge =  0 Multiplicity = 1

                         Standard orientation:
 ---------------------------------------------------------------------
 Center     Atomic      Atomic             Coordinates (Angstroms)
 Number     Number       Type             X           Y           Z
 ---------------------------------------------------------------------
      1          6           0       -2.243822    0.137775    1.016523
      2          8           0       -2.054335   -0.351054   -0.297913
      3          6           0       -0.720745   -0.259998   -0.802286
      4          6           0       -0.226764    1.162223   -0.876220
      5          6           0        0.832259    1.632218   -0.220946
      6          6           0        1.704821    0.818540    0.695819
      7          6           0        1.396245   -0.660837    0.674977
      8          8           0        1.527511   -1.317312   -0.590264
      9          6           0        0.218046   -1.178591   -0.037203
     10          1           0       -1.965787    1.195873    1.110168
     11          1           0       -3.308606    0.028791    1.235853
     12          1           0       -1.673060   -0.435586    1.761481
     13          1           0       -0.810792   -0.658224   -1.821625
     14          1           0       -0.810899    1.822136   -1.512455
     15          1           0        1.112972    2.676230   -0.340333
     16          1           0        2.762456    0.970154    0.439027
     17          1           0        1.599824    1.187044    1.726730
     18          1           0        1.791944   -1.236707    1.512250
     19          1           0       -0.243703   -2.110770    0.290345
 ---------------------------------------------------------------------

 SCF Done:  E(RB3LYP) =  -423.164833473     A.U. after    1 cycles

 The electronic state is 1-A.
 Alpha  occ. eigenvalues --  -19.14930 -19.14029 -10.23960 -10.23682 -10.23406
 Alpha  occ. eigenvalues --  -10.22155 -10.19795 -10.19319 -10.18340  -1.07249
 Alpha  occ. eigenvalues --   -1.02832  -0.81388  -0.75622  -0.70867  -0.67196
 Alpha  occ. eigenvalues --   -0.61609  -0.60801  -0.52771  -0.50879  -0.48335
 Alpha  occ. eigenvalues --   -0.48003  -0.45046  -0.44127  -0.43103  -0.42598
 Alpha  occ. eigenvalues --   -0.39333  -0.38882  -0.36916  -0.33738  -0.32117
 Alpha  occ. eigenvalues --   -0.29228  -0.27284  -0.26145  -0.24785
 Alpha virt. eigenvalues --    0.00960   0.08897   0.09077   0.10819   0.12319
 Alpha virt. eigenvalues --    0.13253   0.13512   0.15173   0.16409   0.16718
 Alpha virt. eigenvalues --    0.16956   0.18160   0.18507   0.20436   0.21310

 Mulliken charges:
               1
     1  C   -0.239600
     2  O   -0.250337
     3  C    0.039614
     4  C   -0.086596
     5  C   -0.041576
     6  C   -0.298138
     7  C    0.057877
     8  O   -0.262140
     9  C    0.014886
    10  H    0.111700
    11  H    0.128070
    12  H    0.103743
    13  H    0.101845
    14  H    0.096973
    15  H    0.094859
    16  H    0.124505
    17  H    0.116113
    18  H    0.091238
    19  H    0.096962
 Sum of Mulliken charges =   0.00000

 Dipole moment (field-independent basis, Debye):
    X=              0.1662    Y=              1.3407    Z=              1.9422  Tot=              2.3659
 Quadrupole moment (field-independent basis, Debye-Ang):
   XX=            -55.4730   YY=            -52.4640   ZZ=            -51.6587
   XY=              1.9509   XZ=              1.4198   YZ=             -1.8724

  Exact polarizability:  85.836   6.060  73.081   7.399  -0.240  68.065
 Approx polarizability: 126.150  12.112 103.446  14.758   6.256 107.705

                      1                      2                      3
                      A                      A                      A
 Frequencies --     74.5988               113.2444               181.6973
 Red. masses --      3.0038                 2.1094                 1.3328
 Frc consts  --      0.0098                 0.0159                 0.0259
 IR Inten    --      0.4654                 0.9435                 0.0260

                      4                      5                      6
                      A                      A                      A
 Frequencies --    218.4500               285.0697               347.3377
 Red. masses --      2.4790                 3.5928                 3.1532
 Frc consts  --      0.0697                 0.1720                 0.2241
 IR Inten    --      2.3816                 7.1199                 5.3262

                      7                      8                      9
                      A                      A                      A
 Frequencies --    353.3804               427.1291               516.2250
 Red. masses --      3.7434                 3.8009                 4.9848
 Frc consts  --      0.2754                 0.4086                 0.7827
 IR Inten    --      6.6136                 2.3342                 6.8347

                     10                     11                     12
                      A                      A                      A
 Frequencies --    542.4979               612.5872               724.6848
 Red. masses --      5.6622                 2.4083                 1.8305
 Frc consts  --      0.9818                 0.5325                 0.5664
 IR Inten    --      1.1483                 6.3704                 7.8876

                     13                     14                     15
                      A                      A                      A
 Frequencies --    795.4477               837.0544               903.1569
 Red. masses --      3.6874                 3.6081                 2.6313
 Frc consts  --      1.3746                 1.4895                 1.2646
 IR Inten    --      7.4348                35.9789                 6.0773

                     16                     17                     18
                      A                      A                      A
 Frequencies --    910.5502               929.6406               961.3817
 Red. masses --      3.0907                 4.4285                 2.1922
 Frc consts  --      1.5098                 2.2550                 1.1938
 IR Inten    --     12.9852                15.3709                 8.7672

                     19                     20                     21
                      A                      A                      A
 Frequencies --    977.2468              1012.0052              1042.2679
 Red. masses --      3.8804                 1.3327                 1.9851
 Frc consts  --      2.1834                 0.8042                 1.2705
 IR Inten    --      5.2794                 1.0838                 5.5188

                     22                     23                     24
                      A                      A                      A
 Frequencies --   1078.4826              1093.9814              1120.8132
 Red. masses --      1.6635                 1.3102                 6.1751
 Frc consts  --      1.1400                 0.9238                 4.5705
 IR Inten    --      6.4722                 0.4129               154.0731

                     25                     26                     27
                      A                      A                      A
 Frequencies --   1166.4371              1184.3868              1205.2763
 Red. masses --      1.3565                 1.2813                 1.1354
 Frc consts  --      1.0874                 1.0590                 0.9718
 IR Inten    --      1.1833                 1.7115                 1.9538

                     28                     29                     30
                      A                      A                      A
 Frequencies --   1221.9585              1237.7685              1280.7550
 Red. masses --      1.4734                 1.2095                 1.2584
 Frc consts  --      1.2962                 1.0918                 1.2162
 IR Inten    --      9.2761                10.0366                 4.3822

                     31                     32                     33
                      A                      A                      A
 Frequencies --   1349.5586              1357.6081              1371.3736
 Red. masses --      1.2485                 1.3274                 1.8465
 Frc consts  --      1.3397                 1.4415                 2.0460
 IR Inten    --      1.6790                 9.7528                 2.6650

                     34                     35                     36
                      A                      A                      A
 Frequencies --   1379.2806              1426.5670              1461.2455
 Red. masses --      1.9190                 1.4981                 1.1741
 Frc consts  --      2.1509                 1.7963                 1.4771
 IR Inten    --      1.2767                 1.6167                 6.9579

                     37                     38                     39
                      A                      A                      A
 Frequencies --   1474.0141              1478.0224              1488.8611
 Red. masses --      1.2993                 2.0085                 1.0680
 Frc consts  --      1.6633                 2.5852                 1.3948
 IR Inten    --      3.3745                 5.3554                 2.6329

                     40                     41                     42
                      A                      A                      A
 Frequencies --   1515.3283              1731.1693              2992.2426
 Red. masses --      1.0549                 6.7819                 1.0375
 Frc consts  --      1.4272                11.9752                 5.4729
 IR Inten    --      9.5041                 4.5190                41.2836

                     43                     44                     45
                      A                      A                      A
 Frequencies --   3005.3508              3022.8495              3030.8310
 Red. masses --      1.0612                 1.0831                 1.0980
 Frc consts  --      5.6475                 5.8312                 5.9426
 IR Inten    --     26.5260                23.2617                16.5353

                     46                     47                     48
                      A                      A                      A
 Frequencies --   3046.4173              3099.2548              3111.7899
 Red. masses --      1.1001                 1.0850                 1.0916
 Frc consts  --      6.0154                 6.1402                 6.2278
 IR Inten    --     41.4177                22.2172                45.5099

                     49                     50                     51
                      A                      A                      A
 Frequencies --   3116.5899              3145.8280              3169.8649
 Red. masses --      1.0983                 1.0837                 1.0964
 Frc consts  --      6.2854                 6.3187                 6.4908
 IR Inten    --     28.9595                 7.9050                23.9966

 - Thermochemistry -
 -------------------
 Temperature   298.150 Kelvin.  Pressure   1.00000 Atm.
 Atom     1 has atomic number  6 and mass  12.00000

 Molecular mass:   126.06808 amu.
 Principal axes and moments of inertia in atomic units:
                           1         2         3
     Eigenvalues --   696.681691208.650631439.13770
           X            0.99976   0.02171  -0.00200
           Y           -0.02175   0.99940  -0.02707
           Z            0.00141   0.02711   0.99963
 This molecule is an asymmetric top.
 Rotational symmetry number  1.
 Warning -- assumption of classical behavior for rotation
           may cause significant error
 Rotational temperatures (Kelvin)      0.12432     0.07166     0.06018
 Rotational constants (GHZ):           2.59048     1.49319     1.25404
 Zero-point vibrational energy     419467.9 (Joules/Mol)
                                  100.25524 (Kcal/Mol)
 Warning -- explicit consideration of  11 degrees of freedom as
           vibrations may cause significant error
 Vibrational temperatures:    107.33   162.93   261.42   314.30   410.15
          (Kelvin)            499.74   508.43   614.54   742.73   780.53
                              881.38  1042.66  1144.47  1204.33  1299.44
                             1310.08  1337.54  1383.21  1406.04  1456.05
                             1499.59  1551.69  1573.99  1612.60  1678.24
                             1704.07  1734.12  1758.12  1780.87  1842.72
                             1941.71  1953.29  1973.10  1984.47  2052.51
                             2102.40  2120.77  2126.54  2142.14  2180.22
                             2490.76  4305.16  4324.02  4349.20  4360.68
                             4383.11  4459.13  4477.17  4484.07  4526.14
                             4560.72

 Zero-point correction=                           0.159767 (Hartree/Particle)
 Thermal correction to Energy=                    0.168015
 Thermal correction to Enthalpy=                  0.168959
 Thermal correction to Gibbs Free Energy=         0.126739
 Sum of electronic and zero-point Energies=           -423.005067
 Sum of electronic and thermal Energies=              -422.996818
 Sum of electronic and thermal Enthalpies=            -422.995874
 Sum of electronic and thermal Free Energies=         -423.038094

                     E (Thermal)             CV                S
                      KCal/Mol        Cal/Mol-Kelvin    Cal/Mol-Kelvin
 Total                  105.431             31.205             88.860
 Electronic               0.000              0.000              0.000
 Translational            0.889              2.981             40.409
 Rotational               0.889              2.981             28.585
 Vibrational            103.654             25.243             19.867
 Vibration     1          0.599              1.966              4.028
 Vibration     2          0.607              1.938              3.213
 Vibration     3          0.630              1.865              2.311
 Vibration     4          0.646              1.813              1.972
 Vibration     5          0.683              1.701              1.503
 Vibration     6          0.725              1.581              1.178
 Vibration     7          0.730              1.568              1.151
 Vibration     8          0.789              1.411              0.868
 Vibration     9          0.871              1.214              0.619
 Vibration    10          0.898              1.156              0.560
 Vibration    11          0.972              1.005              0.429

 Optimization completed.
    -- Stationary point found.
 Normal termination of Gaussian 09 at Tue Jan 28 15:03:05 2020.
 Normal termination of Gaussian 09 at Tue Jan 28 14:12:25 2020.
