 Gaussian 09, Revision D.01,
 Gaussian 09:  ES64L-G09RevD.01 24-Apr-2013

 -----------------------------
 # b3lyp 6-31G(2df,p) opt Freq
 -----------------------------

 -----
 titel
 -----
 Symbolic Z-matrix:
 Charge =  0 Multiplicity = 1

 SCF Done:  E(RB3LYP) =  -423.199966664     A.U. after   14 cycles
 Optimization completed.
    -- Stationary point found.
 Normal termination of Gaussian 09 at Mon Jan 27 17:02:04 2020.

 ----------------------------------------------------------------------
 #N Geom=AllCheck Guess=TCheck SCRF=Check GenChk RB3LYP/6-31G(2df,p) Fr
 eq
 ----------------------------------------------------------------------

 Structure from the checkpoint file:  "/scratch/puck/g09_ee3a9276-cdb5-4152-9021-98fe45afb354/Gau-111517.chk"
 -----
 titel
 -----
 Charge =  0 Multiplicity = 1

                         Standard orientation:
 ---------------------------------------------------------------------
 Center     Atomic      Atomic             Coordinates (Angstroms)
 Number     Number       Type             X           Y           Z
 ---------------------------------------------------------------------
      1          6           0       -2.668113   -0.136666   -0.147559
      2          6           0       -1.186166    0.015522    0.040754
      3          6           0       -0.377257   -0.722719    1.136778
      4          6           0        0.709442   -0.590983    0.039069
      5          6           0        1.888472   -1.493531   -0.149448
      6          8           0       -0.362345   -0.680507   -0.966770
      7          6           0        0.917017    0.937968    0.015554
      8          8           0        1.940957    1.561938   -0.001055
      9          6           0       -0.548348    1.421766    0.002352
     10          1           0       -3.207899    0.366843    0.660965
     11          1           0       -2.982839    0.309003   -1.096569
     12          1           0       -2.950829   -1.192994   -0.150984
     13          1           0       -0.224291   -0.240272    2.106493
     14          1           0       -0.696625   -1.760609    1.251533
     15          1           0        2.623366   -1.311849    0.640547
     16          1           0        1.590740   -2.544761   -0.123969
     17          1           0        2.372554   -1.286859   -1.108507
     18          1           0       -0.775633    2.064399    0.858083
     19          1           0       -0.787725    1.957508   -0.919989
 ---------------------------------------------------------------------

 SCF Done:  E(RB3LYP) =  -423.199966664     A.U. after    1 cycles

 The electronic state is 1-A.
 Alpha  occ. eigenvalues --  -19.14237 -19.13663 -10.26817 -10.25388 -10.24719
 Alpha  occ. eigenvalues --  -10.19858 -10.19272 -10.18895 -10.18406  -1.06183
 Alpha  occ. eigenvalues --   -1.03918  -0.80002  -0.77577  -0.73208  -0.70837
 Alpha  occ. eigenvalues --   -0.62447  -0.56058  -0.51075  -0.48959  -0.47438
 Alpha  occ. eigenvalues --   -0.46561  -0.45603  -0.43246  -0.41567  -0.41026
 Alpha  occ. eigenvalues --   -0.39463  -0.38433  -0.37508  -0.36330  -0.35683
 Alpha  occ. eigenvalues --   -0.33194  -0.31893  -0.27895  -0.22749
 Alpha virt. eigenvalues --   -0.01426   0.08292   0.09941   0.10296   0.12754
 Alpha virt. eigenvalues --    0.13699   0.13865   0.14801   0.15593   0.16577
 Alpha virt. eigenvalues --    0.16918   0.17770   0.18318   0.19522   0.22160

 Mulliken charges:
               1
     1  C   -0.492188
     2  C    0.410846
     3  C   -0.325604
     4  C    0.297369
     5  C   -0.505800
     6  O   -0.360886
     7  C    0.421560
     8  O   -0.329588
     9  C   -0.380993
    10  H    0.125569
    11  H    0.132921
    12  H    0.128890
    13  H    0.104500
    14  H    0.113069
    15  H    0.137215
    16  H    0.125500
    17  H    0.142292
    18  H    0.122359
    19  H    0.132967
 Sum of Mulliken charges =   0.00000

 Dipole moment (field-independent basis, Debye):
    X=             -2.2445    Y=             -1.0340    Z=              1.4925  Tot=              2.8870
 Quadrupole moment (field-independent basis, Debye-Ang):
   XX=            -54.6590   YY=            -54.5050   ZZ=            -53.1033
   XY=             -6.0050   XZ=             -0.6049   YZ=             -1.3433

  Exact polarizability:  88.044  -1.250  75.982  -0.420  -1.096  62.941
 Approx polarizability: 121.139   5.209 110.552   0.476   1.631 101.516

                      1                      2                      3
                      A                      A                      A
 Frequencies --    119.8774               158.5811               198.1698
 Red. masses --      2.5841                 1.2323                 1.0850
 Frc consts  --      0.0219                 0.0183                 0.0251
 IR Inten    --      4.5316                 0.3942                 0.1976

                      4                      5                      6
                      A                      A                      A
 Frequencies --    220.2228               252.3954               272.5393
 Red. masses --      2.6052                 2.3769                 3.3478
 Frc consts  --      0.0744                 0.0892                 0.1465
 IR Inten    --      2.0279                 1.8936                 0.9056

                      7                      8                      9
                      A                      A                      A
 Frequencies --    350.8845               421.3961               489.4564
 Red. masses --      2.4579                 2.0003                 3.2100
 Frc consts  --      0.1783                 0.2093                 0.4531
 IR Inten    --      1.9603                 2.4156                 3.5490

                     10                     11                     12
                      A                      A                      A
 Frequencies --    515.6164               568.7444               619.8920
 Red. masses --      3.5434                 3.8506                 3.2708
 Frc consts  --      0.5550                 0.7339                 0.7405
 IR Inten    --      7.0807                 6.0463                 1.4775

                     13                     14                     15
                      A                      A                      A
 Frequencies --    645.6784               694.6423               763.3822
 Red. masses --      3.4003                 3.1980                 2.9438
 Frc consts  --      0.8352                 0.9092                 1.0107
 IR Inten    --      6.2442                 3.1943                 8.2850

                     16                     17                     18
                      A                      A                      A
 Frequencies --    801.2857               838.9172               858.1511
 Red. masses --      4.2107                 2.5253                 2.4733
 Frc consts  --      1.5929                 1.0471                 1.0731
 IR Inten    --     30.9889                 2.8681                11.5599

                     19                     20                     21
                      A                      A                      A
 Frequencies --    935.1621               956.8301              1001.8982
 Red. masses --      2.1803                 1.6340                 1.9446
 Frc consts  --      1.1234                 0.8814                 1.1501
 IR Inten    --      7.7188                 0.3920                 5.8223

                     22                     23                     24
                      A                      A                      A
 Frequencies --   1031.6484              1056.5741              1078.9204
 Red. masses --      1.5591                 1.9606                 1.9610
 Frc consts  --      0.9777                 1.2896                 1.3450
 IR Inten    --      6.0190                21.9312                19.5522

                     25                     26                     27
                      A                      A                      A
 Frequencies --   1110.0221              1162.8431              1190.0746
 Red. masses --      1.5866                 1.9080                 1.6594
 Frc consts  --      1.1518                 1.5201                 1.3847
 IR Inten    --     13.3809                12.2327                 4.4203

                     28                     29                     30
                      A                      A                      A
 Frequencies --   1212.5348              1216.8257              1244.4730
 Red. masses --      1.8050                 2.0967                 2.5973
 Frc consts  --      1.5636                 1.8291                 2.3700
 IR Inten    --      3.8480                29.8078                19.6069

                     31                     32                     33
                      A                      A                      A
 Frequencies --   1316.3282              1365.5090              1413.8488
 Red. masses --      2.5321                 1.9925                 1.3826
 Frc consts  --      2.5850                 2.1890                 1.6284
 IR Inten    --     31.4413                 6.0314                20.8102

                     34                     35                     36
                      A                      A                      A
 Frequencies --   1424.5477              1449.5337              1474.9463
 Red. masses --      1.7415                 1.1151                 1.0501
 Frc consts  --      2.0822                 1.3805                 1.3459
 IR Inten    --      3.1017                 5.4805                 3.9133

                     37                     38                     39
                      A                      A                      A
 Frequencies --   1479.8500              1487.0930              1490.8659
 Red. masses --      1.0512                 1.0610                 1.2060
 Frc consts  --      1.3564                 1.3824                 1.5793
 IR Inten    --      4.2899                 5.3466                 3.2818

                     40                     41                     42
                      A                      A                      A
 Frequencies --   1494.9185              1877.5448              3038.8836
 Red. masses --      1.0842                12.8410                 1.0354
 Frc consts  --      1.4276                26.6704                 5.6335
 IR Inten    --      2.1052               236.1347                15.7948

                     43                     44                     45
                      A                      A                      A
 Frequencies --   3046.4801              3056.3421              3063.6045
 Red. masses --      1.0351                 1.0577                 1.0587
 Frc consts  --      5.6601                 5.8211                 5.8543
 IR Inten    --     12.5364                23.4573                 8.9990

                     46                     47                     48
                      A                      A                      A
 Frequencies --   3109.5568              3115.5759              3118.1859
 Red. masses --      1.1012                 1.1044                 1.1021
 Frc consts  --      6.2737                 6.3159                 6.3133
 IR Inten    --      7.9061                 9.9672                11.7484

                     49                     50                     51
                      A                      A                      A
 Frequencies --   3118.8225              3125.6619              3129.6194
 Red. masses --      1.1004                 1.1034                 1.1079
 Frc consts  --      6.3064                 6.3513                 6.3933
 IR Inten    --      9.6339                 5.2146                27.1711

 - Thermochemistry -
 -------------------
 Temperature   298.150 Kelvin.  Pressure   1.00000 Atm.
 Atom     1 has atomic number  6 and mass  12.00000

 Molecular mass:   126.06808 amu.
 Principal axes and moments of inertia in atomic units:
                           1         2         3
     Eigenvalues --   652.214671130.507211483.13802
           X            0.99675  -0.08054  -0.00311
           Y            0.08048   0.99660  -0.01770
           Z            0.00452   0.01739   0.99984
 This molecule is an asymmetric top.
 Rotational symmetry number  1.
 Warning -- assumption of classical behavior for rotation
           may cause significant error
 Rotational temperatures (Kelvin)      0.13280     0.07662     0.05840
 Rotational constants (GHZ):           2.76710     1.59640     1.21684
 Zero-point vibrational energy     413820.3 (Joules/Mol)
                                   98.90543 (Kcal/Mol)
 Warning -- explicit consideration of  12 degrees of freedom as
           vibrations may cause significant error
 Vibrational temperatures:    172.48   228.16   285.12   316.85   363.14
          (Kelvin)            392.12   504.84   606.29   704.22   741.86
                              818.30   891.89   928.99   999.43  1098.34
                             1152.87  1207.01  1234.69  1345.49  1376.66
                             1441.51  1484.31  1520.17  1552.32  1597.07
                             1673.07  1712.25  1744.56  1750.74  1790.52
                             1893.90  1964.66  2034.21  2049.60  2085.55
                             2122.12  2129.17  2139.59  2145.02  2150.85
                             2701.36  4372.27  4383.20  4397.39  4407.84
                             4473.95  4482.61  4486.37  4487.28  4497.12
                             4502.82

 Zero-point correction=                           0.157616 (Hartree/Particle)
 Thermal correction to Energy=                    0.166167
 Thermal correction to Enthalpy=                  0.167111
 Thermal correction to Gibbs Free Energy=         0.124972
 Sum of electronic and zero-point Energies=           -423.042351
 Sum of electronic and thermal Energies=              -423.033800
 Sum of electronic and thermal Enthalpies=            -423.032855
 Sum of electronic and thermal Free Energies=         -423.074995

                     E (Thermal)             CV                S
                      KCal/Mol        Cal/Mol-Kelvin    Cal/Mol-Kelvin
 Total                  104.271             33.244             88.690
 Electronic               0.000              0.000              0.000
 Translational            0.889              2.981             40.409
 Rotational               0.889              2.981             28.482
 Vibrational            102.494             27.283             19.799
 Vibration     1          0.609              1.933              3.102
 Vibration     2          0.621              1.893              2.567
 Vibration     3          0.637              1.842              2.150
 Vibration     4          0.647              1.810              1.957
 Vibration     5          0.664              1.759              1.714
 Vibration     6          0.676              1.724              1.580
 Vibration     7          0.728              1.573              1.162
 Vibration     8          0.784              1.424              0.887
 Vibration     9          0.845              1.273              0.685
 Vibration    10          0.871              1.215              0.620
 Vibration    11          0.925              1.099              0.507
 Vibration    12          0.980              0.990              0.417

 Normal termination of Gaussian 09 at Mon Jan 27 17:44:03 2020.
