 Gaussian 09, Revision D.01,
 Gaussian 09:  ES64L-G09RevD.01 24-Apr-2013

 -----------------------------
 # b3lyp 6-31G(2df,p) opt Freq
 -----------------------------

 -----
 titel
 -----
 Symbolic Z-matrix:
 Charge =  0 Multiplicity = 1

 SCF Done:  E(RB3LYP) =  -423.130791859     A.U. after   14 cycles
 Optimization completed.
    -- Stationary point found.
 Normal termination of Gaussian 09 at Tue Jan 28 12:07:46 2020.

 ----------------------------------------------------------------------
 #N Geom=AllCheck Guess=TCheck SCRF=Check GenChk RB3LYP/6-31G(2df,p) Fr
 eq
 ----------------------------------------------------------------------

 Structure from the checkpoint file:  "/scratch/puck/g09_7dfdd609-4e96-4ff4-9706-99be6dfe098b/Gau-1146.chk"
 -----
 titel
 -----
 Charge =  0 Multiplicity = 1

                         Standard orientation:
 ---------------------------------------------------------------------
 Center     Atomic      Atomic             Coordinates (Angstroms)
 Number     Number       Type             X           Y           Z
 ---------------------------------------------------------------------
      1          8           0       -4.282841   -0.004065    0.284830
      2          6           0       -2.892373   -0.002494    0.547646
      3          6           0       -2.058274   -0.006076   -0.749754
      4          6           0       -0.624112    0.041362   -0.498773
      5          6           0        0.551971    0.076302   -0.233690
      6          6           0        1.963997    0.168703    0.036634
      7          8           0        2.453076    1.466259    0.266716
      8          6           0        2.910988   -0.822365   -0.623549
      9          6           0        2.650260   -0.889038    0.860626
     10          1           0       -4.515660   -0.861198   -0.085887
     11          1           0       -2.687308    0.913711    1.108515
     12          1           0       -2.591102   -0.849179    1.181157
     13          1           0       -2.303718   -0.906482   -1.330957
     14          1           0       -2.369557    0.848117   -1.363464
     15          1           0        2.266662    1.988713   -0.521620
     16          1           0        2.487017   -1.587605   -1.263008
     17          1           0        3.863183   -0.416062   -0.945191
     18          1           0        2.046877   -1.699957    1.249653
     19          1           0        3.426987   -0.525967    1.523604
 ---------------------------------------------------------------------

 SCF Done:  E(RB3LYP) =  -423.130791859     A.U. after    1 cycles

 The electronic state is 1-A.
 Alpha  occ. eigenvalues --  -19.14450 -19.14009 -10.25883 -10.23331 -10.20718
 Alpha  occ. eigenvalues --  -10.19017 -10.18929 -10.17730 -10.17221  -1.03169
 Alpha  occ. eigenvalues --   -1.02168  -0.85282  -0.79170  -0.72355  -0.64534
 Alpha  occ. eigenvalues --   -0.61355  -0.60648  -0.54738  -0.51198  -0.49084
 Alpha  occ. eigenvalues --   -0.47519  -0.45484  -0.44515  -0.40742  -0.39931
 Alpha  occ. eigenvalues --   -0.39201  -0.37146  -0.35015  -0.33245  -0.31343
 Alpha  occ. eigenvalues --   -0.28479  -0.27222  -0.25774  -0.23109
 Alpha virt. eigenvalues --    0.03885   0.04850   0.07191   0.09372   0.11918
 Alpha virt. eigenvalues --    0.12447   0.12967   0.14211   0.14229   0.15304
 Alpha virt. eigenvalues --    0.18629   0.18947   0.20613   0.21775   0.22517

 Mulliken charges:
               1
     1  O   -0.408288
     2  C   -0.054230
     3  C   -0.360191
     4  C   -0.019168
     5  C    0.106532
     6  C    0.233157
     7  O   -0.444241
     8  C   -0.312635
     9  C   -0.289643
    10  H    0.283785
    11  H    0.127237
    12  H    0.100257
    13  H    0.117500
    14  H    0.138053
    15  H    0.283877
    16  H    0.121488
    17  H    0.121109
    18  H    0.124804
    19  H    0.130595
 Sum of Mulliken charges =   0.00000

 Dipole moment (field-independent basis, Debye):
    X=              0.0935    Y=             -1.5224    Z=             -1.5009  Tot=              2.1398
 Quadrupole moment (field-independent basis, Debye-Ang):
   XX=            -55.2351   YY=            -50.1469   ZZ=            -52.6027
   XY=              5.1128   XZ=              0.5113   YZ=             -2.4689

  Exact polarizability: 117.867  -0.747  66.551   5.901  -0.745  64.935
 Approx polarizability: 157.714   0.468  98.337  13.676   0.106  95.665

                      1                      2                      3
                      A                      A                      A
 Frequencies --     28.3196                71.5557                76.3155
 Red. masses --      2.9195                 5.2315                 2.3902
 Frc consts  --      0.0014                 0.0158                 0.0082
 IR Inten    --      1.1522                 0.0394                 3.1191

                      4                      5                      6
                      A                      A                      A
 Frequencies --    133.3471               185.0201               285.0611
 Red. masses --      3.4758                 3.1424                 1.8290
 Frc consts  --      0.0364                 0.0634                 0.0876
 IR Inten    --      1.8033                 2.4350                18.8727

                      7                      8                      9
                      A                      A                      A
 Frequencies --    304.8816               313.8624               349.8950
 Red. masses --      1.2820                 1.7320                 2.7686
 Frc consts  --      0.0702                 0.1005                 0.1997
 IR Inten    --    130.0842                34.3143                27.7019

                     10                     11                     12
                      A                      A                      A
 Frequencies --    356.2039               405.7538               464.8593
 Red. masses --      2.5319                 3.8980                 4.6938
 Frc consts  --      0.1893                 0.3781                 0.5976
 IR Inten    --     15.3308                31.4235                 3.9534

                     13                     14                     15
                      A                      A                      A
 Frequencies --    555.9090               575.1201               646.0575
 Red. masses --      6.7159                 4.8017                 4.7932
 Frc consts  --      1.2228                 0.9358                 1.1787
 IR Inten    --     10.9738                 4.2557                 1.0749

                     16                     17                     18
                      A                      A                      A
 Frequencies --    775.6171               778.9821               870.4966
 Red. masses --      1.0563                 1.1653                 2.7582
 Frc consts  --      0.3744                 0.4166                 1.2314
 IR Inten    --      0.8418                 1.8726                 7.2625

                     19                     20                     21
                      A                      A                      A
 Frequencies --    890.0533               923.2956               986.9048
 Red. masses --      4.3328                 1.2673                 2.2619
 Frc consts  --      2.0223                 0.6365                 1.2980
 IR Inten    --     15.5045                 8.0629                13.6001

                     22                     23                     24
                      A                      A                      A
 Frequencies --   1008.7150              1049.6023              1053.2555
 Red. masses --      3.2301                 1.8213                 1.4828
 Frc consts  --      1.9364                 1.1822                 0.9691
 IR Inten    --      8.0441                76.4202                14.0630

                     25                     26                     27
                      A                      A                      A
 Frequencies --   1073.2821              1080.8066              1083.0183
 Red. masses --      2.6555                 1.4207                 4.1735
 Frc consts  --      1.8023                 0.9778                 2.8841
 IR Inten    --     28.1458                 8.2368                70.2550

                     28                     29                     30
                      A                      A                      A
 Frequencies --   1169.1395              1193.6173              1239.6675
 Red. masses --      1.1280                 1.2779                 2.2003
 Frc consts  --      0.9084                 1.0727                 1.9923
 IR Inten    --      8.8719                 0.2273               123.2781

                     31                     32                     33
                      A                      A                      A
 Frequencies --   1288.8250              1308.8084              1318.1541
 Red. masses --      1.4168                 1.3717                 1.8791
 Frc consts  --      1.3866                 1.3844                 1.9237
 IR Inten    --      3.0438                 2.3200                25.6999

                     34                     35                     36
                      A                      A                      A
 Frequencies --   1382.5599              1395.8507              1414.0778
 Red. masses --      1.6758                 1.2996                 1.2534
 Frc consts  --      1.8874                 1.4919                 1.4767
 IR Inten    --     43.4154                25.8908                36.2146

                     37                     38                     39
                      A                      A                      A
 Frequencies --   1448.2821              1469.4041              1486.7764
 Red. masses --      1.0916                 1.0855                 1.4342
 Frc consts  --      1.3491                 1.3809                 1.8679
 IR Inten    --      2.1081                 2.2969                 4.4176

                     40                     41                     42
                      A                      A                      A
 Frequencies --   1509.1362              2354.5002              3003.5022
 Red. masses --      1.0891                11.9155                 1.0681
 Frc consts  --      1.4614                38.9189                 5.6769
 IR Inten    --      0.5941                 1.9208                30.0697

                     43                     44                     45
                      A                      A                      A
 Frequencies --   3007.9605              3053.6301              3097.1321
 Red. masses --      1.0657                 1.0926                 1.0975
 Frc consts  --      5.6812                 6.0028                 6.2024
 IR Inten    --     36.8370                12.7505                27.7620

                     46                     47                     48
                      A                      A                      A
 Frequencies --   3139.2077              3146.7230              3229.6415
 Red. masses --      1.0516                 1.0559                 1.1196
 Frc consts  --      6.1056                 6.1600                 6.8806
 IR Inten    --     10.5927                 4.8747                 0.9269

                     49                     50                     51
                      A                      A                      A
 Frequencies --   3244.7773              3796.4158              3817.3207
 Red. masses --      1.1170                 1.0660                 1.0662
 Frc consts  --      6.9292                 9.0525                 9.1540
 IR Inten    --      7.4553                21.0076                22.0869

 - Thermochemistry -
 -------------------
 Temperature   298.150 Kelvin.  Pressure   1.00000 Atm.
 Atom     1 has atomic number  8 and mass  15.99491

 Molecular mass:   126.06808 amu.
 Principal axes and moments of inertia in atomic units:
                           1         2         3
     Eigenvalues --   389.580523258.561353341.67449
           X            0.99999  -0.00316   0.00073
           Y            0.00320   0.99816  -0.06062
           Z           -0.00053   0.06062   0.99816
 This molecule is an asymmetric top.
 Rotational symmetry number  1.
 Rotational temperatures (Kelvin)      0.22233     0.02658     0.02592
 Rotational constants (GHZ):           4.63252     0.55385     0.54007
 Zero-point vibrational energy     411762.4 (Joules/Mol)
                                   98.41358 (Kcal/Mol)
 Warning -- explicit consideration of  14 degrees of freedom as
           vibrations may cause significant error
 Vibrational temperatures:     40.75   102.95   109.80   191.86   266.20
          (Kelvin)            410.14   438.66   451.58   503.42   512.50
                              583.79   668.83   799.83   827.47   929.53
                             1115.94  1120.78  1252.45  1280.59  1328.41
                             1419.93  1451.31  1510.14  1515.40  1544.21
                             1555.04  1558.22  1682.13  1717.35  1783.60
                             1854.33  1883.08  1896.53  1989.19  2008.32
                             2034.54  2083.75  2114.14  2139.14  2171.31
                             3387.60  4321.36  4327.78  4393.49  4456.08
                             4516.61  4527.43  4646.73  4668.50  5462.19
                             5492.27

 Zero-point correction=                           0.156832 (Hartree/Particle)
 Thermal correction to Energy=                    0.167078
 Thermal correction to Enthalpy=                  0.168023
 Thermal correction to Gibbs Free Energy=         0.120117
 Sum of electronic and zero-point Energies=           -422.973960
 Sum of electronic and thermal Energies=              -422.963714
 Sum of electronic and thermal Enthalpies=            -422.962769
 Sum of electronic and thermal Free Energies=         -423.010675

                     E (Thermal)             CV                S
                      KCal/Mol        Cal/Mol-Kelvin    Cal/Mol-Kelvin
 Total                  104.843             36.649            100.826
 Electronic               0.000              0.000              0.000
 Translational            0.889              2.981             40.409
 Rotational               0.889              2.981             29.829
 Vibrational            103.066             30.688             30.588
 Vibration     1          0.593              1.984              5.944
 Vibration     2          0.598              1.968              4.110
 Vibration     3          0.599              1.965              3.983
 Vibration     4          0.613              1.920              2.897
 Vibration     5          0.631              1.860              2.277
 Vibration     6          0.683              1.701              1.503
 Vibration     7          0.696              1.664              1.390
 Vibration     8          0.702              1.647              1.342
 Vibration     9          0.727              1.575              1.167
 Vibration    10          0.732              1.563              1.139
 Vibration    11          0.771              1.458              0.942
 Vibration    12          0.822              1.328              0.752
 Vibration    13          0.911              1.127              0.532
 Vibration    14          0.931              1.085              0.494

 Optimization completed.
    -- Stationary point found.
 Normal termination of Gaussian 09 at Tue Jan 28 12:45:28 2020.
