 Gaussian 09, Revision D.01,
 Gaussian 09:  ES64L-G09RevD.01 24-Apr-2013

 -----------------------------
 # b3lyp 6-31G(2df,p) opt Freq
 -----------------------------

 -----
 titel
 -----
 Symbolic Z-matrix:
 Charge =  0 Multiplicity = 1

 SCF Done:  E(RB3LYP) =  -423.226723334     A.U. after   14 cycles
 Optimization completed.
    -- Stationary point found.
 Normal termination of Gaussian 09 at Tue Jan 28 00:39:33 2020.

 ----------------------------------------------------------------------
 #N Geom=AllCheck Guess=TCheck SCRF=Check GenChk RB3LYP/6-31G(2df,p) Fr
 eq
 ----------------------------------------------------------------------

 Structure from the checkpoint file:  "/scratch/puck/g09_7faaacd9-7310-4ae3-92a9-0b06f8c4ea9f/Gau-71561.chk"
 -----
 titel
 -----
 Charge =  0 Multiplicity = 1

                         Standard orientation:
 ---------------------------------------------------------------------
 Center     Atomic      Atomic             Coordinates (Angstroms)
 Number     Number       Type             X           Y           Z
 ---------------------------------------------------------------------
      1          6           0        0.332159    2.142182   -0.586711
      2          6           0        0.268455    1.066031    0.504415
      3          6           0       -1.179964    0.693865    0.864911
      4          6           0       -1.497324   -0.477355   -0.059657
      5          8           0       -2.561822   -0.932094   -0.358483
      6          8           0       -0.325514   -0.985749   -0.540194
      7          6           0        0.784093   -0.288617    0.023454
      8          6           0        2.108807   -0.552547   -0.605013
      9          6           0        1.782963   -1.128404    0.764636
     10          1           0        1.365183    2.347451   -0.881698
     11          1           0       -0.214556    1.828325   -1.482339
     12          1           0       -0.110680    3.078085   -0.232016
     13          1           0        0.832302    1.397193    1.380575
     14          1           0       -1.267444    0.335945    1.896881
     15          1           0       -1.907139    1.495753    0.727729
     16          1           0        2.128808   -1.239188   -1.443373
     17          1           0        2.819470    0.264502   -0.668754
     18          1           0        1.586036   -2.192837    0.821020
     19          1           0        2.271578   -0.703422    1.635183
 ---------------------------------------------------------------------

 SCF Done:  E(RB3LYP) =  -423.226723334     A.U. after    1 cycles

 The electronic state is 1-A.
 Alpha  occ. eigenvalues --  -19.18083 -19.11956 -10.30170 -10.25628 -10.21165
 Alpha  occ. eigenvalues --  -10.20301 -10.19846 -10.19671 -10.18835  -1.09998
 Alpha  occ. eigenvalues --   -1.02082  -0.86834  -0.81503  -0.71949  -0.65046
 Alpha  occ. eigenvalues --   -0.61999  -0.60436  -0.55220  -0.51233  -0.48598
 Alpha  occ. eigenvalues --   -0.47722  -0.45788  -0.43219  -0.42135  -0.41090
 Alpha  occ. eigenvalues --   -0.39274  -0.37851  -0.37794  -0.36368  -0.35098
 Alpha  occ. eigenvalues --   -0.32886  -0.31027  -0.26761  -0.26067
 Alpha virt. eigenvalues --    0.01514   0.07140   0.09243   0.10418   0.10964
 Alpha virt. eigenvalues --    0.12426   0.13739   0.14830   0.15999   0.16908
 Alpha virt. eigenvalues --    0.17969   0.18936   0.19216   0.21485   0.22761

 Mulliken charges:
               1
     1  C   -0.395643
     2  C   -0.089452
     3  C   -0.368968
     4  C    0.416839
     5  O   -0.335221
     6  O   -0.254860
     7  C    0.458815
     8  C   -0.335450
     9  C   -0.335125
    10  H    0.120564
    11  H    0.133672
    12  H    0.119287
    13  H    0.085194
    14  H    0.138703
    15  H    0.134773
    16  H    0.136028
    17  H    0.120861
    18  H    0.132123
    19  H    0.117859
 Sum of Mulliken charges =   0.00000

 Dipole moment (field-independent basis, Debye):
    X=              3.1625    Y=              2.2979    Z=              1.6250  Tot=              4.2335
 Quadrupole moment (field-independent basis, Debye-Ang):
   XX=            -59.9494   YY=            -53.1370   ZZ=            -51.8019
   XY=             -4.4082   XZ=             -2.4273   YZ=             -1.0060

  Exact polarizability:  87.306  -1.108  73.275  -0.553   0.034  65.675
 Approx polarizability: 124.988   2.295 101.308   1.644   2.347 100.001

                      1                      2                      3
                      A                      A                      A
 Frequencies --     95.1359               113.1556               210.0056
 Red. masses --      2.8800                 6.2356                 1.9395
 Frc consts  --      0.0154                 0.0470                 0.0504
 IR Inten    --      2.2318                 0.5923                 0.0529

                      4                      5                      6
                      A                      A                      A
 Frequencies --    242.7478               269.8014               323.8252
 Red. masses --      1.1655                 2.8235                 2.4283
 Frc consts  --      0.0405                 0.1211                 0.1500
 IR Inten    --      0.0445                 1.1150                 1.2719

                      7                      8                      9
                      A                      A                      A
 Frequencies --    364.1167               499.5037               516.1958
 Red. masses --      2.4192                 3.5226                 4.3359
 Frc consts  --      0.1890                 0.5178                 0.6807
 IR Inten    --      0.9455                 4.1334                 2.3738

                     10                     11                     12
                      A                      A                      A
 Frequencies --    539.0757               565.3209               670.7695
 Red. masses --      3.5583                 3.0899                 4.5315
 Frc consts  --      0.6092                 0.5818                 1.2013
 IR Inten    --      2.7532                 2.2104                 5.3668

                     13                     14                     15
                      A                      A                      A
 Frequencies --    756.5356               768.1397               846.0654
 Red. masses --      2.0055                 1.3477                 2.3526
 Frc consts  --      0.6763                 0.4685                 0.9922
 IR Inten    --      0.2257                 1.0546                 4.4208

                     16                     17                     18
                      A                      A                      A
 Frequencies --    876.9112               903.9085               935.8186
 Red. masses --      2.4279                 1.3746                 2.4468
 Frc consts  --      1.1000                 0.6617                 1.2625
 IR Inten    --      3.8066                 2.3411                35.5469

                     19                     20                     21
                      A                      A                      A
 Frequencies --    953.8603               976.8723               992.3538
 Red. masses --      1.9468                 3.2506                 2.6153
 Frc consts  --      1.0436                 1.8277                 1.5174
 IR Inten    --      0.9060                28.6321                15.3401

                     22                     23                     24
                      A                      A                      A
 Frequencies --   1036.2849              1055.0255              1081.5764
 Red. masses --      1.9938                 1.4373                 1.4651
 Frc consts  --      1.2615                 0.9426                 1.0098
 IR Inten    --     25.3474                 8.5154                 0.4806

                     25                     26                     27
                      A                      A                      A
 Frequencies --   1094.4983              1107.7674              1170.9366
 Red. masses --      1.5712                 1.7657                 4.0223
 Frc consts  --      1.1089                 1.2766                 3.2493
 IR Inten    --      1.9269                 4.1083               223.6016

                     28                     29                     30
                      A                      A                      A
 Frequencies --   1187.7582              1200.7212              1236.4407
 Red. masses --      1.2783                 1.6459                 1.8484
 Frc consts  --      1.0625                 1.3981                 1.6649
 IR Inten    --      1.7123                13.5665                25.6874

                     31                     32                     33
                      A                      A                      A
 Frequencies --   1301.3361              1308.2255              1345.4931
 Red. masses --      1.8859                 2.0440                 1.4933
 Frc consts  --      1.8817                 2.0611                 1.5927
 IR Inten    --     12.9489                53.7853                 1.4626

                     34                     35                     36
                      A                      A                      A
 Frequencies --   1388.5761              1413.3935              1452.7127
 Red. masses --      1.9910                 1.2332                 1.0911
 Frc consts  --      2.2618                 1.4515                 1.3567
 IR Inten    --      9.8708                 3.8984                 2.6920

                     37                     38                     39
                      A                      A                      A
 Frequencies --   1459.4750              1494.5977              1498.3107
 Red. masses --      1.0904                 1.1626                 1.0676
 Frc consts  --      1.3684                 1.5301                 1.4120
 IR Inten    --      7.0431                 2.8279                 8.8727

                     40                     41                     42
                      A                      A                      A
 Frequencies --   1504.7580              1887.5001              3036.9941
 Red. masses --      1.3764                12.8422                 1.0352
 Frc consts  --      1.8363                26.9564                 5.6256
 IR Inten    --     17.3781               402.4551                16.6909

                     43                     44                     45
                      A                      A                      A
 Frequencies --   3054.8817              3071.1657              3108.1305
 Red. masses --      1.0683                 1.0842                 1.1014
 Frc consts  --      5.8738                 6.0250                 6.2690
 IR Inten    --      7.7165                11.4408                25.6905

                     46                     47                     48
                      A                      A                      A
 Frequencies --   3112.3979              3125.4231              3134.0253
 Red. masses --      1.1012                 1.0975                 1.0522
 Frc consts  --      6.2849                 6.3165                 6.0891
 IR Inten    --     20.7888                 8.4254                10.4514

                     49                     50                     51
                      A                      A                      A
 Frequencies --   3138.0513              3220.1922              3233.5089
 Red. masses --      1.0572                 1.1183                 1.1155
 Frc consts  --      6.1336                 6.8323                 6.8720
 IR Inten    --      6.4183                 0.2972                 7.2379

 - Thermochemistry -
 -------------------
 Temperature   298.150 Kelvin.  Pressure   1.00000 Atm.
 Atom     1 has atomic number  6 and mass  12.00000

 Molecular mass:   126.06808 amu.
 Principal axes and moments of inertia in atomic units:
                           1         2         3
     Eigenvalues --   732.223671174.021091554.53051
           X            0.99863  -0.05058  -0.01364
           Y            0.05019   0.99835  -0.02784
           Z            0.01503   0.02712   0.99952
 This molecule is an asymmetric top.
 Rotational symmetry number  1.
 Warning -- assumption of classical behavior for rotation
           may cause significant error
 Rotational temperatures (Kelvin)      0.11829     0.07378     0.05572
 Rotational constants (GHZ):           2.46474     1.53723     1.16096
 Zero-point vibrational energy     417976.9 (Joules/Mol)
                                   99.89887 (Kcal/Mol)
 Warning -- explicit consideration of  11 degrees of freedom as
           vibrations may cause significant error
 Vibrational temperatures:    136.88   162.81   302.15   349.26   388.18
          (Kelvin)            465.91   523.88   718.67   742.69   775.61
                              813.37   965.09  1088.48  1105.18  1217.30
                             1261.68  1300.52  1346.43  1372.39  1405.50
                             1427.77  1490.98  1517.94  1556.15  1574.74
                             1593.83  1684.71  1708.92  1727.57  1778.96
                             1872.33  1882.24  1935.86  1997.85  2033.56
                             2090.13  2099.86  2150.39  2155.73  2165.01
                             2715.69  4369.55  4395.29  4418.72  4471.90
                             4478.04  4496.78  4509.16  4514.95  4633.13
                             4652.29

 Zero-point correction=                           0.159199 (Hartree/Particle)
 Thermal correction to Energy=                    0.167469
 Thermal correction to Enthalpy=                  0.168414
 Thermal correction to Gibbs Free Energy=         0.126390
 Sum of electronic and zero-point Energies=           -423.067524
 Sum of electronic and thermal Energies=              -423.059254
 Sum of electronic and thermal Enthalpies=            -423.058310
 Sum of electronic and thermal Free Energies=         -423.100333

                     E (Thermal)             CV                S
                      KCal/Mol        Cal/Mol-Kelvin    Cal/Mol-Kelvin
 Total                  105.089             32.072             88.445
 Electronic               0.000              0.000              0.000
 Translational            0.889              2.981             40.409
 Rotational               0.889              2.981             28.682
 Vibrational            103.311             26.110             19.355
 Vibration     1          0.603              1.953              3.552
 Vibration     2          0.607              1.939              3.214
 Vibration     3          0.642              1.826              2.044
 Vibration     4          0.659              1.775              1.783
 Vibration     5          0.674              1.729              1.597
 Vibration     6          0.708              1.628              1.291
 Vibration     7          0.738              1.546              1.104
 Vibration     8          0.855              1.251              0.659
 Vibration     9          0.871              1.214              0.619
 Vibration    10          0.894              1.164              0.567
 Vibration    11          0.921              1.106              0.513

 Optimization completed.
    -- Stationary point found.
 Normal termination of Gaussian 09 at Tue Jan 28 01:22:24 2020.
