 Gaussian 09, Revision D.01,
 Gaussian 09:  ES64L-G09RevD.01 24-Apr-2013

 -----------------------------
 # b3lyp 6-31G(2df,p) opt Freq
 -----------------------------

 -----
 titel
 -----
 Symbolic Z-matrix:
 Charge =  0 Multiplicity = 1

 SCF Done:  E(RB3LYP) =  -423.127263375     A.U. after   14 cycles
 Optimization completed.
    -- Stationary point found.
 Normal termination of Gaussian 09 at Mon Jan 27 15:36:27 2020.

 ----------------------------------------------------------------------
 #N Geom=AllCheck Guess=TCheck SCRF=Check GenChk RB3LYP/6-31G(2df,p) Fr
 eq
 ----------------------------------------------------------------------

 Structure from the checkpoint file:  "/scratch/puck/g09_c7d1e8cb-3a27-4b99-bf4b-1c156dbd2a7b/Gau-45568.chk"
 -----
 titel
 -----
 Charge =  0 Multiplicity = 1

                         Standard orientation:
 ---------------------------------------------------------------------
 Center     Atomic      Atomic             Coordinates (Angstroms)
 Number     Number       Type             X           Y           Z
 ---------------------------------------------------------------------
      1          6           0        2.759516    0.054641   -0.480802
      2          6           0        1.514661   -0.325777    0.315457
      3          8           0        1.377105   -1.730813    0.490199
      4          6           0        0.246558    0.239770   -0.315255
      5          8           0        0.209778    1.682023   -0.296549
      6          6           0       -1.085254    1.693760    0.335337
      7          6           0       -1.063055    0.150044    0.520032
      8          6           0       -2.168364   -0.615094   -0.012803
      9          6           0       -3.085624   -1.238654   -0.477238
     10          1           0        2.712861   -0.362210   -1.495038
     11          1           0        2.838281    1.142018   -0.567689
     12          1           0        3.658138   -0.330599    0.008140
     13          1           0        1.595448    0.080190    1.331119
     14          1           0        1.376334   -2.140418   -0.382419
     15          1           0        0.126188   -0.149209   -1.338194
     16          1           0       -1.091482    2.290556    1.253460
     17          1           0       -1.870822    2.048691   -0.341005
     18          1           0       -0.853683   -0.146273    1.551499
     19          1           0       -3.896956   -1.794564   -0.877439
 ---------------------------------------------------------------------

 SCF Done:  E(RB3LYP) =  -423.127263375     A.U. after    1 cycles

 The electronic state is 1-A.
 Alpha  occ. eigenvalues --  -19.14157 -19.14050 -10.24002 -10.23939 -10.23564
 Alpha  occ. eigenvalues --  -10.21706 -10.18432 -10.17846 -10.17542  -1.04835
 Alpha  occ. eigenvalues --   -1.02222  -0.79358  -0.76710  -0.71854  -0.69156
 Alpha  occ. eigenvalues --   -0.62448  -0.58289  -0.54080  -0.51312  -0.49820
 Alpha  occ. eigenvalues --   -0.47483  -0.45197  -0.44402  -0.42076  -0.40719
 Alpha  occ. eigenvalues --   -0.39051  -0.37324  -0.34790  -0.33537  -0.32634
 Alpha  occ. eigenvalues --   -0.28817  -0.26512  -0.26231  -0.24954
 Alpha virt. eigenvalues --    0.04012   0.04402   0.06889   0.08814   0.10949
 Alpha virt. eigenvalues --    0.11922   0.12894   0.13960   0.14505   0.16177
 Alpha virt. eigenvalues --    0.16898   0.17809   0.18969   0.20169   0.22142

 Mulliken charges:
               1
     1  C   -0.415279
     2  C    0.109003
     3  O   -0.426997
     4  C    0.130918
     5  O   -0.293516
     6  C   -0.079501
     7  C   -0.249843
     8  C    0.321263
     9  C   -0.458136
    10  H    0.106580
    11  H    0.142052
    12  H    0.124690
    13  H    0.091552
    14  H    0.282453
    15  H    0.072858
    16  H    0.111753
    17  H    0.112939
    18  H    0.118624
    19  H    0.198589
 Sum of Mulliken charges =   0.00000

 Dipole moment (field-independent basis, Debye):
    X=             -0.2165    Y=             -0.2482    Z=             -0.5981  Tot=              0.6828
 Quadrupole moment (field-independent basis, Debye-Ang):
   XX=            -50.1041   YY=            -54.9939   ZZ=            -52.0960
   XY=             -0.1286   XZ=             -0.5205   YZ=              5.9808

  Exact polarizability:  94.712   8.468  76.066   4.619   7.122  63.178
 Approx polarizability: 124.677  18.924 112.748  11.989  12.518  99.496

                      1                      2                      3
                      A                      A                      A
 Frequencies --     54.9158                67.5124               144.4405
 Red. masses --      3.6093                 3.7230                 3.3395
 Frc consts  --      0.0064                 0.0100                 0.0410
 IR Inten    --      0.9846                 1.4033                 4.0288

                      4                      5                      6
                      A                      A                      A
 Frequencies --    149.6214               209.6640               240.2580
 Red. masses --      3.8431                 2.6390                 1.1964
 Frc consts  --      0.0507                 0.0684                 0.0407
 IR Inten    --      1.8086                 0.2002                 0.8983

                      7                      8                      9
                      A                      A                      A
 Frequencies --    286.7306               313.4414               352.9555
 Red. masses --      1.1491                 3.0866                 3.2254
 Frc consts  --      0.0557                 0.1787                 0.2367
 IR Inten    --     86.5570                19.3212                13.6772

                     10                     11                     12
                      A                      A                      A
 Frequencies --    430.9026               477.3954               517.8027
 Red. masses --      5.9866                 3.1995                 4.1840
 Frc consts  --      0.6549                 0.4296                 0.6609
 IR Inten    --     12.2117                12.9384                 1.2399

                     13                     14                     15
                      A                      A                      A
 Frequencies --    529.7070               622.1040               633.7295
 Red. masses --      4.0297                 1.2254                 1.2137
 Frc consts  --      0.6662                 0.2794                 0.2872
 IR Inten    --      3.6262                40.7668                40.6757

                     16                     17                     18
                      A                      A                      A
 Frequencies --    712.7114               851.5863               889.6500
 Red. masses --      3.5525                 1.8478                 2.4553
 Frc consts  --      1.0632                 0.7895                 1.1450
 IR Inten    --      7.9481                 9.6246                 3.8381

                     19                     20                     21
                      A                      A                      A
 Frequencies --    943.8779               992.5633              1017.0146
 Red. masses --      1.9095                 3.2719                 3.5436
 Frc consts  --      1.0023                 1.8992                 2.1594
 IR Inten    --      6.6855                28.8850                10.3032

                     22                     23                     24
                      A                      A                      A
 Frequencies --   1036.2736              1040.2378              1079.0485
 Red. masses --      2.1186                 6.3211                 1.8595
 Frc consts  --      1.3405                 4.0300                 1.2756
 IR Inten    --     10.8369               104.6478                71.9792

                     25                     26                     27
                      A                      A                      A
 Frequencies --   1099.2918              1121.4277              1163.0458
 Red. masses --      3.0038                 2.8507                 1.5484
 Frc consts  --      2.1387                 2.1123                 1.2340
 IR Inten    --      0.1644                28.3576                 9.6938

                     28                     29                     30
                      A                      A                      A
 Frequencies --   1169.3757              1211.9009              1261.4387
 Red. masses --      1.2561                 1.5149                 1.2773
 Frc consts  --      1.0120                 1.3109                 1.1975
 IR Inten    --      4.1337                 1.5095                 4.1523

                     31                     32                     33
                      A                      A                      A
 Frequencies --   1264.5983              1319.2711              1343.8975
 Red. masses --      1.3446                 1.3511                 1.3503
 Frc consts  --      1.2669                 1.3855                 1.4369
 IR Inten    --      9.7133                 8.2881                 8.9583

                     34                     35                     36
                      A                      A                      A
 Frequencies --   1366.0339              1398.4917              1408.5950
 Red. masses --      1.5013                 1.2472                 1.4196
 Frc consts  --      1.6506                 1.4372                 1.6595
 IR Inten    --      1.2859                 7.7760                 5.3102

                     37                     38                     39
                      A                      A                      A
 Frequencies --   1412.7697              1491.7968              1493.4508
 Red. masses --      1.3355                 1.0541                 1.0611
 Frc consts  --      1.5705                 1.3821                 1.3944
 IR Inten    --     42.6110                 6.5994                 3.6262

                     40                     41                     42
                      A                      A                      A
 Frequencies --   1523.2716              2237.6588              2985.9785
 Red. masses --      1.1025                 5.9734                 1.0833
 Frc consts  --      1.5073                17.6222                 5.6910
 IR Inten    --      0.6613                 3.9171                37.7577

                     43                     44                     45
                      A                      A                      A
 Frequencies --   3024.9703              3030.1745              3044.0286
 Red. masses --      1.0435                 1.0553                 1.0821
 Frc consts  --      5.6256                 5.7093                 5.9078
 IR Inten    --     15.0212                59.1710                29.5618

                     46                     47                     48
                      A                      A                      A
 Frequencies --   3067.7879              3085.3243              3100.5784
 Red. masses --      1.0905                 1.1058                 1.0946
 Frc consts  --      6.0469                 6.2017                 6.1998
 IR Inten    --      0.3314                41.6910                29.4188

                     49                     50                     51
                      A                      A                      A
 Frequencies --   3127.7526              3504.2507              3797.2092
 Red. masses --      1.1027                 1.1614                 1.0659
 Frc consts  --      6.3559                 8.4028                 9.0549
 IR Inten    --     14.5399                72.9184                15.1692

 - Thermochemistry -
 -------------------
 Temperature   298.150 Kelvin.  Pressure   1.00000 Atm.
 Atom     1 has atomic number  6 and mass  12.00000

 Molecular mass:   126.06808 amu.
 Principal axes and moments of inertia in atomic units:
                           1         2         3
     Eigenvalues --   716.811071542.612852053.80374
           X            0.99996  -0.00386  -0.00769
           Y            0.00410   0.99950   0.03143
           Z            0.00756  -0.03146   0.99948
 This molecule is an asymmetric top.
 Rotational symmetry number  1.
 Warning -- assumption of classical behavior for rotation
           may cause significant error
 Rotational temperatures (Kelvin)      0.12083     0.05615     0.04217
 Rotational constants (GHZ):           2.51774     1.16992     0.87873
 Zero-point vibrational energy     410609.3 (Joules/Mol)
                                   98.13798 (Kcal/Mol)
 Warning -- explicit consideration of  13 degrees of freedom as
           vibrations may cause significant error
 Vibrational temperatures:     79.01    97.14   207.82   215.27   301.66
          (Kelvin)            345.68   412.54   450.97   507.82   619.97
                              686.86   745.00   762.13   895.07   911.79
                             1025.43  1225.24  1280.01  1358.03  1428.08
                             1463.26  1490.96  1496.67  1552.51  1581.63
                             1613.48  1673.36  1682.47  1743.65  1814.93
                             1819.47  1898.13  1933.57  1965.42  2012.12
                             2026.65  2032.66  2146.36  2148.74  2191.65
                             3219.49  4296.15  4352.25  4359.74  4379.67
                             4413.86  4439.09  4461.04  4500.13  5041.83
                             5463.33

 Zero-point correction=                           0.156393 (Hartree/Particle)
 Thermal correction to Energy=                    0.166247
 Thermal correction to Enthalpy=                  0.167192
 Thermal correction to Gibbs Free Energy=         0.121139
 Sum of electronic and zero-point Energies=           -422.970871
 Sum of electronic and thermal Energies=              -422.961016
 Sum of electronic and thermal Enthalpies=            -422.960072
 Sum of electronic and thermal Free Energies=         -423.006125

                     E (Thermal)             CV                S
                      KCal/Mol        Cal/Mol-Kelvin    Cal/Mol-Kelvin
 Total                  104.322             35.788             96.927
 Electronic               0.000              0.000              0.000
 Translational            0.889              2.981             40.409
 Rotational               0.889              2.981             29.209
 Vibrational            102.544             29.826             27.309
 Vibration     1          0.596              1.976              4.632
 Vibration     2          0.598              1.970              4.225
 Vibration     3          0.616              1.909              2.744
 Vibration     4          0.618              1.903              2.677
 Vibration     5          0.642              1.826              2.047
 Vibration     6          0.657              1.779              1.801
 Vibration     7          0.684              1.698              1.493
 Vibration     8          0.701              1.648              1.344
 Vibration     9          0.729              1.569              1.153
 Vibration    10          0.792              1.403              0.856
 Vibration    11          0.834              1.300              0.717
 Vibration    12          0.873              1.211              0.615
 Vibration    13          0.885              1.184              0.588

 Normal termination of Gaussian 09 at Mon Jan 27 16:14:45 2020.
