 Gaussian 09, Revision D.01,
 Gaussian 09:  ES64L-G09RevD.01 24-Apr-2013

 -----------------------------
 # b3lyp 6-31G(2df,p) opt Freq
 -----------------------------

 -----
 titel
 -----
 Symbolic Z-matrix:
 Charge =  0 Multiplicity = 1

 SCF Done:  E(RB3LYP) =  -423.183121838     A.U. after   13 cycles
 Optimization completed.
    -- Stationary point found.
 Normal termination of Gaussian 09 at Mon Jan 27 12:17:07 2020.

 ----------------------------------------------------------------------
 #N Geom=AllCheck Guess=TCheck SCRF=Check GenChk RB3LYP/6-31G(2df,p) Fr
 eq
 ----------------------------------------------------------------------

 Structure from the checkpoint file:  "/scratch/puck/g09_641dd415-f750-45c7-9940-e2eb9f2d8991/Gau-35225.chk"
 -----
 titel
 -----
 Charge =  0 Multiplicity = 1

                         Standard orientation:
 ---------------------------------------------------------------------
 Center     Atomic      Atomic             Coordinates (Angstroms)
 Number     Number       Type             X           Y           Z
 ---------------------------------------------------------------------
      1          6           0        2.062159   -0.514042   -0.113745
      2          6           0        1.764049    0.983780    0.249479
      3          6           0        0.274635    0.676496    0.053750
      4          6           0       -0.948695    1.403259   -0.486474
      5          6           0       -1.997763    0.251254   -0.279158
      6          6           0       -1.164508   -0.785867    0.524557
      7          8           0       -0.326306   -1.555496   -0.349682
      8          6           0        0.640055   -0.585947   -0.752404
      9          8           0       -0.260917    0.030917    1.237805
     10          1           0        2.908047   -0.703494   -0.776801
     11          1           0        2.135386   -1.146950    0.770330
     12          1           0        2.055802    1.341311    1.238003
     13          1           0        2.140227    1.673624   -0.510210
     14          1           0       -1.199758    2.290985    0.099631
     15          1           0       -0.838765    1.693813   -1.534343
     16          1           0       -2.856921    0.586627    0.306269
     17          1           0       -2.362245   -0.173719   -1.216477
     18          1           0       -1.710653   -1.459341    1.183895
     19          1           0        0.647070   -0.479826   -1.841300
 ---------------------------------------------------------------------

 SCF Done:  E(RB3LYP) =  -423.183121838     A.U. after    1 cycles

 The electronic state is 1-A.
 Alpha  occ. eigenvalues --  -19.14253 -19.13688 -10.27334 -10.23335 -10.22540
 Alpha  occ. eigenvalues --  -10.19109 -10.18850 -10.18606 -10.18344  -1.09120
 Alpha  occ. eigenvalues --   -0.98536  -0.83842  -0.77818  -0.69863  -0.65645
 Alpha  occ. eigenvalues --   -0.60731  -0.58978  -0.55475  -0.51384  -0.49324
 Alpha  occ. eigenvalues --   -0.47188  -0.44567  -0.42361  -0.40081  -0.38749
 Alpha  occ. eigenvalues --   -0.37661  -0.36800  -0.35534  -0.34960  -0.33819
 Alpha  occ. eigenvalues --   -0.32263  -0.28825  -0.27130  -0.24426
 Alpha virt. eigenvalues --    0.07951   0.09401   0.10393   0.12474   0.13188
 Alpha virt. eigenvalues --    0.14236   0.15914   0.16186   0.16475   0.17512
 Alpha virt. eigenvalues --    0.17972   0.19415   0.19527   0.20608   0.21707

 Mulliken charges:
               1
     1  C   -0.260539
     2  C   -0.342643
     3  C    0.402654
     4  C   -0.315835
     5  C   -0.241641
     6  C    0.177809
     7  O   -0.284974
     8  C    0.101648
     9  O   -0.291657
    10  H    0.099024
    11  H    0.127117
    12  H    0.116938
    13  H    0.110575
    14  H    0.108013
    15  H    0.101823
    16  H    0.109597
    17  H    0.113407
    18  H    0.091586
    19  H    0.077099
 Sum of Mulliken charges =   0.00000

 Dipole moment (field-independent basis, Debye):
    X=             -0.0813    Y=              1.4136    Z=             -0.9347  Tot=              1.6967
 Quadrupole moment (field-independent basis, Debye-Ang):
   XX=            -49.2631   YY=            -55.2606   ZZ=            -53.5991
   XY=              0.5484   XZ=             -1.2763   YZ=             -1.7242

  Exact polarizability:  84.969   1.016  69.731  -1.870  -1.452  65.201
 Approx polarizability: 110.583   3.618 103.832  -3.649  -0.423 104.449

                      1                      2                      3
                      A                      A                      A
 Frequencies --    179.0224               241.1954               319.5402
 Red. masses --      2.5444                 1.7170                 2.5125
 Frc consts  --      0.0480                 0.0589                 0.1512
 IR Inten    --      1.1408                 0.2139                 1.1852

                      4                      5                      6
                      A                      A                      A
 Frequencies --    373.4590               429.0669               464.4665
 Red. masses --      2.6401                 3.2465                 3.7402
 Frc consts  --      0.2170                 0.3521                 0.4754
 IR Inten    --      1.4893                 2.7654                 3.9837

                      7                      8                      9
                      A                      A                      A
 Frequencies --    628.7332               672.2697               678.0543
 Red. masses --      5.1546                 2.2661                 3.6899
 Frc consts  --      1.2005                 0.6034                 0.9995
 IR Inten    --      6.3928                 0.1435                 8.4898

                     10                     11                     12
                      A                      A                      A
 Frequencies --    762.2762               788.5109               817.2364
 Red. masses --      2.0180                 2.0109                 4.7705
 Frc consts  --      0.6909                 0.7366                 1.8772
 IR Inten    --      3.1284                 2.5916                 8.3979

                     13                     14                     15
                      A                      A                      A
 Frequencies --    832.7986               864.7169               879.2199
 Red. masses --      2.0271                 2.2867                 2.9224
 Frc consts  --      0.8283                 1.0074                 1.3310
 IR Inten    --      6.5217                12.2195                 7.3800

                     16                     17                     18
                      A                      A                      A
 Frequencies --    909.8430               923.8481               925.2304
 Red. masses --      2.7696                 2.4588                 3.0878
 Frc consts  --      1.3508                 1.2365                 1.5574
 IR Inten    --     11.4644                22.1019                26.1019

                     19                     20                     21
                      A                      A                      A
 Frequencies --    974.0396               992.0123              1046.8217
 Red. masses --      2.4007                 2.0496                 2.9073
 Frc consts  --      1.3419                 1.1884                 1.8771
 IR Inten    --     33.8292                 8.3848                 6.4904

                     22                     23                     24
                      A                      A                      A
 Frequencies --   1068.2019              1104.9789              1122.7430
 Red. masses --      2.7503                 2.5998                 2.0668
 Frc consts  --      1.8490                 1.8703                 1.5350
 IR Inten    --     83.7551                57.9980                 1.8541

                     25                     26                     27
                      A                      A                      A
 Frequencies --   1131.0875              1171.0071              1186.7311
 Red. masses --      2.0511                 1.5683                 1.4988
 Frc consts  --      1.5461                 1.2671                 1.2437
 IR Inten    --     16.5892                 2.8837                12.8374

                     28                     29                     30
                      A                      A                      A
 Frequencies --   1209.3032              1228.9937              1245.4244
 Red. masses --      1.3483                 1.2090                 1.4173
 Frc consts  --      1.1618                 1.0759                 1.2952
 IR Inten    --      5.7089                 0.7126                 6.7311

                     31                     32                     33
                      A                      A                      A
 Frequencies --   1254.2459              1288.2992              1293.4715
 Red. masses --      1.2578                 1.7350                 1.7901
 Frc consts  --      1.1658                 1.6966                 1.7646
 IR Inten    --      2.4485                 2.0919                15.6068

                     34                     35                     36
                      A                      A                      A
 Frequencies --   1317.6198              1330.9329              1343.9409
 Red. masses --      1.2630                 1.6809                 2.1623
 Frc consts  --      1.2919                 1.7543                 2.3011
 IR Inten    --     11.8507                 1.4773                 5.2116

                     37                     38                     39
                      A                      A                      A
 Frequencies --   1367.2720              1468.4162              1475.6678
 Red. masses --      1.3750                 1.0883                 1.0850
 Frc consts  --      1.5145                 1.3826                 1.3920
 IR Inten    --     12.1748                 1.9034                 0.2880

                     40                     41                     42
                      A                      A                      A
 Frequencies --   1483.9485              1497.9107              3059.8298
 Red. masses --      1.1366                 1.1175                 1.0668
 Frc consts  --      1.4747                 1.4773                 5.8849
 IR Inten    --      4.3052                 4.4749                19.2054

                     43                     44                     45
                      A                      A                      A
 Frequencies --   3062.4880              3072.6119              3075.0376
 Red. masses --      1.0766                 1.0599                 1.0604
 Frc consts  --      5.9494                 5.8956                 5.9080
 IR Inten    --     29.6993                29.7329                32.1947

                     46                     47                     48
                      A                      A                      A
 Frequencies --   3085.6600              3106.7614              3128.5784
 Red. masses --      1.0612                 1.1072                 1.1065
 Frc consts  --      5.9532                 6.2966                 6.3812
 IR Inten    --     33.2808                 6.2362                14.5307

                     49                     50                     51
                      A                      A                      A
 Frequencies --   3129.4474              3139.6496              3154.0520
 Red. masses --      1.1072                 1.0921                 1.1070
 Frc consts  --      6.3884                 6.3426                 6.4885
 IR Inten    --     18.3693                39.6010                20.3107

 - Thermochemistry -
 -------------------
 Temperature   298.150 Kelvin.  Pressure   1.00000 Atm.
 Atom     1 has atomic number  6 and mass  12.00000

 Molecular mass:   126.06808 amu.
 Principal axes and moments of inertia in atomic units:
                           1         2         3
     Eigenvalues --   590.02879 950.906551162.83568
           X            0.99990  -0.01319   0.00511
           Y            0.01339   0.99909  -0.04053
           Z           -0.00457   0.04059   0.99917
 This molecule is an asymmetric top.
 Rotational symmetry number  1.
 Warning -- assumption of classical behavior for rotation
           may cause significant error
 Rotational temperatures (Kelvin)      0.14680     0.09109     0.07448
 Rotational constants (GHZ):           3.05873     1.89792     1.55202
 Zero-point vibrational energy     426508.6 (Joules/Mol)
                                  101.93801 (Kcal/Mol)
 Warning -- explicit consideration of   6 degrees of freedom as
           vibrations may cause significant error
 Vibrational temperatures:    257.57   347.03   459.75   537.32   617.33
          (Kelvin)            668.26   904.61   967.24   975.57  1096.74
                             1134.49  1175.82  1198.21  1244.13  1265.00
                             1309.06  1329.21  1331.20  1401.42  1427.28
                             1506.14  1536.90  1589.82  1615.37  1627.38
                             1684.82  1707.44  1739.92  1768.25  1791.89
                             1804.58  1853.57  1861.01  1895.76  1914.91
                             1933.63  1967.20  2112.72  2123.15  2135.07
                             2155.16  4402.41  4406.23  4420.80  4424.29
                             4439.57  4469.93  4501.32  4502.57  4517.25
                             4537.97

 Zero-point correction=                           0.162449 (Hartree/Particle)
 Thermal correction to Energy=                    0.169002
 Thermal correction to Enthalpy=                  0.169946
 Thermal correction to Gibbs Free Energy=         0.131902
 Sum of electronic and zero-point Energies=           -423.020673
 Sum of electronic and thermal Energies=              -423.014120
 Sum of electronic and thermal Enthalpies=            -423.013176
 Sum of electronic and thermal Free Energies=         -423.051220

                     E (Thermal)             CV                S
                      KCal/Mol        Cal/Mol-Kelvin    Cal/Mol-Kelvin
 Total                  106.050             27.878             80.069
 Electronic               0.000              0.000              0.000
 Translational            0.889              2.981             40.409
 Rotational               0.889              2.981             27.969
 Vibrational            104.273             21.916             11.691
 Vibration     1          0.629              1.868              2.339
 Vibration     2          0.658              1.777              1.794
 Vibration     3          0.705              1.636              1.312
 Vibration     4          0.745              1.527              1.066
 Vibration     5          0.790              1.407              0.862
 Vibration     6          0.822              1.329              0.753

 Optimization completed.
    -- Stationary point found.
 Normal termination of Gaussian 09 at Mon Jan 27 13:05:50 2020.
