 Gaussian 09, Revision D.01,
 Gaussian 09:  ES64L-G09RevD.01 24-Apr-2013

 -----------------------------
 # b3lyp 6-31G(2df,p) opt Freq
 -----------------------------

 -----
 titel
 -----
 Symbolic Z-matrix:
 Charge =  0 Multiplicity = 1

 SCF Done:  E(RB3LYP) =  -423.161740494     A.U. after   15 cycles
 Optimization completed.
    -- Stationary point found.
 Normal termination of Gaussian 09 at Tue Jan 28 08:22:46 2020.

 ----------------------------------------------------------------------
 #N Geom=AllCheck Guess=TCheck SCRF=Check GenChk RB3LYP/6-31G(2df,p) Fr
 eq
 ----------------------------------------------------------------------

 Structure from the checkpoint file:  "/scratch/puck/g09_aa685f70-7592-4e56-bd4e-371766381f54/Gau-60376.chk"
 -----
 titel
 -----
 Charge =  0 Multiplicity = 1

                         Standard orientation:
 ---------------------------------------------------------------------
 Center     Atomic      Atomic             Coordinates (Angstroms)
 Number     Number       Type             X           Y           Z
 ---------------------------------------------------------------------
      1          6           0        2.844252   -0.172121    0.050260
      2          6           0        1.595766   -0.954504   -0.362977
      3          6           0        0.272297   -0.262203    0.039806
      4          8           0        0.259078   -0.003186    1.419204
      5          6           0       -0.927397   -1.181799   -0.340174
      6          6           0       -2.224872   -0.565120   -0.099661
      7          6           0       -3.283321   -0.028367    0.088366
      8          6           0        0.136616    1.051595   -0.719521
      9          8           0        0.056135    2.113660   -0.154856
     10          1           0        2.905962    0.795869   -0.458608
     11          1           0        2.832571    0.015308    1.126176
     12          1           0        3.749520   -0.734379   -0.195040
     13          1           0        1.591026   -1.131119   -1.446109
     14          1           0        1.601187   -1.941318    0.114319
     15          1           0        0.088356    0.947717    1.510586
     16          1           0       -0.842853   -1.479656   -1.392949
     17          1           0       -0.825859   -2.094945    0.257213
     18          1           0       -4.221533    0.438474    0.259701
     19          1           0        0.119882    0.975376   -1.826669
 ---------------------------------------------------------------------

 SCF Done:  E(RB3LYP) =  -423.161740494     A.U. after    1 cycles

 The electronic state is 1-A.
 Alpha  occ. eigenvalues --  -19.16271 -19.13860 -10.28381 -10.25647 -10.21907
 Alpha  occ. eigenvalues --  -10.19805 -10.18567 -10.18021 -10.17573  -1.07458
 Alpha  occ. eigenvalues --   -1.02325  -0.81991  -0.77434  -0.72309  -0.67385
 Alpha  occ. eigenvalues --   -0.63069  -0.57366  -0.53322  -0.52802  -0.48051
 Alpha  occ. eigenvalues --   -0.47598  -0.46005  -0.44502  -0.43283  -0.41389
 Alpha  occ. eigenvalues --   -0.39404  -0.36707  -0.36558  -0.35665  -0.35033
 Alpha  occ. eigenvalues --   -0.28765  -0.27430  -0.26882  -0.26178
 Alpha virt. eigenvalues --   -0.03839   0.04335   0.05343   0.08688   0.10600
 Alpha virt. eigenvalues --    0.12229   0.12758   0.13379   0.15088   0.15677
 Alpha virt. eigenvalues --    0.17271   0.17774   0.19130   0.20393   0.21706

 Mulliken charges:
               1
     1  C   -0.402966
     2  C   -0.201946
     3  C    0.261483
     4  O   -0.461363
     5  C   -0.393988
     6  C    0.290563
     7  C   -0.425171
     8  C    0.144511
     9  O   -0.270113
    10  H    0.120743
    11  H    0.141964
    12  H    0.116463
    13  H    0.097246
    14  H    0.114184
    15  H    0.296081
    16  H    0.128235
    17  H    0.147912
    18  H    0.199608
    19  H    0.096552
 Sum of Mulliken charges =   0.00000

 Dipole moment (field-independent basis, Debye):
    X=              0.5580    Y=             -1.3413    Z=             -1.7312  Tot=              2.2600
 Quadrupole moment (field-independent basis, Debye-Ang):
   XX=            -49.9182   YY=            -56.2104   ZZ=            -53.5814
   XY=             -2.2758   XZ=             -1.4304   YZ=              1.6493

  Exact polarizability:  95.864  -8.126  72.554  -2.927   3.107  63.817
 Approx polarizability: 127.416 -19.370 116.404  -6.711   8.738 100.201

                      1                      2                      3
                      A                      A                      A
 Frequencies --     65.8661                88.1088                96.5175
 Red. masses --      3.3997                 5.1519                 2.0501
 Frc consts  --      0.0087                 0.0236                 0.0113
 IR Inten    --      0.1852                 0.3490                 0.1056

                      4                      5                      6
                      A                      A                      A
 Frequencies --    123.3470               210.7887               234.3460
 Red. masses --      3.4736                 1.3033                 3.1916
 Frc consts  --      0.0311                 0.0341                 0.1033
 IR Inten    --      0.3754                 0.5599                 1.9254

                      7                      8                      9
                      A                      A                      A
 Frequencies --    298.5417               313.5177               333.5087
 Red. masses --      2.8659                 2.9021                 4.4412
 Frc consts  --      0.1505                 0.1681                 0.2911
 IR Inten    --      8.1652                 4.5806                12.7857

                     10                     11                     12
                      A                      A                      A
 Frequencies --    343.3595               383.4579               401.1613
 Red. masses --      2.8066                 2.5290                 3.7572
 Frc consts  --      0.1949                 0.2191                 0.3562
 IR Inten    --      4.3268                 6.1341                 5.3724

                     13                     14                     15
                      A                      A                      A
 Frequencies --    454.0712               585.7571               626.1292
 Red. masses --      1.3232                 2.9085                 1.2207
 Frc consts  --      0.1607                 0.5880                 0.2820
 IR Inten    --     63.7852                 0.5526                40.8051

                     16                     17                     18
                      A                      A                      A
 Frequencies --    638.0534               659.7424               777.4367
 Red. masses --      2.1672                 1.6627                 1.2589
 Frc consts  --      0.5198                 0.4264                 0.4483
 IR Inten    --      5.6198                41.1254                 9.9042

                     19                     20                     21
                      A                      A                      A
 Frequencies --    825.7979               877.2592               912.5529
 Red. masses --      3.4382                 2.6440                 2.4440
 Frc consts  --      1.3814                 1.1989                 1.1991
 IR Inten    --     29.3847                 6.5829                 5.7896

                     22                     23                     24
                      A                      A                      A
 Frequencies --    967.7135               993.1384              1024.7916
 Red. masses --      2.5527                 1.7751                 2.2023
 Frc consts  --      1.4085                 1.0315                 1.3627
 IR Inten    --      1.3708                16.5915                 4.3056

                     25                     26                     27
                      A                      A                      A
 Frequencies --   1061.0808              1114.0860              1141.0395
 Red. masses --      2.2242                 2.5400                 2.0539
 Frc consts  --      1.4754                 1.8574                 1.5755
 IR Inten    --     10.5682                22.7059                30.8818

                     28                     29                     30
                      A                      A                      A
 Frequencies --   1183.4774              1259.6290              1313.8209
 Red. masses --      1.7104                 1.4079                 1.4207
 Frc consts  --      1.4115                 1.3161                 1.4448
 IR Inten    --     18.8828                 2.8689                10.0448

                     31                     32                     33
                      A                      A                      A
 Frequencies --   1326.7111              1359.8443              1390.4518
 Red. masses --      1.4717                 1.4145                 1.2035
 Frc consts  --      1.5262                 1.5411                 1.3709
 IR Inten    --      6.9575                 0.9417                47.1292

                     34                     35                     36
                      A                      A                      A
 Frequencies --   1409.6791              1438.8032              1457.1865
 Red. masses --      1.2396                 1.4005                 1.0996
 Frc consts  --      1.4514                 1.7082                 1.3757
 IR Inten    --      3.1146                38.0309                 5.0136

                     37                     38                     39
                      A                      A                      A
 Frequencies --   1481.8800              1495.8370              1509.0773
 Red. masses --      1.0984                 1.0438                 1.0522
 Frc consts  --      1.4211                 1.3760                 1.4118
 IR Inten    --      6.0821                 5.1433                 3.9005

                     40                     41                     42
                      A                      A                      A
 Frequencies --   1819.4501              2241.0184              2921.6875
 Red. masses --     10.5531                 5.9177                 1.0859
 Frc consts  --     20.5831                17.5102                 5.4613
 IR Inten    --    116.0773                 0.9587                64.2084

                     43                     44                     45
                      A                      A                      A
 Frequencies --   3023.6304              3031.0037              3042.2977
 Red. masses --      1.0604                 1.0595                 1.0389
 Frc consts  --      5.7117                 5.7351                 5.6652
 IR Inten    --      5.5364                35.6092                19.5397

                     46                     47                     48
                      A                      A                      A
 Frequencies --   3064.6035              3072.1574              3107.6406
 Red. masses --      1.0998                 1.1004                 1.1002
 Frc consts  --      6.0856                 6.1191                 6.2601
 IR Inten    --      5.4366                15.4802                31.4664

                     49                     50                     51
                      A                      A                      A
 Frequencies --   3133.7191              3506.0408              3691.4778
 Red. masses --      1.1009                 1.1627                 1.0648
 Frc consts  --      6.3696                 8.4206                 8.5494
 IR Inten    --     14.4985                67.1856                70.2895

 - Thermochemistry -
 -------------------
 Temperature   298.150 Kelvin.  Pressure   1.00000 Atm.
 Atom     1 has atomic number  6 and mass  12.00000

 Molecular mass:   126.06808 amu.
 Principal axes and moments of inertia in atomic units:
                           1         2         3
     Eigenvalues --   662.798551561.485551843.42907
           X            0.99986  -0.01642  -0.00438
           Y            0.01655   0.99934   0.03241
           Z            0.00384  -0.03247   0.99947
 This molecule is an asymmetric top.
 Rotational symmetry number  1.
 Warning -- assumption of classical behavior for rotation
           may cause significant error
 Rotational temperatures (Kelvin)      0.13068     0.05547     0.04699
 Rotational constants (GHZ):           2.72291     1.15578     0.97901
 Zero-point vibrational energy     405727.2 (Joules/Mol)
                                   96.97113 (Kcal/Mol)
 Warning -- explicit consideration of  14 degrees of freedom as
           vibrations may cause significant error
 Vibrational temperatures:     94.77   126.77   138.87   177.47   303.28
          (Kelvin)            337.17   429.53   451.08   479.84   494.02
                              551.71   577.18   653.31   842.77   900.86
                              918.02   949.22  1118.56  1188.14  1262.18
                             1312.96  1392.32  1428.90  1474.44  1526.66
                             1602.92  1641.70  1702.76  1812.32  1890.29
                             1908.84  1956.51  2000.55  2028.21  2070.11
                             2096.56  2132.09  2152.17  2171.22  2617.78
                             3224.32  4203.65  4350.32  4360.93  4377.18
                             4409.28  4420.14  4471.20  4508.72  5044.40
                             5311.21

 Zero-point correction=                           0.154533 (Hartree/Particle)
 Thermal correction to Energy=                    0.165021
 Thermal correction to Enthalpy=                  0.165965
 Thermal correction to Gibbs Free Energy=         0.118975
 Sum of electronic and zero-point Energies=           -423.007207
 Sum of electronic and thermal Energies=              -422.996719
 Sum of electronic and thermal Enthalpies=            -422.995775
 Sum of electronic and thermal Free Energies=         -423.042766

                     E (Thermal)             CV                S
                      KCal/Mol        Cal/Mol-Kelvin    Cal/Mol-Kelvin
 Total                  103.552             37.855             98.900
 Electronic               0.000              0.000              0.000
 Translational            0.889              2.981             40.409
 Rotational               0.889              2.981             29.035
 Vibrational            101.775             31.893             29.456
 Vibration     1          0.597              1.971              4.273
 Vibration     2          0.601              1.958              3.702
 Vibration     3          0.603              1.952              3.523
 Vibration     4          0.610              1.930              3.047
 Vibration     5          0.643              1.824              2.037
 Vibration     6          0.654              1.788              1.845
 Vibration     7          0.692              1.676              1.425
 Vibration     8          0.701              1.648              1.344
 Vibration     9          0.715              1.609              1.243
 Vibration    10          0.722              1.589              1.196
 Vibration    11          0.753              1.505              1.025
 Vibration    12          0.767              1.468              0.958
 Vibration    13          0.813              1.352              0.784
 Vibration    14          0.943              1.062              0.475

 Optimization completed.
    -- Stationary point found.
 Normal termination of Gaussian 09 at Tue Jan 28 10:10:24 2020.
