 Gaussian 09, Revision D.01,
 Gaussian 09:  ES64L-G09RevD.01 24-Apr-2013

 -----------------------------
 # b3lyp 6-31G(2df,p) opt Freq
 -----------------------------

 -----
 titel
 -----
 Symbolic Z-matrix:
 Charge =  0 Multiplicity = 1

 SCF Done:  E(RB3LYP) =  -423.226933658     A.U. after   14 cycles
 Optimization completed.
    -- Stationary point found.
 Normal termination of Gaussian 09 at Mon Jan 27 12:59:54 2020.

 ----------------------------------------------------------------------
 #N Geom=AllCheck Guess=TCheck SCRF=Check GenChk RB3LYP/6-31G(2df,p) Fr
 eq
 ----------------------------------------------------------------------

 Structure from the checkpoint file:  "/scratch/puck/g09_dcb39057-30ad-477e-a831-da03e6ba796b/Gau-46736.chk"
 -----
 titel
 -----
 Charge =  0 Multiplicity = 1

                         Standard orientation:
 ---------------------------------------------------------------------
 Center     Atomic      Atomic             Coordinates (Angstroms)
 Number     Number       Type             X           Y           Z
 ---------------------------------------------------------------------
      1          8           0       -2.419685    0.391907   -0.513439
      2          6           0       -1.357131   -0.018041   -0.125461
      3          6           0       -0.628715   -1.279835   -0.620215
      4          6           0        0.725762   -1.237068    0.112281
      5          6           0        0.351565   -0.578400    1.456820
      6          6           0       -0.464596    0.624062    0.949227
      7          6           0        0.524225    1.588693    0.246965
      8          6           0        1.253095    0.869020   -0.900671
      9          8           0        1.699902   -0.438149   -0.557126
     10          1           0       -1.202852   -2.159011   -0.305292
     11          1           0       -0.556769   -1.309762   -1.710168
     12          1           0        1.187246   -2.220542    0.216468
     13          1           0       -0.255548   -1.255197    2.068005
     14          1           0        1.238325   -0.291568    2.026930
     15          1           0       -1.060610    1.146890    1.698829
     16          1           0       -0.002146    2.461259   -0.153679
     17          1           0        1.244973    1.944087    0.991776
     18          1           0        0.592067    0.823487   -1.780301
     19          1           0        2.148347    1.419705   -1.201723
 ---------------------------------------------------------------------

 SCF Done:  E(RB3LYP) =  -423.226933658     A.U. after    1 cycles

 The electronic state is 1-A.
 Alpha  occ. eigenvalues --  -19.14238 -19.13150 -10.26761 -10.24107 -10.23406
 Alpha  occ. eigenvalues --  -10.19838 -10.19638 -10.19138 -10.19022  -1.04373
 Alpha  occ. eigenvalues --   -1.03482  -0.84217  -0.78472  -0.71751  -0.65835
 Alpha  occ. eigenvalues --   -0.64546  -0.56511  -0.53273  -0.50440  -0.49111
 Alpha  occ. eigenvalues --   -0.45944  -0.44399  -0.42998  -0.42145  -0.41781
 Alpha  occ. eigenvalues --   -0.39651  -0.38786  -0.37597  -0.35720  -0.35213
 Alpha  occ. eigenvalues --   -0.32932  -0.30409  -0.25675  -0.23585
 Alpha virt. eigenvalues --   -0.01825   0.07859   0.10715   0.11389   0.12326
 Alpha virt. eigenvalues --    0.13917   0.14652   0.15849   0.16105   0.16521
 Alpha virt. eigenvalues --    0.17022   0.19262   0.19779   0.21006   0.21389

 Mulliken charges:
               1
     1  O   -0.331336
     2  C    0.415674
     3  C   -0.350983
     4  C    0.110981
     5  C   -0.239676
     6  C   -0.115536
     7  C   -0.227914
     8  C   -0.081337
     9  O   -0.269702
    10  H    0.132076
    11  H    0.136251
    12  H    0.084383
    13  H    0.100483
    14  H    0.107635
    15  H    0.086586
    16  H    0.116078
    17  H    0.108642
    18  H    0.104170
    19  H    0.113527
 Sum of Mulliken charges =   0.00000

 Dipole moment (field-independent basis, Debye):
    X=              1.3834    Y=             -0.3401    Z=              1.1676  Tot=              1.8419
 Quadrupole moment (field-independent basis, Debye-Ang):
   XX=            -63.7194   YY=            -49.2727   ZZ=            -51.6629
   XY=              4.2066   XZ=             -1.4008   YZ=             -0.5858

  Exact polarizability:  75.231   1.081  76.191   1.808  -0.500  69.325
 Approx polarizability: 115.817  -2.822 108.970   5.123  -1.846 102.407

                      1                      2                      3
                      A                      A                      A
 Frequencies --    110.0138               241.1711               274.6680
 Red. masses --      5.0847                 3.0442                 1.9688
 Frc consts  --      0.0363                 0.1043                 0.0875
 IR Inten    --      5.5613                 3.6953                 1.5715

                      4                      5                      6
                      A                      A                      A
 Frequencies --    368.3672               403.3482               438.2518
 Red. masses --      2.3932                 3.6180                 2.6147
 Frc consts  --      0.1913                 0.3468                 0.2959
 IR Inten    --      3.1567                 0.6954                 4.2409

                      7                      8                      9
                      A                      A                      A
 Frequencies --    470.0002               523.2425               601.2448
 Red. masses --      3.9321                 2.6860                 2.6150
 Frc consts  --      0.5118                 0.4333                 0.5570
 IR Inten    --      4.6649                 1.7587                 3.7993

                     10                     11                     12
                      A                      A                      A
 Frequencies --    649.9300               746.3845               793.7891
 Red. masses --      4.2665                 2.6292                 2.8202
 Frc consts  --      1.0618                 0.8630                 1.0470
 IR Inten    --      1.0248                 4.4273                 0.7087

                     13                     14                     15
                      A                      A                      A
 Frequencies --    816.4771               841.3518               882.5171
 Red. masses --      3.6481                 2.7243                 2.2962
 Frc consts  --      1.4328                 1.1362                 1.0537
 IR Inten    --      8.7856                 7.4577                 2.9279

                     16                     17                     18
                      A                      A                      A
 Frequencies --    891.8013               920.2882               957.5355
 Red. masses --      2.2722                 2.1677                 2.0119
 Frc consts  --      1.0647                 1.0817                 1.0869
 IR Inten    --      1.7548                 6.0055                 9.9087

                     19                     20                     21
                      A                      A                      A
 Frequencies --    998.2610              1031.4573              1042.8094
 Red. masses --      2.0416                 1.6318                 1.5600
 Frc consts  --      1.1987                 1.0228                 0.9995
 IR Inten    --     11.9438                 2.8416                20.3684

                     22                     23                     24
                      A                      A                      A
 Frequencies --   1077.9167              1091.7377              1136.1507
 Red. masses --      2.3313                 2.2048                 1.7037
 Frc consts  --      1.5960                 1.5483                 1.2958
 IR Inten    --     18.4690                62.7221                 7.2636

                     25                     26                     27
                      A                      A                      A
 Frequencies --   1156.4329              1184.1667              1220.9433
 Red. masses --      2.1448                 1.6372                 1.7230
 Frc consts  --      1.6899                 1.3526                 1.5133
 IR Inten    --     26.4155                 0.3139                51.6665

                     28                     29                     30
                      A                      A                      A
 Frequencies --   1231.6236              1260.3437              1281.7867
 Red. masses --      1.4709                 1.5659                 1.5700
 Frc consts  --      1.3146                 1.4655                 1.5198
 IR Inten    --      6.8126                 3.2954                12.5111

                     31                     32                     33
                      A                      A                      A
 Frequencies --   1306.9667              1322.8124              1332.4854
 Red. masses --      1.2516                 1.4354                 1.5055
 Frc consts  --      1.2596                 1.4799                 1.5749
 IR Inten    --      4.2801                 4.5647                 2.8472

                     34                     35                     36
                      A                      A                      A
 Frequencies --   1366.1718              1381.4238              1418.1407
 Red. masses --      1.4451                 1.2361                 1.3264
 Frc consts  --      1.5892                 1.3899                 1.5717
 IR Inten    --      1.7331                 2.9229                 7.9153

                     37                     38                     39
                      A                      A                      A
 Frequencies --   1436.8034              1475.1601              1490.3489
 Red. masses --      1.0887                 1.0917                 1.0984
 Frc consts  --      1.3242                 1.3997                 1.4374
 IR Inten    --     13.7964                 2.6092                 4.4966

                     40                     41                     42
                      A                      A                      A
 Frequencies --   1513.6639              1850.0868              2983.1046
 Red. masses --      1.0860                12.4811                 1.0720
 Frc consts  --      1.4660                25.1702                 5.6207
 IR Inten    --      1.5687               204.9961                42.2923

                     43                     44                     45
                      A                      A                      A
 Frequencies --   3037.0783              3045.9019              3051.7098
 Red. masses --      1.0600                 1.0627                 1.0647
 Frc consts  --      5.7605                 5.8086                 5.8423
 IR Inten    --     22.3416                21.2927                 6.1073

                     46                     47                     48
                      A                      A                      A
 Frequencies --   3084.7292              3091.5959              3098.5886
 Red. masses --      1.0952                 1.0999                 1.0881
 Frc consts  --      6.1402                 6.1939                 6.1552
 IR Inten    --     35.5312                25.3961                44.6504

                     49                     50                     51
                      A                      A                      A
 Frequencies --   3102.3497              3106.5607              3111.9065
 Red. masses --      1.0884                 1.1028                 1.0982
 Frc consts  --      6.1717                 6.2705                 6.2661
 IR Inten    --     12.4966                23.6908                 6.2530

 - Thermochemistry -
 -------------------
 Temperature   298.150 Kelvin.  Pressure   1.00000 Atm.
 Atom     1 has atomic number  8 and mass  15.99491

 Molecular mass:   126.06808 amu.
 Principal axes and moments of inertia in atomic units:
                           1         2         3
     Eigenvalues --   711.612911046.092191179.46294
           X            0.99835   0.05713  -0.00501
           Y           -0.05718   0.99829  -0.01215
           Z            0.00431   0.01241   0.99991
 This molecule is an asymmetric top.
 Rotational symmetry number  1.
 Warning -- assumption of classical behavior for rotation
           may cause significant error
 Rotational temperatures (Kelvin)      0.12171     0.08280     0.07343
 Rotational constants (GHZ):           2.53613     1.72522     1.53014
 Zero-point vibrational energy     426179.2 (Joules/Mol)
                                  101.85928 (Kcal/Mol)
 Warning -- explicit consideration of   9 degrees of freedom as
           vibrations may cause significant error
 Vibrational temperatures:    158.29   346.99   395.19   530.00   580.33
          (Kelvin)            630.55   676.22   752.83   865.06   935.10
                             1073.88  1142.08  1174.73  1210.52  1269.74
                             1283.10  1324.09  1377.68  1436.27  1484.04
                             1500.37  1550.88  1570.77  1634.67  1663.85
                             1703.75  1756.66  1772.03  1813.35  1844.20
                             1880.43  1903.23  1917.15  1965.61  1987.56
                             2040.39  2067.24  2122.42  2144.28  2177.82
                             2661.86  4292.02  4369.67  4382.37  4390.72
                             4438.23  4448.11  4458.17  4463.58  4469.64
                             4477.33

 Zero-point correction=                           0.162323 (Hartree/Particle)
 Thermal correction to Energy=                    0.169362
 Thermal correction to Enthalpy=                  0.170306
 Thermal correction to Gibbs Free Energy=         0.131079
 Sum of electronic and zero-point Energies=           -423.064611
 Sum of electronic and thermal Energies=              -423.057571
 Sum of electronic and thermal Enthalpies=            -423.056627
 Sum of electronic and thermal Free Energies=         -423.095854

                     E (Thermal)             CV                S
                      KCal/Mol        Cal/Mol-Kelvin    Cal/Mol-Kelvin
 Total                  106.276             28.945             82.560
 Electronic               0.000              0.000              0.000
 Translational            0.889              2.981             40.409
 Rotational               0.889              2.981             28.264
 Vibrational            104.499             22.984             13.888
 Vibration     1          0.606              1.941              3.269
 Vibration     2          0.658              1.777              1.794
 Vibration     3          0.677              1.720              1.567
 Vibration     4          0.741              1.537              1.087
 Vibration     5          0.769              1.463              0.950
 Vibration     6          0.798              1.387              0.832
 Vibration     7          0.827              1.317              0.738
 Vibration     8          0.878              1.199              0.602
 Vibration     9          0.959              1.029              0.448

 Optimization completed.
    -- Stationary point found.
 Normal termination of Gaussian 09 at Mon Jan 27 13:46:48 2020.
