 Gaussian 09, Revision D.01,
 Gaussian 09:  ES64L-G09RevD.01 24-Apr-2013

 -----------------------------
 # b3lyp 6-31G(2df,p) opt Freq
 -----------------------------

 -----
 titel
 -----
 Symbolic Z-matrix:
 Charge =  0 Multiplicity = 1

 SCF Done:  E(RB3LYP) =  -423.142966754     A.U. after   13 cycles
 Optimization completed.
    -- Stationary point found.
 Normal termination of Gaussian 09 at Mon Jan 27 23:50:29 2020.

 ----------------------------------------------------------------------
 #N Geom=AllCheck Guess=TCheck SCRF=Check GenChk RB3LYP/6-31G(2df,p) Fr
 eq
 ----------------------------------------------------------------------

 Structure from the checkpoint file:  "/scratch/puck/g09_848bb3b7-32f1-4300-bb20-5526e1d6a158/Gau-68156.chk"
 -----
 titel
 -----
 Charge =  0 Multiplicity = 1

                         Standard orientation:
 ---------------------------------------------------------------------
 Center     Atomic      Atomic             Coordinates (Angstroms)
 Number     Number       Type             X           Y           Z
 ---------------------------------------------------------------------
      1          6           0       -1.320634    1.739185   -0.406102
      2          6           0       -0.404876    0.596212   -0.033993
      3          6           0       -0.972256   -0.690358    0.534749
      4          8           0       -2.369290   -0.758714    0.573916
      5          6           0       -0.306861   -0.693849   -0.824892
      6          8           0        1.036311   -1.098212   -0.938938
      7          6           0        1.881191   -0.120379   -0.375921
      8          6           0        1.914313    0.017476    1.122053
      9          6           0        1.040243    0.939587    0.288569
     10          1           0       -1.461171    2.419682    0.441170
     11          1           0       -0.903052    2.317976   -1.237365
     12          1           0       -2.304312    1.368287   -0.697953
     13          1           0       -0.464616   -1.173330    1.367757
     14          1           0       -2.625437   -1.666550    0.378202
     15          1           0       -0.908178   -0.905362   -1.704819
     16          1           0        2.763067    0.073586   -0.976870
     17          1           0        1.471790   -0.759656    1.732942
     18          1           0        2.805192    0.464078    1.552148
     19          1           0        1.303827    1.989460    0.238185
 ---------------------------------------------------------------------

 SCF Done:  E(RB3LYP) =  -423.142966754     A.U. after    1 cycles

 The electronic state is 1-A.
 Alpha  occ. eigenvalues --  -19.14713 -19.14689 -10.23282 -10.23066 -10.22624
 Alpha  occ. eigenvalues --  -10.19845 -10.19475 -10.18590 -10.17513  -1.05132
 Alpha  occ. eigenvalues --   -1.02854  -0.85637  -0.83014  -0.71182  -0.63088
 Alpha  occ. eigenvalues --   -0.62386  -0.57912  -0.55299  -0.52189  -0.50099
 Alpha  occ. eigenvalues --   -0.46057  -0.45154  -0.43172  -0.41063  -0.40309
 Alpha  occ. eigenvalues --   -0.39201  -0.37671  -0.36562  -0.34307  -0.31372
 Alpha  occ. eigenvalues --   -0.29806  -0.27720  -0.24886  -0.22429
 Alpha virt. eigenvalues --    0.07510   0.08898   0.09978   0.11805   0.12554
 Alpha virt. eigenvalues --    0.13365   0.14775   0.15432   0.16646   0.18331
 Alpha virt. eigenvalues --    0.18696   0.19293   0.20979   0.21857   0.22309

 Mulliken charges:
               1
     1  C   -0.488614
     2  C    0.281473
     3  C   -0.015095
     4  O   -0.423005
     5  C   -0.006253
     6  O   -0.259133
     7  C    0.105208
     8  C   -0.334845
     9  C   -0.132948
    10  H    0.121039
    11  H    0.114787
    12  H    0.136726
    13  H    0.086203
    14  H    0.289934
    15  H    0.098853
    16  H    0.098882
    17  H    0.122821
    18  H    0.112360
    19  H    0.091609
 Sum of Mulliken charges =   0.00000

 Dipole moment (field-independent basis, Debye):
    X=              0.1581    Y=              0.1681    Z=              0.1094  Tot=              0.2554
 Quadrupole moment (field-independent basis, Debye-Ang):
   XX=            -52.0428   YY=            -50.7510   ZZ=            -53.8709
   XY=              5.9788   XZ=              2.9132   YZ=             -1.8439

  Exact polarizability:  84.846   2.433  71.606   3.365  -0.730  66.135
 Approx polarizability: 114.165   2.463 107.663   1.256   2.405 102.428

                      1                      2                      3
                      A                      A                      A
 Frequencies --    178.8389               186.1825               209.0921
 Red. masses --      2.4071                 1.1618                 3.4812
 Frc consts  --      0.0454                 0.0237                 0.0897
 IR Inten    --      1.4721                 1.9822                 0.8920

                      4                      5                      6
                      A                      A                      A
 Frequencies --    256.3613               277.4811               290.8068
 Red. masses --      2.7513                 2.5611                 1.4939
 Frc consts  --      0.1065                 0.1162                 0.0744
 IR Inten    --     26.9429                28.0765                31.9201

                      7                      8                      9
                      A                      A                      A
 Frequencies --    349.9484               370.9369               488.1548
 Red. masses --      2.5688                 2.7341                 3.4284
 Frc consts  --      0.1854                 0.2216                 0.4813
 IR Inten    --     13.8257                14.6461                 0.4937

                     10                     11                     12
                      A                      A                      A
 Frequencies --    500.1332               642.4127               704.1747
 Red. masses --      3.6593                 3.6759                 4.0530
 Frc consts  --      0.5393                 0.8938                 1.1841
 IR Inten    --      2.6555                 8.7168                13.4258

                     13                     14                     15
                      A                      A                      A
 Frequencies --    725.9375               785.9032               817.9205
 Red. masses --      3.2322                 1.5697                 2.5699
 Frc consts  --      1.0036                 0.5712                 1.0130
 IR Inten    --      0.1893                10.2511                 6.9315

                     16                     17                     18
                      A                      A                      A
 Frequencies --    876.3361               909.7658               964.4861
 Red. masses --      2.6289                 2.0531                 2.3484
 Frc consts  --      1.1895                 1.0012                 1.2871
 IR Inten    --      4.6848                15.5741                 9.1332

                     19                     20                     21
                      A                      A                      A
 Frequencies --    975.5942               986.2879              1003.3739
 Red. masses --      1.8258                 2.1590                 1.6261
 Frc consts  --      1.0239                 1.2374                 0.9645
 IR Inten    --      1.6973                 5.7586                 0.8740

                     22                     23                     24
                      A                      A                      A
 Frequencies --   1031.7194              1053.8092              1074.1653
 Red. masses --      1.3584                 1.9970                 1.5547
 Frc consts  --      0.8519                 1.3066                 1.0569
 IR Inten    --      7.4260                24.1610                 7.1488

                     25                     26                     27
                      A                      A                      A
 Frequencies --   1080.6751              1102.4992              1124.1454
 Red. masses --      1.6682                 1.4759                 1.9853
 Frc consts  --      1.1478                 1.0570                 1.4781
 IR Inten    --     23.1864                 7.9581                36.9626

                     28                     29                     30
                      A                      A                      A
 Frequencies --   1150.5035              1175.3495              1205.5358
 Red. masses --      3.1773                 3.2494                 1.8386
 Frc consts  --      2.4779                 2.6448                 1.5743
 IR Inten    --    135.7233                 8.1657                15.2021

                     31                     32                     33
                      A                      A                      A
 Frequencies --   1220.9516              1268.3387              1288.4770
 Red. masses --      2.0707                 1.4850                 1.2984
 Frc consts  --      1.8187                 1.4075                 1.2700
 IR Inten    --      0.0370                 0.8849                19.6584

                     34                     35                     36
                      A                      A                      A
 Frequencies --   1304.9027              1363.0056              1375.9104
 Red. masses --      1.6625                 1.5111                 1.8690
 Frc consts  --      1.6679                 1.6540                 2.0846
 IR Inten    --     12.1836                 4.5055                11.0257

                     37                     38                     39
                      A                      A                      A
 Frequencies --   1408.9072              1453.3197              1480.6285
 Red. masses --      1.3450                 2.2074                 1.2218
 Frc consts  --      1.5731                 2.7469                 1.5781
 IR Inten    --      0.9213                 5.6567                 7.6805

                     40                     41                     42
                      A                      A                      A
 Frequencies --   1491.2926              1501.7307              3031.4829
 Red. masses --      1.0636                 1.0754                 1.0384
 Frc consts  --      1.3937                 1.4289                 5.6225
 IR Inten    --      2.6132                 4.3881                34.2964

                     43                     44                     45
                      A                      A                      A
 Frequencies --   3087.6646              3111.3846              3136.9067
 Red. masses --      1.1013                 1.0862                 1.0631
 Frc consts  --      6.1862                 6.1954                 6.1635
 IR Inten    --     22.9416                19.7033                18.7020

                     46                     47                     48
                      A                      A                      A
 Frequencies --   3137.0062              3148.6872              3166.1146
 Red. masses --      1.0903                 1.0902                 1.0903
 Frc consts  --      6.3214                 6.3682                 6.4393
 IR Inten    --      4.4882                29.8703                20.9621

                     49                     50                     51
                      A                      A                      A
 Frequencies --   3179.0942              3224.3088              3799.3972
 Red. masses --      1.0935                 1.1136                 1.0662
 Frc consts  --      6.5112                 6.8213                 9.0685
 IR Inten    --     11.7953                 9.4130                24.6898

 - Thermochemistry -
 -------------------
 Temperature   298.150 Kelvin.  Pressure   1.00000 Atm.
 Atom     1 has atomic number  6 and mass  12.00000

 Molecular mass:   126.06808 amu.
 Principal axes and moments of inertia in atomic units:
                           1         2         3
     Eigenvalues --   637.168001220.462091400.77625
           X            0.99954   0.00241   0.03013
           Y           -0.00026   0.99748  -0.07098
           Z           -0.03022   0.07094   0.99702
 This molecule is an asymmetric top.
 Rotational symmetry number  1.
 Warning -- assumption of classical behavior for rotation
           may cause significant error
 Rotational temperatures (Kelvin)      0.13594     0.07097     0.06183
 Rotational constants (GHZ):           2.83244     1.47874     1.28839
 Zero-point vibrational energy     416767.2 (Joules/Mol)
                                   99.60976 (Kcal/Mol)
 Warning -- explicit consideration of  10 degrees of freedom as
           vibrations may cause significant error
 Vibrational temperatures:    257.31   267.87   300.84   368.85   399.23
          (Kelvin)            418.41   503.50   533.69   702.34   719.58
                              924.29  1013.15  1044.46  1130.74  1176.80
                             1260.85  1308.95  1387.68  1403.66  1419.05
                             1443.63  1484.41  1516.19  1545.48  1554.85
                             1586.25  1617.39  1655.32  1691.06  1734.49
                             1756.67  1824.85  1853.83  1877.46  1961.06
                             1979.63  2027.10  2091.00  2130.29  2145.63
                             2160.65  4361.62  4442.46  4476.58  4513.30
                             4513.45  4530.25  4555.33  4574.00  4639.06
                             5466.48

 Zero-point correction=                           0.158738 (Hartree/Particle)
 Thermal correction to Energy=                    0.166903
 Thermal correction to Enthalpy=                  0.167847
 Thermal correction to Gibbs Free Energy=         0.126661
 Sum of electronic and zero-point Energies=           -422.984228
 Sum of electronic and thermal Energies=              -422.976064
 Sum of electronic and thermal Enthalpies=            -422.975120
 Sum of electronic and thermal Free Energies=         -423.016306

                     E (Thermal)             CV                S
                      KCal/Mol        Cal/Mol-Kelvin    Cal/Mol-Kelvin
 Total                  104.733             32.536             86.684
 Electronic               0.000              0.000              0.000
 Translational            0.889              2.981             40.409
 Rotational               0.889              2.981             28.479
 Vibrational            102.956             26.574             17.796
 Vibration     1          0.629              1.868              2.341
 Vibration     2          0.632              1.859              2.266
 Vibration     3          0.642              1.827              2.052
 Vibration     4          0.666              1.752              1.686
 Vibration     5          0.678              1.715              1.549
 Vibration     6          0.687              1.691              1.469
 Vibration     7          0.727              1.575              1.166
 Vibration     8          0.743              1.532              1.076
 Vibration     9          0.844              1.276              0.688
 Vibration    10          0.856              1.250              0.658

 Normal termination of Gaussian 09 at Tue Jan 28 00:34:39 2020.
