 Gaussian 09, Revision D.01,
 Gaussian 09:  ES64L-G09RevD.01 24-Apr-2013

 -----------------------------
 # b3lyp 6-31G(2df,p) opt Freq
 -----------------------------

 -----
 titel
 -----
 Symbolic Z-matrix:
 Charge =  0 Multiplicity = 1

 SCF Done:  E(RB3LYP) =  -423.121487743     A.U. after   13 cycles
 Optimization completed.
    -- Stationary point found.
 Normal termination of Gaussian 09 at Mon Jan 27 16:15:28 2020.

 ----------------------------------------------------------------------
 #N Geom=AllCheck Guess=TCheck SCRF=Check GenChk RB3LYP/6-31G(2df,p) Fr
 eq
 ----------------------------------------------------------------------

 Structure from the checkpoint file:  "/scratch/puck/g09_f4c82ef3-dc9f-442f-904f-6ae49adcb743/Gau-36346.chk"
 -----
 titel
 -----
 Charge =  0 Multiplicity = 1

                         Standard orientation:
 ---------------------------------------------------------------------
 Center     Atomic      Atomic             Coordinates (Angstroms)
 Number     Number       Type             X           Y           Z
 ---------------------------------------------------------------------
      1          6           0       -1.209103   -0.942934    1.365498
      2          6           0       -0.660840   -0.524642    0.005939
      3          6           0       -0.764340   -1.631215   -1.043045
      4          6           0       -1.176116    0.837843   -0.533437
      5          8           0       -0.792176    1.854543    0.396711
      6          6           0        0.177159    1.416319   -0.571845
      7          6           0        0.760820    0.131610   -0.009873
      8          6           0        1.954822   -0.090494    0.799400
      9          8           0        1.882852   -0.516234   -0.575643
     10          1           0       -0.635763   -1.781060    1.777085
     11          1           0       -1.160568   -0.110929    2.072184
     12          1           0       -2.252800   -1.267197    1.283752
     13          1           0       -1.803789   -1.958555   -1.153225
     14          1           0       -0.404182   -1.295156   -2.020217
     15          1           0       -0.161775   -2.495958   -0.751050
     16          1           0       -2.039396    1.030194   -1.161255
     17          1           0        0.627933    2.158703   -1.219903
     18          1           0        2.640179    0.731995    0.997953
     19          1           0        1.970344   -0.897436    1.530305
 ---------------------------------------------------------------------

 SCF Done:  E(RB3LYP) =  -423.121487743     A.U. after    1 cycles

 The electronic state is 1-A.
 Alpha  occ. eigenvalues --  -19.15802 -19.15722 -10.24557 -10.24059 -10.23951
 Alpha  occ. eigenvalues --  -10.23558 -10.20529 -10.17899 -10.17534  -1.08773
 Alpha  occ. eigenvalues --   -1.07139  -0.82167  -0.72253  -0.69289  -0.66608
 Alpha  occ. eigenvalues --   -0.63523  -0.60367  -0.53503  -0.51013  -0.50081
 Alpha  occ. eigenvalues --   -0.46531  -0.44487  -0.42567  -0.41433  -0.40687
 Alpha  occ. eigenvalues --   -0.38814  -0.38483  -0.36034  -0.34607  -0.33146
 Alpha  occ. eigenvalues --   -0.32155  -0.29201  -0.26966  -0.25126
 Alpha virt. eigenvalues --    0.07096   0.08831   0.09795   0.10247   0.11627
 Alpha virt. eigenvalues --    0.12883   0.14145   0.14468   0.15242   0.16316
 Alpha virt. eigenvalues --    0.17305   0.18803   0.19087   0.20183   0.20960

 Mulliken charges:
               1
     1  C   -0.451094
     2  C    0.167513
     3  C   -0.435249
     4  C    0.005149
     5  O   -0.248718
     6  C   -0.103345
     7  C    0.421729
     8  C   -0.263649
     9  O   -0.277750
    10  H    0.114339
    11  H    0.133899
    12  H    0.113683
    13  H    0.112635
    14  H    0.123049
    15  H    0.128716
    16  H    0.104550
    17  H    0.115092
    18  H    0.120364
    19  H    0.119087
 Sum of Mulliken charges =   0.00000

 Dipole moment (field-independent basis, Debye):
    X=             -0.4565    Y=             -0.4744    Z=             -0.0512  Tot=              0.6603
 Quadrupole moment (field-independent basis, Debye-Ang):
   XX=            -52.7671   YY=            -54.9003   ZZ=            -52.6414
   XY=              3.5656   XZ=              4.6029   YZ=             -3.7682

  Exact polarizability:  81.238   3.045  74.135   4.506  -2.794  68.126
 Approx polarizability: 118.163   0.499 106.909   2.819   1.186 103.583

                      1                      2                      3
                      A                      A                      A
 Frequencies --    115.3591               196.2856               205.3883
 Red. masses --      3.4068                 1.1463                 2.8233
 Frc consts  --      0.0267                 0.0260                 0.0702
 IR Inten    --      1.9746                 0.1563                 0.5000

                      4                      5                      6
                      A                      A                      A
 Frequencies --    218.3967               246.1572               268.7708
 Red. masses --      1.5481                 1.8022                 2.3299
 Frc consts  --      0.0435                 0.0643                 0.0992
 IR Inten    --      0.7474                 3.5695                 3.1442

                      7                      8                      9
                      A                      A                      A
 Frequencies --    308.9190               343.5015               413.9200
 Red. masses --      2.9954                 2.7154                 2.8550
 Frc consts  --      0.1684                 0.1888                 0.2882
 IR Inten    --      3.9327                 3.7294                 1.0993

                     10                     11                     12
                      A                      A                      A
 Frequencies --    523.8258               555.2241               607.3597
 Red. masses --      5.9460                 4.1783                 3.8235
 Frc consts  --      0.9613                 0.7589                 0.8310
 IR Inten    --      5.1121                 4.9943                 2.9172

                     13                     14                     15
                      A                      A                      A
 Frequencies --    658.3898               833.3180               844.5601
 Red. masses --      3.3097                 3.6954                 2.8537
 Frc consts  --      0.8453                 1.5119                 1.1993
 IR Inten    --      1.9064                 4.1021                17.7433

                     16                     17                     18
                      A                      A                      A
 Frequencies --    859.7350               872.3336               906.6714
 Red. masses --      1.6843                 1.7994                 6.1927
 Frc consts  --      0.7335                 0.8067                 2.9994
 IR Inten    --     17.9711                 9.1085                14.0989

                     19                     20                     21
                      A                      A                      A
 Frequencies --    954.5142               957.4559               979.7028
 Red. masses --      1.7447                 1.7306                 2.2339
 Frc consts  --      0.9365                 0.9347                 1.2633
 IR Inten    --      3.7545                 8.1257                 8.3049

                     22                     23                     24
                      A                      A                      A
 Frequencies --    994.6163              1034.8312              1046.8753
 Red. masses --      2.3855                 1.7591                 1.3097
 Frc consts  --      1.3904                 1.1099                 0.8457
 IR Inten    --     41.5530                 8.2226                 0.4238

                     25                     26                     27
                      A                      A                      A
 Frequencies --   1119.4297              1136.5848              1153.6401
 Red. masses --      1.2684                 1.8568                 1.4066
 Frc consts  --      0.9365                 1.4132                 1.1030
 IR Inten    --      1.5162                 6.2975                 0.8886

                     28                     29                     30
                      A                      A                      A
 Frequencies --   1190.6512              1205.9356              1218.9144
 Red. masses --      1.7921                 2.1206                 1.9264
 Frc consts  --      1.4969                 1.8170                 1.6863
 IR Inten    --      2.6125                 1.8700                 4.0442

                     31                     32                     33
                      A                      A                      A
 Frequencies --   1241.2214              1302.2575              1366.5299
 Red. masses --      2.4897                 2.6238                 4.0811
 Frc consts  --      2.2600                 2.6216                 4.4902
 IR Inten    --      3.3540                 1.8590                16.0842

                     34                     35                     36
                      A                      A                      A
 Frequencies --   1397.6083              1416.5369              1443.5450
 Red. masses --      1.2683                 1.3173                 2.0122
 Frc consts  --      1.4596                 1.5574                 2.4705
 IR Inten    --      5.3730                 6.0605                 7.5779

                     37                     38                     39
                      A                      A                      A
 Frequencies --   1482.0574              1484.0069              1499.7363
 Red. masses --      1.0490                 1.0474                 1.0701
 Frc consts  --      1.3575                 1.3591                 1.4181
 IR Inten    --      2.0864                 1.3354                 2.8862

                     40                     41                     42
                      A                      A                      A
 Frequencies --   1506.9675              1537.8758              3028.6915
 Red. masses --      1.0538                 1.6615                 1.0365
 Frc consts  --      1.4099                 2.3152                 5.6016
 IR Inten    --      7.7932                10.5847                21.6803

                     43                     44                     45
                      A                      A                      A
 Frequencies --   3035.7320              3085.9703              3089.1673
 Red. masses --      1.0355                 1.0525                 1.0985
 Frc consts  --      5.6226                 5.9052                 6.1764
 IR Inten    --     23.6171                16.5487                25.3040

                     46                     47                     48
                      A                      A                      A
 Frequencies --   3104.2440              3113.6089              3122.1535
 Red. masses --      1.1012                 1.1010                 1.0999
 Frc consts  --      6.2522                 6.2888                 6.3170
 IR Inten    --     24.7026                16.9144                13.2546

                     49                     50                     51
                      A                      A                      A
 Frequencies --   3173.7131              3175.7881              3195.0227
 Red. masses --      1.1188                 1.0897                 1.1005
 Frc consts  --      6.6393                 6.4750                 6.6188
 IR Inten    --     15.6725                16.0906                15.8690

 - Thermochemistry -
 -------------------
 Temperature   298.150 Kelvin.  Pressure   1.00000 Atm.
 Atom     1 has atomic number  6 and mass  12.00000

 Molecular mass:   126.06808 amu.
 Principal axes and moments of inertia in atomic units:
                           1         2         3
     Eigenvalues --   853.44329 977.482871263.45162
           X            0.96958   0.24276   0.03125
           Y           -0.24183   0.96983  -0.03078
           Z           -0.03778   0.02229   0.99904
 This molecule is an asymmetric top.
 Rotational symmetry number  1.
 Warning -- assumption of classical behavior for rotation
           may cause significant error
 Rotational temperatures (Kelvin)      0.10149     0.08861     0.06855
 Rotational constants (GHZ):           2.11466     1.84631     1.42842
 Zero-point vibrational energy     411358.1 (Joules/Mol)
                                   98.31694 (Kcal/Mol)
 Warning -- explicit consideration of  12 degrees of freedom as
           vibrations may cause significant error
 Vibrational temperatures:    165.98   282.41   295.51   314.22   354.16
          (Kelvin)            386.70   444.46   494.22   595.54   753.67
                              798.84   873.85   947.27  1198.96  1215.13
                             1236.97  1255.09  1304.50  1373.33  1377.56
                             1409.57  1431.03  1488.89  1506.22  1610.61
                             1635.29  1659.83  1713.08  1735.07  1753.74
                             1785.84  1873.66  1966.13  2010.84  2038.08
                             2076.94  2132.35  2135.15  2157.78  2168.19
                             2212.66  4357.61  4367.74  4440.02  4444.62
                             4466.31  4479.78  4492.08  4566.26  4569.24
                             4596.92

 Zero-point correction=                           0.156678 (Hartree/Particle)
 Thermal correction to Energy=                    0.165306
 Thermal correction to Enthalpy=                  0.166250
 Thermal correction to Gibbs Free Energy=         0.124015
 Sum of electronic and zero-point Energies=           -422.964810
 Sum of electronic and thermal Energies=              -422.956182
 Sum of electronic and thermal Enthalpies=            -422.955238
 Sum of electronic and thermal Free Energies=         -422.997472

                     E (Thermal)             CV                S
                      KCal/Mol        Cal/Mol-Kelvin    Cal/Mol-Kelvin
 Total                  103.731             33.372             88.890
 Electronic               0.000              0.000              0.000
 Translational            0.889              2.981             40.409
 Rotational               0.889              2.981             28.446
 Vibrational            101.953             27.410             20.035
 Vibration     1          0.608              1.937              3.177
 Vibration     2          0.636              1.845              2.168
 Vibration     3          0.640              1.832              2.084
 Vibration     4          0.646              1.813              1.972
 Vibration     5          0.661              1.769              1.758
 Vibration     6          0.673              1.731              1.604
 Vibration     7          0.698              1.657              1.368
 Vibration     8          0.722              1.588              1.196
 Vibration     9          0.778              1.440              0.913
 Vibration    10          0.879              1.197              0.601
 Vibration    11          0.911              1.128              0.533
 Vibration    12          0.966              1.016              0.437

 Optimization completed.
    -- Stationary point found.
 Normal termination of Gaussian 09 at Mon Jan 27 17:11:48 2020.
