 Gaussian 09, Revision D.01,
 Gaussian 09:  ES64L-G09RevD.01 24-Apr-2013

 -----------------------------
 # b3lyp 6-31G(2df,p) opt Freq
 -----------------------------

 -----
 titel
 -----
 Symbolic Z-matrix:
 Charge =  0 Multiplicity = 1

 SCF Done:  E(RB3LYP) =  -423.190506538     A.U. after   14 cycles
 SCF Done:  E(RB3LYP) =  -423.190506316     A.U. after    8 cycles
 SCF Done:  E(RB3LYP) =  -423.190506743     A.U. after    8 cycles
 SCF Done:  E(RB3LYP) =  -423.190506738     A.U. after    8 cycles
 SCF Done:  E(RB3LYP) =  -423.190506805     A.U. after    7 cycles
 Optimization completed.
    -- Stationary point found.
 Normal termination of Gaussian 09 at Tue Jan 28 08:53:17 2020.

 ----------------------------------------------------------------------
 #N Geom=AllCheck Guess=TCheck SCRF=Check GenChk RB3LYP/6-31G(2df,p) Fr
 eq
 ----------------------------------------------------------------------

 Structure from the checkpoint file:  "/scratch/puck/g09_d33e6b72-e372-4b1f-bcb1-93f9e4d675d8/Gau-79844.chk"
 -----
 titel
 -----
 Charge =  0 Multiplicity = 1

                         Standard orientation:
 ---------------------------------------------------------------------
 Center     Atomic      Atomic             Coordinates (Angstroms)
 Number     Number       Type             X           Y           Z
 ---------------------------------------------------------------------
      1          6           0       -3.982293    0.127061    0.584046
      2          6           0       -3.143349   -0.625032   -0.464924
      3          6           0       -1.723704   -0.292965   -0.414007
      4          6           0       -0.554229   -0.013187   -0.352474
      5          6           0        0.852133    0.360004   -0.311653
      6          6           0        1.076228    1.825113    0.068683
      7          8           0        1.505147   -0.497168    0.678801
      8          6           0        2.785318   -0.806329    0.441367
      9          8           0        3.451002   -0.443449   -0.490842
     10          1           0       -3.637533   -0.104558    1.595301
     11          1           0       -3.905854    1.208257    0.440780
     12          1           0       -5.035450   -0.157877    0.504344
     13          1           0       -3.262968   -1.707115   -0.326312
     14          1           0       -3.527219   -0.407655   -1.469918
     15          1           0        1.331195    0.157181   -1.274224
     16          1           0        0.673044    2.024510    1.064462
     17          1           0        2.144687    2.052244    0.054150
     18          1           0        0.568750    2.473596   -0.650186
     19          1           0        3.141532   -1.461631    1.251701
 ---------------------------------------------------------------------

 SCF Done:  E(RB3LYP) =  -423.190506805     A.U. after    1 cycles

 The electronic state is 1-A.
 Alpha  occ. eigenvalues --  -19.18859 -19.13419 -10.30881 -10.26720 -10.21272
 Alpha  occ. eigenvalues --  -10.18707 -10.18663 -10.18286 -10.17488  -1.10446
 Alpha  occ. eigenvalues --   -1.02138  -0.81061  -0.79107  -0.71983  -0.67390
 Alpha  occ. eigenvalues --   -0.64156  -0.59185  -0.53889  -0.49551  -0.47423
 Alpha  occ. eigenvalues --   -0.46355  -0.45944  -0.45702  -0.40799  -0.40387
 Alpha  occ. eigenvalues --   -0.40138  -0.37999  -0.37441  -0.36702  -0.35439
 Alpha  occ. eigenvalues --   -0.30918  -0.28675  -0.26174  -0.25572
 Alpha virt. eigenvalues --    0.00829   0.03517   0.04795   0.10112   0.11891
 Alpha virt. eigenvalues --    0.13285   0.14442   0.14614   0.15029   0.15576
 Alpha virt. eigenvalues --    0.16725   0.17463   0.18884   0.20907   0.20973

 Mulliken charges:
               1
     1  C   -0.365573
     2  C   -0.317170
     3  C    0.107634
     4  C    0.058803
     5  C   -0.061701
     6  C   -0.396344
     7  O   -0.211669
     8  C    0.191498
     9  O   -0.308022
    10  H    0.131133
    11  H    0.128543
    12  H    0.116820
    13  H    0.135080
    14  H    0.133116
    15  H    0.138651
    16  H    0.133473
    17  H    0.140031
    18  H    0.132498
    19  H    0.113198
 Sum of Mulliken charges =   0.00000

 Dipole moment (field-independent basis, Debye):
    X=             -2.4204    Y=              0.2801    Z=              0.6953  Tot=              2.5338
 Quadrupole moment (field-independent basis, Debye-Ang):
   XX=            -54.1872   YY=            -50.6836   ZZ=            -53.0896
   XY=              1.0314   XZ=              5.2484   YZ=             -1.0093

  Exact polarizability: 119.648   2.618  67.141   0.818  -2.287  62.696
 Approx polarizability: 160.377   9.300  93.021  -3.095  -5.099  96.478

                      1                      2                      3
                      A                      A                      A
 Frequencies --      7.7796                39.3700                90.9576
 Red. masses --      2.4414                 7.9854                 3.0400
 Frc consts  --      0.0001                 0.0073                 0.0148
 IR Inten    --      0.1517                 1.2237                 0.6299

                      4                      5                      6
                      A                      A                      A
 Frequencies --     95.2585               188.6265               209.5108
 Red. masses --      3.2809                 4.5439                 1.3762
 Frc consts  --      0.0175                 0.0953                 0.0356
 IR Inten    --      2.2970                 4.3034                 1.1569

                      7                      8                      9
                      A                      A                      A
 Frequencies --    238.8140               254.6668               294.9746
 Red. masses --      1.1187                 2.1793                 3.3908
 Frc consts  --      0.0376                 0.0833                 0.1738
 IR Inten    --      0.7633                 7.4725                 6.8786

                     10                     11                     12
                      A                      A                      A
 Frequencies --    341.0226               379.3723               480.9357
 Red. masses --      2.7011                 3.9681                 3.6120
 Frc consts  --      0.1851                 0.3365                 0.4922
 IR Inten    --      2.8920                 2.6040                10.6143

                     13                     14                     15
                      A                      A                      A
 Frequencies --    523.7025               564.9677               690.0020
 Red. masses --      5.9500                 4.1803                 3.8662
 Frc consts  --      0.9615                 0.7861                 1.0845
 IR Inten    --      5.0330                 3.1776                 4.1448

                     16                     17                     18
                      A                      A                      A
 Frequencies --    783.3829               807.4756               852.9825
 Red. masses --      1.1853                 3.2753                 3.5294
 Frc consts  --      0.4286                 1.2582                 1.5130
 IR Inten    --      2.1970                14.1790                18.9732

                     19                     20                     21
                      A                      A                      A
 Frequencies --    939.5944              1012.2323              1043.5276
 Red. masses --      2.2768                 2.7442                 1.6582
 Frc consts  --      1.1843                 1.6567                 1.0639
 IR Inten    --      8.0585                22.1689                 0.8286

                     22                     23                     24
                      A                      A                      A
 Frequencies --   1066.4936              1087.7443              1102.7913
 Red. masses --      1.9976                 1.6507                 1.4963
 Frc consts  --      1.3387                 1.1507                 1.0722
 IR Inten    --     38.9163                10.5432                 0.2702

                     25                     26                     27
                      A                      A                      A
 Frequencies --   1112.8569              1191.8703              1206.4587
 Red. masses --      2.0725                 2.6113                 4.1135
 Frc consts  --      1.5123                 2.1856                 3.5276
 IR Inten    --      6.7742               178.5372               280.3690

                     28                     29                     30
                      A                      A                      A
 Frequencies --   1285.8160              1348.9902              1357.5554
 Red. masses --      1.1488                 1.4195                 1.7904
 Frc consts  --      1.1190                 1.5219                 1.9441
 IR Inten    --      0.0307                 4.1366                60.0910

                     31                     32                     33
                      A                      A                      A
 Frequencies --   1358.8235              1400.4394              1406.8495
 Red. masses --      1.1987                 1.2245                 1.1519
 Frc consts  --      1.3040                 1.4149                 1.3433
 IR Inten    --      4.9265                 4.4487                 3.4601

                     34                     35                     36
                      A                      A                      A
 Frequencies --   1409.4556              1471.7700              1487.8627
 Red. masses --      1.2118                 1.0734                 1.0551
 Frc consts  --      1.4183                 1.3699                 1.3762
 IR Inten    --      1.2150                 2.6175                 0.7113

                     37                     38                     39
                      A                      A                      A
 Frequencies --   1494.1649              1494.6881              1504.9021
 Red. masses --      1.0438                 1.0401                 1.0564
 Frc consts  --      1.3730                 1.3691                 1.4096
 IR Inten    --      2.4969                 7.6140                 1.2714

                     40                     41                     42
                      A                      A                      A
 Frequencies --   1812.7127              2370.5806              3022.7304
 Red. masses --      9.5313                11.9031                 1.0591
 Frc consts  --     18.4527                39.4113                 5.7013
 IR Inten    --    311.7619                16.6978                22.8783

                     43                     44                     45
                      A                      A                      A
 Frequencies --   3026.4786              3045.7141              3050.5121
 Red. masses --      1.0902                 1.0343                 1.1008
 Frc consts  --      5.8837                 5.6530                 6.0354
 IR Inten    --     66.9089                27.6619                 7.7059

                     46                     47                     48
                      A                      A                      A
 Frequencies --   3052.8612              3070.8080              3119.3085
 Red. masses --      1.0337                 1.0826                 1.1022
 Frc consts  --      5.6761                 6.0146                 6.3185
 IR Inten    --     10.1361                 3.3450                29.3862

                     49                     50                     51
                      A                      A                      A
 Frequencies --   3125.1042              3132.5764              3140.0985
 Red. masses --      1.1029                 1.1021                 1.1038
 Frc consts  --      6.3464                 6.3719                 6.4127
 IR Inten    --     23.0684                15.9434                13.0267

 - Thermochemistry -
 -------------------
 Temperature   298.150 Kelvin.  Pressure   1.00000 Atm.
 Atom     1 has atomic number  6 and mass  12.00000

 Molecular mass:   126.06808 amu.
 Principal axes and moments of inertia in atomic units:
                           1         2         3
     Eigenvalues --   423.491672926.287093099.13837
           X            0.99996   0.00832  -0.00161
           Y           -0.00831   0.99996   0.00202
           Z            0.00163  -0.00200   1.00000
 This molecule is an asymmetric top.
 Rotational symmetry number  1.
 Rotational temperatures (Kelvin)      0.20452     0.02960     0.02795
 Rotational constants (GHZ):           4.26157     0.61673     0.58234
 Zero-point vibrational energy     410308.2 (Joules/Mol)
                                   98.06601 (Kcal/Mol)
 Warning -- explicit consideration of  14 degrees of freedom as
           vibrations may cause significant error
 Vibrational temperatures:     11.19    56.64   130.87   137.06   271.39
          (Kelvin)            301.44   343.60   366.41   424.40   490.65
                              545.83   691.96   753.49   812.86   992.76
                             1127.11  1161.78  1227.25  1351.87  1456.37
                             1501.40  1534.44  1565.02  1586.67  1601.15
                             1714.83  1735.82  1850.00  1940.89  1953.22
                             1955.04  2014.92  2024.14  2027.89  2117.55
                             2140.70  2149.77  2150.52  2165.22  2608.09
                             3410.73  4349.03  4354.42  4382.10  4389.00
                             4392.38  4418.20  4487.98  4496.32  4507.07
                             4517.90

 Zero-point correction=                           0.156278 (Hartree/Particle)
 Thermal correction to Energy=                    0.166929
 Thermal correction to Enthalpy=                  0.167873
 Thermal correction to Gibbs Free Energy=         0.117418
 Sum of electronic and zero-point Energies=           -423.034229
 Sum of electronic and thermal Energies=              -423.023578
 Sum of electronic and thermal Enthalpies=            -423.022634
 Sum of electronic and thermal Free Energies=         -423.073089

                     E (Thermal)             CV                S
                      KCal/Mol        Cal/Mol-Kelvin    Cal/Mol-Kelvin
 Total                  104.750             36.131            106.192
 Electronic               0.000              0.000              0.000
 Translational            0.889              2.981             40.409
 Rotational               0.889              2.981             29.731
 Vibrational            102.972             30.169             36.053
 Vibration     1          0.593              1.987              8.510
 Vibration     2          0.594              1.981              5.291
 Vibration     3          0.602              1.956              3.639
 Vibration     4          0.603              1.953              3.549
 Vibration     5          0.633              1.856              2.241
 Vibration     6          0.642              1.826              2.048
 Vibration     7          0.657              1.781              1.812
 Vibration     8          0.665              1.755              1.698
 Vibration     9          0.689              1.683              1.445
 Vibration    10          0.721              1.593              1.207
 Vibration    11          0.749              1.514              1.042
 Vibration    12          0.837              1.292              0.708
 Vibration    13          0.879              1.198              0.601
 Vibration    14          0.921              1.107              0.514

 Normal termination of Gaussian 09 at Tue Jan 28 09:39:53 2020.
