 Gaussian 09, Revision D.01,
 Gaussian 09:  ES64L-G09RevD.01 24-Apr-2013

 -----------------------------
 # b3lyp 6-31G(2df,p) opt Freq
 -----------------------------

 -----
 titel
 -----
 Symbolic Z-matrix:
 Charge =  0 Multiplicity = 1

 SCF Done:  E(RB3LYP) =  -423.116362742     A.U. after   14 cycles
 Optimization completed.
    -- Stationary point found.
 Normal termination of Gaussian 09 at Mon Jan 27 23:46:27 2020.

 ----------------------------------------------------------------------
 #N Geom=AllCheck Guess=TCheck SCRF=Check GenChk RB3LYP/6-31G(2df,p) Fr
 eq
 ----------------------------------------------------------------------

 Structure from the checkpoint file:  "/scratch/puck/g09_5ea380f2-cdcd-4c47-bb3c-405b25205d76/Gau-77866.chk"
 -----
 titel
 -----
 Charge =  0 Multiplicity = 1

                         Standard orientation:
 ---------------------------------------------------------------------
 Center     Atomic      Atomic             Coordinates (Angstroms)
 Number     Number       Type             X           Y           Z
 ---------------------------------------------------------------------
      1          6           0        2.184689   -0.033874    0.913731
      2          6           0        1.198458   -0.563627   -0.119772
      3          6           0       -0.079040   -1.226089    0.476027
      4          8           0       -0.811630   -1.681109   -0.697587
      5          6           0       -1.065085   -0.299539   -0.954876
      6          6           0       -0.824931    0.169195    0.450510
      7          6           0       -1.615709    0.978082    1.425171
      8          6           0        0.212163    0.484518   -0.641707
      9          8           0        0.468083    1.673016   -1.288771
     10          1           0        2.732695   -0.851588    1.393256
     11          1           0        2.925667    0.626596    0.449073
     12          1           0        1.675586    0.535121    1.700740
     13          1           0        1.703466   -1.181061   -0.871915
     14          1           0       -0.036204   -1.952160    1.286727
     15          1           0       -1.789178   -0.011710   -1.706597
     16          1           0       -2.501794    0.437177    1.776043
     17          1           0       -1.022566    1.254881    2.304601
     18          1           0       -1.958073    1.905841    0.953618
     19          1           0        0.955504    2.249659   -0.689194
 ---------------------------------------------------------------------

 SCF Done:  E(RB3LYP) =  -423.116362742     A.U. after    1 cycles

 The electronic state is 1-A.
 Alpha  occ. eigenvalues --  -19.15704 -19.13126 -10.23914 -10.23728 -10.23095
 Alpha  occ. eigenvalues --  -10.19364 -10.18938 -10.18908 -10.18382  -1.06178
 Alpha  occ. eigenvalues --   -1.03493  -0.85269  -0.76628  -0.72267  -0.67818
 Alpha  occ. eigenvalues --   -0.61746  -0.56834  -0.54724  -0.48984  -0.48316
 Alpha  occ. eigenvalues --   -0.46930  -0.44026  -0.41714  -0.41036  -0.40127
 Alpha  occ. eigenvalues --   -0.39571  -0.38718  -0.37006  -0.36592  -0.33562
 Alpha  occ. eigenvalues --   -0.30508  -0.28155  -0.23738  -0.21933
 Alpha virt. eigenvalues --    0.05424   0.09265   0.10609   0.11477   0.12119
 Alpha virt. eigenvalues --    0.13253   0.13583   0.15076   0.15630   0.16526
 Alpha virt. eigenvalues --    0.17336   0.19466   0.20322   0.20816   0.22974

 Mulliken charges:
               1
     1  C   -0.430197
     2  C   -0.055126
     3  C    0.005430
     4  O   -0.294982
     5  C   -0.016388
     6  C    0.203707
     7  C   -0.541077
     8  C    0.295579
     9  O   -0.461526
    10  H    0.121524
    11  H    0.117537
    12  H    0.112828
    13  H    0.076114
    14  H    0.084046
    15  H    0.110354
    16  H    0.131651
    17  H    0.120469
    18  H    0.130707
    19  H    0.289351
 Sum of Mulliken charges =   0.00000

 Dipole moment (field-independent basis, Debye):
    X=              0.8117    Y=              1.6743    Z=              2.1438  Tot=              2.8387
 Quadrupole moment (field-independent basis, Debye-Ang):
   XX=            -50.9461   YY=            -53.9766   ZZ=            -54.8239
   XY=             -0.9777   XZ=              0.5514   YZ=             -0.4268

  Exact polarizability:  79.527  -1.200  72.548   0.966  -0.147  71.587
 Approx polarizability: 108.371   1.981 110.418   1.579  -1.048 109.457

                      1                      2                      3
                      A                      A                      A
 Frequencies --    149.1001               168.1004               194.9875
 Red. masses --      2.6738                 2.9967                 1.7930
 Frc consts  --      0.0350                 0.0499                 0.0402
 IR Inten    --      0.3102                 0.4870                 0.3076

                      4                      5                      6
                      A                      A                      A
 Frequencies --    199.7836               225.6140               297.5090
 Red. masses --      1.2277                 1.1280                 2.0209
 Frc consts  --      0.0289                 0.0338                 0.1054
 IR Inten    --      1.0066                 0.1888                18.6454

                      7                      8                      9
                      A                      A                      A
 Frequencies --    326.1702               363.8089               404.7044
 Red. masses --      1.8637                 2.2589                 3.6572
 Frc consts  --      0.1168                 0.1762                 0.3529
 IR Inten    --     37.7716                21.9943                34.5488

                     10                     11                     12
                      A                      A                      A
 Frequencies --    506.9904               583.4111               626.4261
 Red. masses --      4.1841                 3.0874                 4.5067
 Frc consts  --      0.6337                 0.6191                 1.0420
 IR Inten    --      2.1854                12.0200                 1.1007

                     13                     14                     15
                      A                      A                      A
 Frequencies --    664.2191               762.1651               772.2988
 Red. masses --      4.7873                 3.7057                 2.7756
 Frc consts  --      1.2444                 1.2683                 0.9754
 IR Inten    --      4.2137                 3.5875                 3.8774

                     16                     17                     18
                      A                      A                      A
 Frequencies --    810.3425               889.7327               912.1845
 Red. masses --      2.6279                 2.6588                 2.0278
 Frc consts  --      1.0167                 1.2401                 0.9941
 IR Inten    --      8.1993                34.1857                 3.6640

                     19                     20                     21
                      A                      A                      A
 Frequencies --    957.1119               959.1681              1006.1266
 Red. masses --      3.3521                 1.7625                 2.1765
 Frc consts  --      1.8092                 0.9554                 1.2981
 IR Inten    --     28.0836                14.4513                 9.1967

                     22                     23                     24
                      A                      A                      A
 Frequencies --   1040.2606              1058.7329              1093.5401
 Red. masses --      1.9185                 1.5279                 1.7615
 Frc consts  --      1.2232                 1.0091                 1.2411
 IR Inten    --      4.9241                 2.7184                 1.5162

                     25                     26                     27
                      A                      A                      A
 Frequencies --   1115.9249              1126.2131              1159.0422
 Red. masses --      2.3023                 2.2481                 2.2099
 Frc consts  --      1.6892                 1.6800                 1.7491
 IR Inten    --      0.8825                11.2835                 5.1600

                     28                     29                     30
                      A                      A                      A
 Frequencies --   1176.9297              1215.6973              1237.5577
 Red. masses --      1.6769                 1.5424                 2.0267
 Frc consts  --      1.3685                 1.3431                 1.8288
 IR Inten    --      7.0216                 2.7381                49.3278

                     31                     32                     33
                      A                      A                      A
 Frequencies --   1271.9798              1295.5402              1367.3425
 Red. masses --      1.6896                 1.5282                 1.8431
 Frc consts  --      1.6106                 1.5112                 2.0303
 IR Inten    --     71.7354                57.7934                 4.8403

                     34                     35                     36
                      A                      A                      A
 Frequencies --   1381.7765              1405.4975              1415.9282
 Red. masses --      2.2225                 1.2516                 1.4023
 Frc consts  --      2.5001                 1.4567                 1.6565
 IR Inten    --     21.6521                 2.3894                 1.1141

                     37                     38                     39
                      A                      A                      A
 Frequencies --   1473.8485              1484.4232              1495.4258
 Red. masses --      3.3888                 1.0479                 1.0559
 Frc consts  --      4.3371                 1.3605                 1.3912
 IR Inten    --      9.6511                 4.1632                 1.1872

                     40                     41                     42
                      A                      A                      A
 Frequencies --   1500.4872              1505.1484              3020.2229
 Red. masses --      1.0692                 1.1491                 1.0351
 Frc consts  --      1.4183                 1.5338                 5.5632
 IR Inten    --      6.5358                 6.6190                35.4893

                     43                     44                     45
                      A                      A                      A
 Frequencies --   3022.8313              3040.1961              3079.5722
 Red. masses --      1.0353                 1.0842                 1.1010
 Frc consts  --      5.5739                 5.9040                 6.1520
 IR Inten    --     30.7407                28.1416                26.7759

                     46                     47                     48
                      A                      A                      A
 Frequencies --   3086.7976              3092.1171              3095.2562
 Red. masses --      1.1007                 1.1001                 1.1005
 Frc consts  --      6.1795                 6.1971                 6.2119
 IR Inten    --     28.8207                18.1416                29.4716

                     49                     50                     51
                      A                      A                      A
 Frequencies --   3130.7980              3204.2242              3783.8079
 Red. masses --      1.0927                 1.0947                 1.0659
 Frc consts  --      6.3103                 6.6222                 8.9917
 IR Inten    --     31.8748                10.9828                15.6311

 - Thermochemistry -
 -------------------
 Temperature   298.150 Kelvin.  Pressure   1.00000 Atm.
 Atom     1 has atomic number  6 and mass  12.00000

 Molecular mass:   126.06808 amu.
 Principal axes and moments of inertia in atomic units:
                           1         2         3
     Eigenvalues --   906.547661035.960641158.37457
           X            0.98872  -0.14980  -0.00141
           Y            0.14949   0.98593   0.07476
           Z           -0.00981  -0.07413   0.99720
 This molecule is an asymmetric top.
 Rotational symmetry number  1.
 Warning -- assumption of classical behavior for rotation
           may cause significant error
 Rotational temperatures (Kelvin)      0.09554     0.08361     0.07477
 Rotational constants (GHZ):           1.99078     1.74209     1.55799
 Zero-point vibrational energy     413651.2 (Joules/Mol)
                                   98.86500 (Kcal/Mol)
 Warning -- explicit consideration of  11 degrees of freedom as
           vibrations may cause significant error
 Vibrational temperatures:    214.52   241.86   280.54   287.44   324.61
          (Kelvin)            428.05   469.29   523.44   582.28   729.45
                              839.40   901.29   955.66  1096.58  1111.16
                             1165.90  1280.13  1312.43  1377.07  1380.03
                             1447.59  1496.70  1523.28  1573.36  1605.57
                             1620.37  1667.60  1693.34  1749.12  1780.57
                             1830.09  1863.99  1967.30  1988.07  2022.19
                             2037.20  2120.54  2135.75  2151.58  2158.86
                             2165.57  4345.42  4349.17  4374.16  4430.81
                             4441.21  4448.86  4453.38  4504.51  4610.16
                             5444.05

 Zero-point correction=                           0.157551 (Hartree/Particle)
 Thermal correction to Energy=                    0.166181
 Thermal correction to Enthalpy=                  0.167125
 Thermal correction to Gibbs Free Energy=         0.124910
 Sum of electronic and zero-point Energies=           -422.958811
 Sum of electronic and thermal Energies=              -422.950182
 Sum of electronic and thermal Enthalpies=            -422.949238
 Sum of electronic and thermal Free Energies=         -422.991453

                     E (Thermal)             CV                S
                      KCal/Mol        Cal/Mol-Kelvin    Cal/Mol-Kelvin
 Total                  104.280             33.415             88.850
 Electronic               0.000              0.000              0.000
 Translational            0.889              2.981             40.409
 Rotational               0.889              2.981             28.477
 Vibrational            102.503             27.453             19.964
 Vibration     1          0.618              1.904              2.684
 Vibration     2          0.625              1.882              2.457
 Vibration     3          0.636              1.847              2.180
 Vibration     4          0.638              1.840              2.135
 Vibration     5          0.650              1.802              1.914
 Vibration     6          0.691              1.678              1.431
 Vibration     7          0.710              1.623              1.279
 Vibration     8          0.737              1.547              1.106
 Vibration     9          0.770              1.460              0.946
 Vibration    10          0.862              1.235              0.641
 Vibration    11          0.940              1.067              0.479

 Normal termination of Gaussian 09 at Tue Jan 28 00:31:58 2020.
