 Gaussian 09, Revision D.01,
 Gaussian 09:  ES64L-G09RevD.01 24-Apr-2013

 -----------------------------
 # b3lyp 6-31G(2df,p) opt Freq
 -----------------------------

 -----
 titel
 -----
 Symbolic Z-matrix:
 Charge =  0 Multiplicity = 1

 SCF Done:  E(RB3LYP) =  -423.168057976     A.U. after   14 cycles
 Optimization completed.
    -- Stationary point found.
 Normal termination of Gaussian 09 at Tue Jan 28 14:09:01 2020.

 ----------------------------------------------------------------------
 #N Geom=AllCheck Guess=TCheck SCRF=Check GenChk RB3LYP/6-31G(2df,p) Fr
 eq
 ----------------------------------------------------------------------

 Structure from the checkpoint file:  "/scratch/puck/g09_4c610d00-bf9f-4de5-8b34-0a4d9a993b89/Gau-3928.chk"
 -----
 titel
 -----
 Charge =  0 Multiplicity = 1

                         Standard orientation:
 ---------------------------------------------------------------------
 Center     Atomic      Atomic             Coordinates (Angstroms)
 Number     Number       Type             X           Y           Z
 ---------------------------------------------------------------------
      1          6           0       -3.729841   -0.206778   -0.181909
      2          6           0       -2.313765   -0.267007    0.394649
      3          6           0       -1.245979    0.192459   -0.611677
      4          6           0        0.139605    0.135639   -0.049801
      5          6           0        0.990863   -1.101155    0.310159
      6          6           0        2.230276   -0.235989   -0.074344
      7          8           0        3.384752   -0.481609   -0.254888
      8          6           0        1.340145    0.969581   -0.350541
      9          8           0        0.566288    1.150712    0.858290
     10          1           0       -4.470436   -0.535931    0.552935
     11          1           0       -3.991179    0.813166   -0.484579
     12          1           0       -3.827226   -0.848964   -1.064399
     13          1           0       -2.246778    0.360880    1.290690
     14          1           0       -2.089331   -1.291376    0.717861
     15          1           0       -1.290141   -0.435027   -1.511371
     16          1           0       -1.451589    1.221921   -0.927159
     17          1           0        0.914728   -1.441702    1.344380
     18          1           0        0.894562   -1.949550   -0.374594
     19          1           0        1.481242    1.833253   -0.990189
 ---------------------------------------------------------------------

 SCF Done:  E(RB3LYP) =  -423.168057976     A.U. after    1 cycles

 The electronic state is 1-A.
 Alpha  occ. eigenvalues --  -19.17044 -19.14454 -10.28049 -10.26101 -10.24762
 Alpha  occ. eigenvalues --  -10.20240 -10.20183 -10.19355 -10.18311  -1.09645
 Alpha  occ. eigenvalues --   -1.05191  -0.81319  -0.79456  -0.71923  -0.67408
 Alpha  occ. eigenvalues --   -0.61476  -0.57155  -0.55080  -0.48990  -0.48808
 Alpha  occ. eigenvalues --   -0.47066  -0.45481  -0.43169  -0.42258  -0.41579
 Alpha  occ. eigenvalues --   -0.40207  -0.37752  -0.36714  -0.36184  -0.35227
 Alpha  occ. eigenvalues --   -0.34067  -0.31542  -0.28243  -0.24221
 Alpha virt. eigenvalues --   -0.02574   0.07089   0.09140   0.10908   0.11730
 Alpha virt. eigenvalues --    0.12840   0.13169   0.13748   0.14414   0.16157
 Alpha virt. eigenvalues --    0.16370   0.17017   0.18063   0.18651   0.22366

 Mulliken charges:
               1
     1  C   -0.384362
     2  C   -0.166298
     3  C   -0.313063
     4  C    0.434939
     5  C   -0.418056
     6  C    0.432410
     7  O   -0.297344
     8  C   -0.190693
     9  O   -0.278389
    10  H    0.117952
    11  H    0.118944
    12  H    0.115930
    13  H    0.117762
    14  H    0.103400
    15  H    0.107335
    16  H    0.114131
    17  H    0.135006
    18  H    0.131390
    19  H    0.119004
 Sum of Mulliken charges =   0.00000

 Dipole moment (field-independent basis, Debye):
    X=             -3.1564    Y=             -0.3872    Z=             -1.1004  Tot=              3.3650
 Quadrupole moment (field-independent basis, Debye-Ang):
   XX=            -63.9080   YY=            -52.2181   ZZ=            -52.9969
   XY=              2.2365   XZ=              0.1012   YZ=             -2.5353

  Exact polarizability:  98.914   0.490  71.322  -2.541  -3.028  61.449
 Approx polarizability: 130.161  -0.237 109.754  -7.203   0.080  97.972

                      1                      2                      3
                      A                      A                      A
 Frequencies --     62.2968                85.3216                94.9368
 Red. masses --      4.0930                 2.7455                 2.1993
 Frc consts  --      0.0094                 0.0118                 0.0117
 IR Inten    --      1.1707                 1.4867                 1.0934

                      4                      5                      6
                      A                      A                      A
 Frequencies --    162.6832               245.8750               298.1331
 Red. masses --      4.1301                 1.1228                 2.6157
 Frc consts  --      0.0644                 0.0400                 0.1370
 IR Inten    --      2.6556                 0.0715                 0.3217

                      7                      8                      9
                      A                      A                      A
 Frequencies --    322.7355               388.6430               432.9400
 Red. masses --      3.0813                 3.9443                 2.4283
 Frc consts  --      0.1891                 0.3510                 0.2682
 IR Inten    --      0.3913                 4.3153                 8.2822

                     10                     11                     12
                      A                      A                      A
 Frequencies --    473.0308               578.0072               663.6650
 Red. masses --      3.8084                 3.6448                 3.8727
 Frc consts  --      0.5021                 0.7175                 1.0050
 IR Inten    --      3.3988                 5.9622                 1.6872

                     13                     14                     15
                      A                      A                      A
 Frequencies --    715.6211               743.6143               773.2958
 Red. masses --      3.2904                 1.2596                 2.7528
 Frc consts  --      0.9928                 0.4104                 0.9699
 IR Inten    --      5.1654                 0.1706                11.9883

                     16                     17                     18
                      A                      A                      A
 Frequencies --    852.4340               875.3254               898.0362
 Red. masses --      2.4252                 1.8503                 1.9600
 Frc consts  --      1.0383                 0.8353                 0.9313
 IR Inten    --     11.9048                12.3940                 3.4196

                     19                     20                     21
                      A                      A                      A
 Frequencies --    955.6098               978.7027              1001.3561
 Red. masses --      2.7378                 2.4325                 1.5864
 Frc consts  --      1.4730                 1.3728                 0.9372
 IR Inten    --      7.8059                 3.8524                 1.4290

                     22                     23                     24
                      A                      A                      A
 Frequencies --   1040.4389              1051.5697              1073.1035
 Red. masses --      3.1689                 2.6828                 1.7524
 Frc consts  --      2.0211                 1.7479                 1.1889
 IR Inten    --     10.8619                11.5703                 4.9990

                     25                     26                     27
                      A                      A                      A
 Frequencies --   1106.9534              1144.3735              1187.3407
 Red. masses --      1.7947                 1.6211                 1.5026
 Frc consts  --      1.2957                 1.2508                 1.2480
 IR Inten    --      3.8005                 2.4850                 4.8496

                     28                     29                     30
                      A                      A                      A
 Frequencies --   1213.5670              1223.9391              1286.0385
 Red. masses --      1.5253                 2.3696                 1.5152
 Frc consts  --      1.3235                 2.0915                 1.4764
 IR Inten    --      2.1101                14.6043                10.2058

                     31                     32                     33
                      A                      A                      A
 Frequencies --   1305.2653              1334.8128              1382.2073
 Red. masses --      1.3710                 1.1481                 1.5907
 Frc consts  --      1.3762                 1.2052                 1.7905
 IR Inten    --      9.4569                 2.1312                 3.5215

                     34                     35                     36
                      A                      A                      A
 Frequencies --   1414.9062              1424.0030              1454.7650
 Red. masses --      1.2532                 1.7961                 1.4973
 Frc consts  --      1.4781                 2.1458                 1.8670
 IR Inten    --      1.5638                19.2316                 7.3141

                     37                     38                     39
                      A                      A                      A
 Frequencies --   1472.3469              1493.2645              1500.0610
 Red. masses --      1.2304                 1.0574                 1.0400
 Frc consts  --      1.5715                 1.3892                 1.3788
 IR Inten    --      7.1526                 1.6289                 6.0468

                     40                     41                     42
                      A                      A                      A
 Frequencies --   1509.8094              1899.9859              3021.6634
 Red. masses --      1.0851                12.5426                 1.0592
 Frc consts  --      1.4573                26.6771                 5.6977
 IR Inten    --      3.8995               339.3556                 2.3351

                     43                     44                     45
                      A                      A                      A
 Frequencies --   3028.7171              3032.5892              3056.9234
 Red. masses --      1.0545                 1.0452                 1.0960
 Frc consts  --      5.6994                 5.6636                 6.0343
 IR Inten    --     12.0471                49.1297                 3.1940

                     46                     47                     48
                      A                      A                      A
 Frequencies --   3065.2058              3076.9133              3099.9150
 Red. masses --      1.0593                 1.1027                 1.1027
 Frc consts  --      5.8637                 6.1509                 6.2430
 IR Inten    --      5.7823                10.7781                53.2524

                     49                     50                     51
                      A                      A                      A
 Frequencies --   3107.3512              3130.0462              3192.3607
 Red. masses --      1.1008                 1.1055                 1.0956
 Frc consts  --      6.2624                 6.3816                 6.5782
 IR Inten    --     30.2449                 6.2024                 8.2340

 - Thermochemistry -
 -------------------
 Temperature   298.150 Kelvin.  Pressure   1.00000 Atm.
 Atom     1 has atomic number  6 and mass  12.00000

 Molecular mass:   126.06808 amu.
 Principal axes and moments of inertia in atomic units:
                           1         2         3
     Eigenvalues --   357.648592247.881792377.63841
           X            0.99998   0.00600   0.00302
           Y           -0.00566   0.99480  -0.10167
           Z           -0.00362   0.10165   0.99481
 This molecule is an asymmetric top.
 Rotational symmetry number  1.
 Rotational temperatures (Kelvin)      0.24218     0.03853     0.03643
 Rotational constants (GHZ):           5.04613     0.80286     0.75905
 Zero-point vibrational energy     412309.1 (Joules/Mol)
                                   98.54424 (Kcal/Mol)
 Warning -- explicit consideration of  11 degrees of freedom as
           vibrations may cause significant error
 Vibrational temperatures:     89.63   122.76   136.59   234.06   353.76
          (Kelvin)            428.95   464.34   559.17   622.90   680.59
                              831.62   954.86  1029.62  1069.89  1112.60
                             1226.46  1259.40  1292.07  1374.91  1408.13
                             1440.73  1496.96  1512.97  1543.95  1592.66
                             1646.50  1708.32  1746.05  1760.97  1850.32
                             1877.98  1920.50  1988.69  2035.73  2048.82
                             2093.08  2118.38  2148.47  2158.25  2172.28
                             2733.65  4347.49  4357.64  4363.21  4398.23
                             4410.14  4426.99  4460.08  4470.78  4503.43
                             4593.09

 Zero-point correction=                           0.157040 (Hartree/Particle)
 Thermal correction to Energy=                    0.166116
 Thermal correction to Enthalpy=                  0.167060
 Thermal correction to Gibbs Free Energy=         0.122503
 Sum of electronic and zero-point Energies=           -423.011018
 Sum of electronic and thermal Energies=              -423.001942
 Sum of electronic and thermal Enthalpies=            -423.000998
 Sum of electronic and thermal Free Energies=         -423.045555

                     E (Thermal)             CV                S
                      KCal/Mol        Cal/Mol-Kelvin    Cal/Mol-Kelvin
 Total                  104.239             33.284             93.777
 Electronic               0.000              0.000              0.000
 Translational            0.889              2.981             40.409
 Rotational               0.889              2.981             29.037
 Vibrational            102.462             27.322             24.331
 Vibration     1          0.597              1.972              4.383
 Vibration     2          0.601              1.959              3.765
 Vibration     3          0.603              1.953              3.556
 Vibration     4          0.623              1.888              2.518
 Vibration     5          0.660              1.770              1.760
 Vibration     6          0.691              1.677              1.427
 Vibration     7          0.708              1.630              1.296
 Vibration     8          0.757              1.494              1.005
 Vibration     9          0.794              1.398              0.849
 Vibration    10          0.830              1.310              0.729
 Vibration    11          0.935              1.079              0.489

 Optimization completed.
    -- Stationary point found.
 Normal termination of Gaussian 09 at Tue Jan 28 14:54:02 2020.
