 Gaussian 09, Revision D.01,
 Gaussian 09:  ES64L-G09RevD.01 24-Apr-2013

 -----------------------------
 # b3lyp 6-31G(2df,p) opt Freq
 -----------------------------

 -----
 titel
 -----
 Symbolic Z-matrix:
 Charge =  0 Multiplicity = 1

 SCF Done:  E(RB3LYP) =  -423.156687682     A.U. after   14 cycles
 Optimization completed.
    -- Stationary point found.
 Normal termination of Gaussian 09 at Mon Jan 27 16:58:17 2020.

 ----------------------------------------------------------------------
 #N Geom=AllCheck Guess=TCheck SCRF=Check GenChk RB3LYP/6-31G(2df,p) Fr
 eq
 ----------------------------------------------------------------------

 Structure from the checkpoint file:  "/scratch/puck/g09_171b3a25-e2a1-443f-a1be-2b924a279693/Gau-84902.chk"
 -----
 titel
 -----
 Charge =  0 Multiplicity = 1

                         Standard orientation:
 ---------------------------------------------------------------------
 Center     Atomic      Atomic             Coordinates (Angstroms)
 Number     Number       Type             X           Y           Z
 ---------------------------------------------------------------------
      1          6           0       -2.105903   -0.765394   -0.114669
      2          6           0       -0.623422   -0.527341    0.010396
      3          6           0        0.331141   -1.444038   -0.755336
      4          6           0        1.729400   -0.815233   -0.496230
      5          6           0        1.409340    0.601196   -0.016297
      6          6           0        0.495217    0.710413    1.212428
      7          8           0       -0.183204   -0.526107    1.422870
      8          6           0       -0.050787    0.914290   -0.164782
      9          8           0       -0.570076    1.964852   -0.886713
     10          1           0       -2.670336   -0.037707    0.476709
     11          1           0       -2.420685   -0.687405   -1.160190
     12          1           0       -2.364133   -1.764852    0.248999
     13          1           0        0.259930   -2.479523   -0.409660
     14          1           0        0.078795   -1.423730   -1.822394
     15          1           0        2.280216   -1.376064    0.264263
     16          1           0        2.343151   -0.798829   -1.401047
     17          1           0        2.118243    1.412761   -0.140918
     18          1           0        0.679497    1.352116    2.066137
     19          1           0       -1.388351    2.249906   -0.464213
 ---------------------------------------------------------------------

 SCF Done:  E(RB3LYP) =  -423.156687682     A.U. after    1 cycles

 The electronic state is 1-A.
 Alpha  occ. eigenvalues --  -19.15739 -19.12936 -10.23530 -10.23241 -10.22969
 Alpha  occ. eigenvalues --  -10.18576 -10.18151 -10.18013 -10.17898  -1.05544
 Alpha  occ. eigenvalues --   -1.02888  -0.83773  -0.77966  -0.73133  -0.65565
 Alpha  occ. eigenvalues --   -0.60627  -0.56675  -0.56064  -0.50250  -0.48920
 Alpha  occ. eigenvalues --   -0.46954  -0.42896  -0.41891  -0.40627  -0.39744
 Alpha  occ. eigenvalues --   -0.38247  -0.35949  -0.35899  -0.34685  -0.34511
 Alpha  occ. eigenvalues --   -0.33009  -0.27049  -0.25708  -0.21882
 Alpha virt. eigenvalues --    0.06347   0.08780   0.10970   0.11657   0.13114
 Alpha virt. eigenvalues --    0.13742   0.13897   0.16194   0.16570   0.17256
 Alpha virt. eigenvalues --    0.18507   0.20371   0.21620   0.21765   0.22399

 Mulliken charges:
               1
     1  C   -0.486645
     2  C    0.348200
     3  C   -0.241069
     4  C   -0.234187
     5  C   -0.125158
     6  C   -0.004817
     7  O   -0.340297
     8  C    0.264463
     9  O   -0.452486
    10  H    0.115170
    11  H    0.125702
    12  H    0.131668
    13  H    0.103378
    14  H    0.100239
    15  H    0.110528
    16  H    0.100815
    17  H    0.091574
    18  H    0.103326
    19  H    0.289597
 Sum of Mulliken charges =   0.00000

 Dipole moment (field-independent basis, Debye):
    X=             -0.7327    Y=              0.4945    Z=             -0.3766  Tot=              0.9608
 Quadrupole moment (field-independent basis, Debye-Ang):
   XX=            -48.9324   YY=            -51.8879   ZZ=            -56.3040
   XY=             -1.4310   XZ=              0.5492   YZ=              4.7859

  Exact polarizability:  79.989   0.646  73.564   0.241   3.699  67.503
 Approx polarizability: 109.335   0.322 105.652   0.809  -0.240 108.740

                      1                      2                      3
                      A                      A                      A
 Frequencies --    178.0933               188.3262               212.6928
 Red. masses --      1.4313                 1.6423                 2.1621
 Frc consts  --      0.0267                 0.0343                 0.0576
 IR Inten    --      0.1914                 1.3401                 0.3846

                      4                      5                      6
                      A                      A                      A
 Frequencies --    222.3006               303.7347               345.6584
 Red. masses --      2.4827                 2.5458                 1.2152
 Frc consts  --      0.0723                 0.1384                 0.0855
 IR Inten    --      4.9713                 2.8574                90.5639

                      7                      8                      9
                      A                      A                      A
 Frequencies --    389.7483               445.8683               506.0675
 Red. masses --      3.6545                 2.9971                 3.2327
 Frc consts  --      0.3271                 0.3510                 0.4878
 IR Inten    --     11.2445                14.3033                 3.0023

                     10                     11                     12
                      A                      A                      A
 Frequencies --    573.3573               626.8467               680.7202
 Red. masses --      4.3872                 3.4925                 4.1232
 Frc consts  --      0.8497                 0.8086                 1.1257
 IR Inten    --      3.5307                 4.7754                 0.6794

                     13                     14                     15
                      A                      A                      A
 Frequencies --    741.8183               766.9411               820.1772
 Red. masses --      2.7143                 3.5572                 3.1927
 Frc consts  --      0.8800                 1.2328                 1.2654
 IR Inten    --      5.2757                 7.8255                17.7307

                     16                     17                     18
                      A                      A                      A
 Frequencies --    858.5487               893.4543               908.6120
 Red. masses --      1.7885                 2.1010                 1.9347
 Frc consts  --      0.7767                 0.9881                 0.9411
 IR Inten    --      7.4495                 5.1538                 3.9111

                     19                     20                     21
                      A                      A                      A
 Frequencies --    940.1323               955.8559              1003.2936
 Red. masses --      2.0586                 1.7575                 2.0886
 Frc consts  --      1.0720                 0.9461                 1.2387
 IR Inten    --      8.1342                14.8900                10.3554

                     22                     23                     24
                      A                      A                      A
 Frequencies --   1022.9451              1024.7462              1056.3012
 Red. masses --      2.0261                 1.8541                 2.2028
 Frc consts  --      1.2492                 1.1471                 1.4481
 IR Inten    --     32.4893                 2.3986                22.3105

                     25                     26                     27
                      A                      A                      A
 Frequencies --   1115.1790              1150.1229              1180.3192
 Red. masses --      1.8446                 1.8404                 1.9813
 Frc consts  --      1.3516                 1.4344                 1.6263
 IR Inten    --      6.7127                 0.8333                31.2737

                     28                     29                     30
                      A                      A                      A
 Frequencies --   1203.3353              1219.7478              1257.2332
 Red. masses --      1.7079                 1.9729                 2.0955
 Frc consts  --      1.4571                 1.7294                 1.9515
 IR Inten    --      3.8532                13.7998                56.7651

                     31                     32                     33
                      A                      A                      A
 Frequencies --   1268.1235              1293.7015              1313.5277
 Red. masses --      1.7292                 1.8428                 1.4596
 Frc consts  --      1.6384                 1.8172                 1.4838
 IR Inten    --      3.2664                 8.5034                59.9024

                     34                     35                     36
                      A                      A                      A
 Frequencies --   1322.1588              1359.0897              1409.3786
 Red. masses --      1.4156                 1.8524                 1.4038
 Frc consts  --      1.4580                 2.0160                 1.6428
 IR Inten    --      3.3692                28.0199                12.2194

                     37                     38                     39
                      A                      A                      A
 Frequencies --   1469.9542              1475.6708              1489.0515
 Red. masses --      1.1848                 1.3483                 1.3587
 Frc consts  --      1.5084                 1.7298                 1.7750
 IR Inten    --      2.0548                 4.6481                14.5986

                     40                     41                     42
                      A                      A                      A
 Frequencies --   1494.1906              1500.6364              3033.3181
 Red. masses --      1.1557                 1.3068                 1.0538
 Frc consts  --      1.5203                 1.7339                 5.7125
 IR Inten    --      9.7749                15.9678                12.4387

                     43                     44                     45
                      A                      A                      A
 Frequencies --   3038.1616              3057.2690              3085.3225
 Red. masses --      1.0433                 1.0603                 1.1007
 Frc consts  --      5.6741                 5.8392                 6.1734
 IR Inten    --     34.5330                37.2313                 8.0992

                     46                     47                     48
                      A                      A                      A
 Frequencies --   3102.0931              3107.4179              3112.2784
 Red. masses --      1.1052                 1.1015                 1.1011
 Frc consts  --      6.2662                 6.2667                 6.2842
 IR Inten    --     26.3092                19.6955                20.1306

                     49                     50                     51
                      A                      A                      A
 Frequencies --   3176.2763              3186.0363              3789.3016
 Red. masses --      1.0898                 1.0944                 1.0660
 Frc consts  --      6.4779                 6.5453                 9.0182
 IR Inten    --      4.6589                26.3755                19.4772

 - Thermochemistry -
 -------------------
 Temperature   298.150 Kelvin.  Pressure   1.00000 Atm.
 Atom     1 has atomic number  6 and mass  12.00000

 Molecular mass:   126.06808 amu.
 Principal axes and moments of inertia in atomic units:
                           1         2         3
     Eigenvalues --   848.97007 886.518651135.32498
           X            0.99551   0.09467  -0.00152
           Y           -0.09415   0.99148   0.09006
           Z            0.01004  -0.08951   0.99593
 This molecule is an asymmetric top.
 Rotational symmetry number  1.
 Warning -- assumption of classical behavior for rotation
           may cause significant error
 Rotational temperatures (Kelvin)      0.10202     0.09770     0.07629
 Rotational constants (GHZ):           2.12580     2.03576     1.58963
 Zero-point vibrational energy     417946.1 (Joules/Mol)
                                   99.89152 (Kcal/Mol)
 Warning -- explicit consideration of  10 degrees of freedom as
           vibrations may cause significant error
 Vibrational temperatures:    256.24   270.96   306.02   319.84   437.01
          (Kelvin)            497.32   560.76   641.50   728.12   824.93
                              901.89   979.40  1067.31  1103.46  1180.05
                             1235.26  1285.48  1307.29  1352.64  1375.26
                             1443.51  1471.79  1474.38  1519.78  1604.49
                             1654.77  1698.21  1731.33  1754.94  1808.88
                             1824.54  1861.35  1889.87  1902.29  1955.42
                             2027.78  2114.93  2123.16  2142.41  2149.80
                             2159.08  4364.26  4371.23  4398.72  4439.09
                             4463.21  4470.88  4477.87  4569.95  4583.99
                             5451.95

 Zero-point correction=                           0.159187 (Hartree/Particle)
 Thermal correction to Energy=                    0.167139
 Thermal correction to Enthalpy=                  0.168083
 Thermal correction to Gibbs Free Energy=         0.127392
 Sum of electronic and zero-point Energies=           -422.997500
 Sum of electronic and thermal Energies=              -422.989549
 Sum of electronic and thermal Enthalpies=            -422.988604
 Sum of electronic and thermal Free Energies=         -423.029296

                     E (Thermal)             CV                S
                      KCal/Mol        Cal/Mol-Kelvin    Cal/Mol-Kelvin
 Total                  104.881             32.005             85.642
 Electronic               0.000              0.000              0.000
 Translational            0.889              2.981             40.409
 Rotational               0.889              2.981             28.237
 Vibrational            103.104             26.043             16.996
 Vibration     1          0.629              1.869              2.348
 Vibration     2          0.633              1.856              2.244
 Vibration     3          0.644              1.822              2.020
 Vibration     4          0.648              1.807              1.940
 Vibration     5          0.695              1.667              1.396
 Vibration     6          0.724              1.584              1.186
 Vibration     7          0.758              1.492              1.001
 Vibration     8          0.805              1.370              0.808
 Vibration     9          0.861              1.237              0.643
 Vibration    10          0.930              1.089              0.498

 Normal termination of Gaussian 09 at Mon Jan 27 17:42:20 2020.
