 Gaussian 09, Revision D.01,
 Gaussian 09:  ES64L-G09RevD.01 24-Apr-2013

 -----------------------------
 # b3lyp 6-31G(2df,p) opt Freq
 -----------------------------

 -----
 titel
 -----
 Symbolic Z-matrix:
 Charge =  0 Multiplicity = 1

 SCF Done:  E(RB3LYP) =  -423.159861210     A.U. after   14 cycles
 Optimization completed.
    -- Stationary point found.
 Normal termination of Gaussian 09 at Mon Jan 27 22:13:31 2020.

 ----------------------------------------------------------------------
 #N Geom=AllCheck Guess=TCheck SCRF=Check GenChk RB3LYP/6-31G(2df,p) Fr
 eq
 ----------------------------------------------------------------------

 Structure from the checkpoint file:  "/scratch/puck/g09_d0cc9c21-cb0a-4b5b-b543-b2dc074bde51/Gau-28687.chk"
 -----
 titel
 -----
 Charge =  0 Multiplicity = 1

                         Standard orientation:
 ---------------------------------------------------------------------
 Center     Atomic      Atomic             Coordinates (Angstroms)
 Number     Number       Type             X           Y           Z
 ---------------------------------------------------------------------
      1          6           0       -1.319868    1.809553   -0.405862
      2          6           0       -0.698861    0.578595    0.185402
      3          6           0        0.524529    0.569058    1.115334
      4          6           0        1.040676   -0.731558    0.433670
      5          6           0        2.323277   -0.576360   -0.346774
      6          8           0        2.957944    0.441846   -0.454700
      7          6           0       -0.201114   -0.718861   -0.481323
      8          6           0       -1.449228   -0.708971    0.371736
      9          8           0       -2.669805   -0.765266   -0.305128
     10          1           0       -2.119853    1.544133   -1.100311
     11          1           0       -1.753425    2.439437    0.380454
     12          1           0       -0.574812    2.409242   -0.939299
     13          1           0        1.212226    1.394751    0.921623
     14          1           0        0.316479    0.508082    2.188226
     15          1           0        1.127040   -1.631174    1.058995
     16          1           0        2.650312   -1.506961   -0.866262
     17          1           0       -0.240247   -1.022409   -1.522210
     18          1           0       -1.442704   -1.210430    1.344791
     19          1           0       -2.796595   -1.666049   -0.620487
 ---------------------------------------------------------------------

 SCF Done:  E(RB3LYP) =  -423.159861210     A.U. after    1 cycles

 The electronic state is 1-A.
 Alpha  occ. eigenvalues --  -19.15193 -19.14178 -10.27152 -10.23996 -10.20365
 Alpha  occ. eigenvalues --  -10.20073 -10.19921 -10.18546 -10.17373  -1.04814
 Alpha  occ. eigenvalues --   -1.03780  -0.89810  -0.75279  -0.71435  -0.67290
 Alpha  occ. eigenvalues --   -0.60627  -0.56140  -0.53206  -0.52081  -0.48536
 Alpha  occ. eigenvalues --   -0.47138  -0.45774  -0.43092  -0.42180  -0.40186
 Alpha  occ. eigenvalues --   -0.38707  -0.38303  -0.37179  -0.34074  -0.32395
 Alpha  occ. eigenvalues --   -0.31421  -0.27387  -0.25494  -0.24623
 Alpha virt. eigenvalues --   -0.02255   0.06994   0.10162   0.10305   0.12084
 Alpha virt. eigenvalues --    0.12547   0.13426   0.14395   0.15183   0.17388
 Alpha virt. eigenvalues --    0.17966   0.18327   0.19366   0.21089   0.22912

 Mulliken charges:
               1
     1  C   -0.501248
     2  C    0.347690
     3  C   -0.318638
     4  C   -0.105261
     5  C    0.140158
     6  O   -0.237257
     7  C   -0.168049
     8  C    0.050307
     9  O   -0.430447
    10  H    0.137524
    11  H    0.119670
    12  H    0.121872
    13  H    0.135293
    14  H    0.095102
    15  H    0.082113
    16  H    0.075771
    17  H    0.089992
    18  H    0.075587
    19  H    0.289820
 Sum of Mulliken charges =   0.00000

 Dipole moment (field-independent basis, Debye):
    X=             -1.2849    Y=             -2.5769    Z=              0.2280  Tot=              2.8885
 Quadrupole moment (field-independent basis, Debye-Ang):
   XX=            -62.6510   YY=            -48.7176   ZZ=            -51.7758
   XY=             -1.1503   XZ=              2.2307   YZ=              1.6943

  Exact polarizability:  87.404   0.320  78.331  -1.000   2.297  65.948
 Approx polarizability: 119.063   6.999 119.768  -2.575   3.788 100.259

                      1                      2                      3
                      A                      A                      A
 Frequencies --     64.6410               122.5334               193.1205
 Red. masses --      6.2053                 3.2132                 1.0445
 Frc consts  --      0.0153                 0.0284                 0.0230
 IR Inten    --      4.5497                 1.7172                 0.5640

                      4                      5                      6
                      A                      A                      A
 Frequencies --    199.7321               241.8946               284.6307
 Red. masses --      3.0052                 3.7169                 2.2238
 Frc consts  --      0.0706                 0.1281                 0.1061
 IR Inten    --      1.3148                 6.8863                 8.5830

                      7                      8                      9
                      A                      A                      A
 Frequencies --    305.9986               319.2770               372.3306
 Red. masses --      1.6377                 2.1851                 2.1123
 Frc consts  --      0.0903                 0.1312                 0.1725
 IR Inten    --     74.9926                24.1213                 7.7275

                     10                     11                     12
                      A                      A                      A
 Frequencies --    375.8342               514.1714               645.3239
 Red. masses --      2.6685                 4.6968                 3.4499
 Frc consts  --      0.2221                 0.7316                 0.8465
 IR Inten    --      5.6744                11.5332                 3.6645

                     13                     14                     15
                      A                      A                      A
 Frequencies --    682.5800               717.6042               817.3184
 Red. masses --      3.0340                 3.1096                 3.1064
 Frc consts  --      0.8329                 0.9435                 1.2226
 IR Inten    --     10.5537                 1.3671                 3.6877

                     16                     17                     18
                      A                      A                      A
 Frequencies --    851.0233               904.6516               924.8183
 Red. masses --      3.4866                 1.7148                 1.3348
 Frc consts  --      1.4878                 0.8268                 0.6726
 IR Inten    --     18.6398                 1.7963                 4.7270

                     19                     20                     21
                      A                      A                      A
 Frequencies --    945.5342               993.2006              1014.7098
 Red. masses --      2.1632                 1.8133                 1.7934
 Frc consts  --      1.1395                 1.0539                 1.0880
 IR Inten    --      3.0905                 9.4545                10.5988

                     22                     23                     24
                      A                      A                      A
 Frequencies --   1044.3640              1077.3714              1083.6865
 Red. masses --      1.6145                 1.7248                 1.6312
 Frc consts  --      1.0375                 1.1795                 1.1287
 IR Inten    --      0.6969                 9.9470                 5.4141

                     25                     26                     27
                      A                      A                      A
 Frequencies --   1120.3092              1148.1544              1169.6533
 Red. masses --      2.0238                 3.0189                 1.5275
 Frc consts  --      1.4966                 2.3448                 1.2312
 IR Inten    --     31.8194                67.2302                 6.4621

                     28                     29                     30
                      A                      A                      A
 Frequencies --   1208.4464              1220.2039              1241.8667
 Red. masses --      1.4806                 1.6442                 1.6012
 Frc consts  --      1.2739                 1.4423                 1.4549
 IR Inten    --      4.4304                 4.1968                 0.4618

                     31                     32                     33
                      A                      A                      A
 Frequencies --   1268.1428              1287.4291              1345.5126
 Red. masses --      1.7917                 1.3847                 1.8796
 Frc consts  --      1.6976                 1.3522                 2.0048
 IR Inten    --      1.4468                87.6111                 8.1353

                     34                     35                     36
                      A                      A                      A
 Frequencies --   1361.3114              1415.4647              1421.8518
 Red. masses --      1.5305                 1.3904                 1.2036
 Frc consts  --      1.6711                 1.6412                 1.4336
 IR Inten    --      9.8309                 2.9113                 7.9848

                     37                     38                     39
                      A                      A                      A
 Frequencies --   1454.1627              1484.6340              1492.7908
 Red. masses --      2.0047                 1.1561                 1.0488
 Frc consts  --      2.4977                 1.5013                 1.3770
 IR Inten    --      3.7597                 1.1596                 4.4490

                     40                     41                     42
                      A                      A                      A
 Frequencies --   1500.2037              1825.7045              2862.4261
 Red. masses --      1.1854                10.3319                 1.0822
 Frc consts  --      1.5718                20.2904                 5.2243
 IR Inten    --      8.5854               153.1209               131.4517

                     43                     44                     45
                      A                      A                      A
 Frequencies --   3009.2286              3028.4286              3041.0122
 Red. masses --      1.0830                 1.0392                 1.0867
 Frc consts  --      5.7781                 5.6154                 5.9208
 IR Inten    --     42.3793                33.2596                37.0688

                     46                     47                     48
                      A                      A                      A
 Frequencies --   3051.0890              3085.8160              3121.8027
 Red. masses --      1.0629                 1.0989                 1.1027
 Frc consts  --      5.8299                 6.1653                 6.3314
 IR Inten    --     48.4233                20.7362                 7.2520

                     49                     50                     51
                      A                      A                      A
 Frequencies --   3128.8541              3168.1109              3808.2938
 Red. masses --      1.0984                 1.0913                 1.0663
 Frc consts  --      6.3357                 6.4536                 9.1119
 IR Inten    --      8.9389                13.6873                26.7548

 - Thermochemistry -
 -------------------
 Temperature   298.150 Kelvin.  Pressure   1.00000 Atm.
 Atom     1 has atomic number  6 and mass  12.00000

 Molecular mass:   126.06808 amu.
 Principal axes and moments of inertia in atomic units:
                           1         2         3
     Eigenvalues --   548.330101642.896841872.75838
           X            0.99976  -0.02032   0.00819
           Y            0.02034   0.99979  -0.00214
           Z           -0.00814   0.00231   0.99996
 This molecule is an asymmetric top.
 Rotational symmetry number  1.
 Warning -- assumption of classical behavior for rotation
           may cause significant error
 Rotational temperatures (Kelvin)      0.15796     0.05272     0.04625
 Rotational constants (GHZ):           3.29134     1.09851     0.96368
 Zero-point vibrational energy     412515.8 (Joules/Mol)
                                   98.59364 (Kcal/Mol)
 Warning -- explicit consideration of  11 degrees of freedom as
           vibrations may cause significant error
 Vibrational temperatures:     93.00   176.30   277.86   287.37   348.03
          (Kelvin)            409.52   440.26   459.37   535.70   540.74
                              739.78   928.48   982.08  1032.47  1175.94
                             1224.43  1301.59  1330.61  1360.41  1428.99
                             1459.94  1502.60  1550.10  1559.18  1611.87
                             1651.94  1682.87  1738.68  1755.60  1786.77
                             1824.57  1852.32  1935.89  1958.62  2036.54
                             2045.73  2092.21  2136.05  2147.79  2158.46
                             2626.78  4118.39  4329.60  4357.23  4375.33
                             4389.83  4439.80  4491.57  4501.72  4558.20
                             5479.28

 Zero-point correction=                           0.157119 (Hartree/Particle)
 Thermal correction to Energy=                    0.166206
 Thermal correction to Enthalpy=                  0.167150
 Thermal correction to Gibbs Free Energy=         0.123268
 Sum of electronic and zero-point Energies=           -423.002742
 Sum of electronic and thermal Energies=              -422.993655
 Sum of electronic and thermal Enthalpies=            -422.992711
 Sum of electronic and thermal Free Energies=         -423.036593

                     E (Thermal)             CV                S
                      KCal/Mol        Cal/Mol-Kelvin    Cal/Mol-Kelvin
 Total                  104.296             33.870             92.358
 Electronic               0.000              0.000              0.000
 Translational            0.889              2.981             40.409
 Rotational               0.889              2.981             28.913
 Vibrational            102.518             27.908             23.036
 Vibration     1          0.597              1.971              4.310
 Vibration     2          0.610              1.930              3.060
 Vibration     3          0.635              1.849              2.198
 Vibration     4          0.638              1.840              2.136
 Vibration     5          0.658              1.776              1.789
 Vibration     6          0.683              1.702              1.506
 Vibration     7          0.696              1.662              1.384
 Vibration     8          0.705              1.637              1.314
 Vibration     9          0.744              1.529              1.070
 Vibration    10          0.747              1.522              1.056
 Vibration    11          0.869              1.219              0.624

 Optimization completed.
    -- Stationary point found.
 Normal termination of Gaussian 09 at Tue Jan 28 00:25:35 2020.
