 Gaussian 09, Revision D.01,
 Gaussian 09:  ES64L-G09RevD.01 24-Apr-2013

 -----------------------------
 # b3lyp 6-31G(2df,p) opt Freq
 -----------------------------

 -----
 titel
 -----
 Symbolic Z-matrix:
 Charge =  0 Multiplicity = 1

 SCF Done:  E(RB3LYP) =  -423.151474678     A.U. after   14 cycles
 Optimization completed.
    -- Stationary point found.
 Normal termination of Gaussian 09 at Mon Jan 27 12:10:34 2020.

 ----------------------------------------------------------------------
 #N Geom=AllCheck Guess=TCheck SCRF=Check GenChk RB3LYP/6-31G(2df,p) Fr
 eq
 ----------------------------------------------------------------------

 Structure from the checkpoint file:  "/scratch/puck/g09_93a5bd49-9dff-4477-bad7-b44d9fdd095f/Gau-49014.chk"
 -----
 titel
 -----
 Charge =  0 Multiplicity = 1

                         Standard orientation:
 ---------------------------------------------------------------------
 Center     Atomic      Atomic             Coordinates (Angstroms)
 Number     Number       Type             X           Y           Z
 ---------------------------------------------------------------------
      1          6           0        2.264506   -0.694350    0.699880
      2          8           0        2.372044    0.594784    0.090588
      3          6           0        1.487559   -0.358433   -0.502819
      4          6           0        0.030316   -0.042188   -0.453345
      5          6           0       -0.476881    1.305843   -0.906933
      6          6           0       -0.574813    0.914963    0.546995
      7          6           0       -1.883835    0.280349    0.975384
      8          8           0       -2.198253   -0.670686   -0.040979
      9          6           0       -0.978065   -1.179101   -0.567865
     10          1           0        3.149055   -1.323858    0.616954
     11          1           0        1.766724   -0.709718    1.668009
     12          1           0        1.848651   -0.750948   -1.455949
     13          1           0        0.274214    2.045855   -1.159077
     14          1           0       -1.388376    1.344144   -1.495356
     15          1           0        0.043771    1.424907    1.275133
     16          1           0       -1.768423   -0.208089    1.957015
     17          1           0       -2.726739    0.976825    1.034909
     18          1           0       -0.622342   -2.050324    0.008076
     19          1           0       -1.179576   -1.504081   -1.594364
 ---------------------------------------------------------------------

 SCF Done:  E(RB3LYP) =  -423.151474678     A.U. after    1 cycles

 The electronic state is 1-A.
 Alpha  occ. eigenvalues --  -19.15607 -19.13952 -10.24454 -10.23722 -10.23131
 Alpha  occ. eigenvalues --  -10.22913 -10.20110 -10.19309 -10.18555  -1.07540
 Alpha  occ. eigenvalues --   -1.03810  -0.86455  -0.74446  -0.68651  -0.65212
 Alpha  occ. eigenvalues --   -0.64661  -0.57685  -0.55485  -0.52839  -0.49469
 Alpha  occ. eigenvalues --   -0.47677  -0.46294  -0.44989  -0.42244  -0.39868
 Alpha  occ. eigenvalues --   -0.39813  -0.38613  -0.36416  -0.33447  -0.32047
 Alpha  occ. eigenvalues --   -0.28717  -0.27503  -0.27257  -0.25315
 Alpha virt. eigenvalues --    0.09190   0.09292   0.09703   0.10516   0.11926
 Alpha virt. eigenvalues --    0.12844   0.14148   0.14868   0.15291   0.16177
 Alpha virt. eigenvalues --    0.16952   0.17483   0.19677   0.19863   0.20346

 Mulliken charges:
               1
     1  C   -0.178917
     2  O   -0.232950
     3  C   -0.041517
     4  C    0.313421
     5  C   -0.330920
     6  C   -0.106830
     7  C   -0.095403
     8  O   -0.256030
     9  C   -0.144719
    10  H    0.117826
    11  H    0.114351
    12  H    0.093322
    13  H    0.125286
    14  H    0.120809
    15  H    0.104197
    16  H    0.090262
    17  H    0.111157
    18  H    0.088264
    19  H    0.108391
 Sum of Mulliken charges =   0.00000

 Dipole moment (field-independent basis, Debye):
    X=              0.5502    Y=             -0.9023    Z=              0.3818  Tot=              1.1237
 Quadrupole moment (field-independent basis, Debye-Ang):
   XX=            -59.1892   YY=            -52.8563   ZZ=            -49.9544
   XY=             -6.0605   XZ=             -0.5585   YZ=              0.3347

  Exact polarizability:  80.061  -5.982  70.347   0.253  -0.754  72.491
 Approx polarizability: 107.052  -4.960 107.364   2.043  -0.107 110.818

                      1                      2                      3
                      A                      A                      A
 Frequencies --     72.7420               146.2901               185.7296
 Red. masses --      3.8009                 2.9091                 4.5364
 Frc consts  --      0.0118                 0.0367                 0.0922
 IR Inten    --      3.4265                 0.1455                 5.9821

                      4                      5                      6
                      A                      A                      A
 Frequencies --    244.9207               284.0896               380.3884
 Red. masses --      2.5758                 2.4815                 2.1832
 Frc consts  --      0.0910                 0.1180                 0.1861
 IR Inten    --      6.8180                 0.1497                 0.3742

                      7                      8                      9
                      A                      A                      A
 Frequencies --    439.6478               487.8609               589.3128
 Red. masses --      4.2671                 2.7062                 2.9741
 Frc consts  --      0.4860                 0.3795                 0.6085
 IR Inten    --      1.6500                 3.3873                 6.6389

                     10                     11                     12
                      A                      A                      A
 Frequencies --    690.9965               728.6120               828.7035
 Red. masses --      3.1634                 3.7373                 2.3392
 Frc consts  --      0.8899                 1.1690                 0.9465
 IR Inten    --      3.1396                 8.3601                 3.8860

                     13                     14                     15
                      A                      A                      A
 Frequencies --    866.1125               885.2013               918.1269
 Red. masses --      4.2338                 2.2907                 2.7523
 Frc consts  --      1.8712                 1.0576                 1.3669
 IR Inten    --      7.6915                13.3708                36.8716

                     16                     17                     18
                      A                      A                      A
 Frequencies --    932.6194               942.2674               949.7851
 Red. masses --      2.3337                 2.1132                 1.7640
 Frc consts  --      1.1959                 1.1054                 0.9376
 IR Inten    --      8.0362                 9.1580                 9.0003

                     19                     20                     21
                      A                      A                      A
 Frequencies --    991.4843              1036.9719              1072.3427
 Red. masses --      1.9291                 1.6240                 1.2901
 Frc consts  --      1.1173                 1.0289                 0.8741
 IR Inten    --      3.4296                22.5228                 2.7584

                     22                     23                     24
                      A                      A                      A
 Frequencies --   1087.9412              1098.2173              1105.7466
 Red. masses --      1.9254                 1.8028                 1.5901
 Frc consts  --      1.3427                 1.2811                 1.1455
 IR Inten    --     10.3382                 9.2336                12.6521

                     25                     26                     27
                      A                      A                      A
 Frequencies --   1114.2979              1128.7206              1154.4838
 Red. masses --      1.9830                 2.0647                 1.4020
 Frc consts  --      1.4507                 1.5498                 1.1010
 IR Inten    --      8.0969                27.8611                 0.3957

                     28                     29                     30
                      A                      A                      A
 Frequencies --   1173.0170              1219.7027              1247.1130
 Red. masses --      1.3601                 1.1261                 1.5612
 Frc consts  --      1.1026                 0.9871                 1.4306
 IR Inten    --      0.6441                 9.7842                 3.8905

                     31                     32                     33
                      A                      A                      A
 Frequencies --   1255.5334              1270.3397              1300.5837
 Red. masses --      1.7683                 1.8268                 1.6772
 Frc consts  --      1.6424                 1.7370                 1.6715
 IR Inten    --      5.8579                 8.5506                 1.9348

                     34                     35                     36
                      A                      A                      A
 Frequencies --   1351.7339              1362.8838              1409.7329
 Red. masses --      1.6879                 1.5184                 1.3050
 Frc consts  --      1.8171                 1.6617                 1.5280
 IR Inten    --      4.4058                13.3330                 0.2395

                     37                     38                     39
                      A                      A                      A
 Frequencies --   1446.4591              1484.9094              1510.7437
 Red. masses --      1.7733                 1.7589                 1.0860
 Frc consts  --      2.1860                 2.2850                 1.4604
 IR Inten    --     15.7820                 4.2422                 0.6741

                     40                     41                     42
                      A                      A                      A
 Frequencies --   1522.1132              1524.1674              2959.6932
 Red. masses --      1.1142                 1.3321                 1.0699
 Frc consts  --      1.5209                 1.8232                 5.5221
 IR Inten    --      0.7451                 3.7594                66.9680

                     43                     44                     45
                      A                      A                      A
 Frequencies --   2971.0992              3062.6557              3069.0259
 Red. masses --      1.0712                 1.0913                 1.0927
 Frc consts  --      5.5714                 6.0312                 6.0640
 IR Inten    --     82.2045                31.4778                37.6853

                     46                     47                     48
                      A                      A                      A
 Frequencies --   3082.4152              3088.0910              3128.6298
 Red. masses --      1.0768                 1.0597                 1.0539
 Frc consts  --      6.0278                 5.9539                 6.0778
 IR Inten    --     37.3069                24.6359                10.1281

                     49                     50                     51
                      A                      A                      A
 Frequencies --   3175.7928              3195.2676              3223.4343
 Red. masses --      1.1198                 1.0917                 1.1161
 Frc consts  --      6.6543                 6.5670                 6.8326
 IR Inten    --     25.9573                 4.0742                 4.6194

 - Thermochemistry -
 -------------------
 Temperature   298.150 Kelvin.  Pressure   1.00000 Atm.
 Atom     1 has atomic number  6 and mass  12.00000

 Molecular mass:   126.06808 amu.
 Principal axes and moments of inertia in atomic units:
                           1         2         3
     Eigenvalues --   517.555441448.888221549.76901
           X            0.99961  -0.02773  -0.00094
           Y            0.02771   0.99947  -0.01689
           Z            0.00141   0.01686   0.99986
 This molecule is an asymmetric top.
 Rotational symmetry number  1.
 Warning -- assumption of classical behavior for rotation
           may cause significant error
 Rotational temperatures (Kelvin)      0.16735     0.05978     0.05589
 Rotational constants (GHZ):           3.48705     1.24560     1.16452
 Zero-point vibrational energy     421078.0 (Joules/Mol)
                                  100.64007 (Kcal/Mol)
 Warning -- explicit consideration of   9 degrees of freedom as
           vibrations may cause significant error
 Vibrational temperatures:    104.66   210.48   267.22   352.39   408.74
          (Kelvin)            547.29   632.55   701.92   847.89   994.19
                             1048.31  1192.32  1246.14  1273.61  1320.98
                             1341.83  1355.71  1366.53  1426.52  1491.97
                             1542.86  1565.30  1580.09  1590.92  1603.22
                             1623.98  1661.04  1687.71  1754.88  1794.32
                             1806.43  1827.73  1871.25  1944.84  1960.88
                             2028.29  2081.13  2136.45  2173.62  2189.98
                             2192.93  4258.33  4274.74  4406.47  4415.64
                             4434.90  4443.07  4501.39  4569.25  4597.27
                             4637.80

 Zero-point correction=                           0.160380 (Hartree/Particle)
 Thermal correction to Energy=                    0.168139
 Thermal correction to Enthalpy=                  0.169083
 Thermal correction to Gibbs Free Energy=         0.127834
 Sum of electronic and zero-point Energies=           -422.991095
 Sum of electronic and thermal Energies=              -422.983335
 Sum of electronic and thermal Enthalpies=            -422.982391
 Sum of electronic and thermal Free Energies=         -423.023641

                     E (Thermal)             CV                S
                      KCal/Mol        Cal/Mol-Kelvin    Cal/Mol-Kelvin
 Total                  105.509             29.944             86.817
 Electronic               0.000              0.000              0.000
 Translational            0.889              2.981             40.409
 Rotational               0.889              2.981             28.543
 Vibrational            103.732             23.982             17.865
 Vibration     1          0.599              1.967              4.078
 Vibration     2          0.617              1.907              2.720
 Vibration     3          0.632              1.859              2.270
 Vibration     4          0.660              1.771              1.767
 Vibration     5          0.682              1.703              1.509
 Vibration     6          0.750              1.512              1.038
 Vibration     7          0.800              1.384              0.828
 Vibration     8          0.844              1.277              0.689
 Vibration     9          0.947              1.055              0.468

 Optimization completed.
    -- Stationary point found.
 Normal termination of Gaussian 09 at Mon Jan 27 12:52:21 2020.
