 Gaussian 09, Revision D.01,
 Gaussian 09:  ES64L-G09RevD.01 24-Apr-2013

 -----------------------------
 # b3lyp 6-31G(2df,p) opt Freq
 -----------------------------

 -----
 titel
 -----
 Symbolic Z-matrix:
 Charge =  0 Multiplicity = 1

 SCF Done:  E(RB3LYP) =  -423.230226827     A.U. after   14 cycles
 SCF Done:  E(RB3LYP) =  -423.230221726     A.U. after    8 cycles
 SCF Done:  E(RB3LYP) =  -423.230227695     A.U. after    7 cycles
 Optimization completed.
    -- Stationary point found.
 Normal termination of Gaussian 09 at Mon Jan 27 17:22:07 2020.

 ----------------------------------------------------------------------
 #N Geom=AllCheck Guess=TCheck SCRF=Check GenChk RB3LYP/6-31G(2df,p) Fr
 eq
 ----------------------------------------------------------------------

 Structure from the checkpoint file:  "/scratch/puck/g09_1acbe440-cd3b-41c7-b413-9166700f77a5/Gau-59928.chk"
 -----
 titel
 -----
 Charge =  0 Multiplicity = 1

                         Standard orientation:
 ---------------------------------------------------------------------
 Center     Atomic      Atomic             Coordinates (Angstroms)
 Number     Number       Type             X           Y           Z
 ---------------------------------------------------------------------
      1          6           0       -2.175704   -1.242727    0.000012
      2          6           0       -1.006950   -0.289236   -0.000018
      3          6           0       -0.859415    0.820511    1.073157
      4          6           0       -0.036093    1.589028    0.000029
      5          6           0       -0.859430    0.820580   -1.073136
      6          6           0        1.388149    1.035841    0.000009
      7          6           0        1.404729   -0.494619   -0.000104
      8          8           0        2.408595   -1.151207    0.000053
      9          8           0        0.193045   -1.109063   -0.000051
     10          1           0       -2.147786   -1.884227    0.885935
     11          1           0       -3.117379   -0.686825   -0.000349
     12          1           0       -2.147397   -1.884749   -0.885518
     13          1           0       -1.819490    1.299851    1.278929
     14          1           0       -0.371815    0.546494    2.012747
     15          1           0       -0.060229    2.680016    0.000061
     16          1           0       -1.819499    1.299949   -1.278863
     17          1           0       -0.371841    0.546626   -2.012749
     18          1           0        1.955322    1.364435   -0.877779
     19          1           0        1.955282    1.364324    0.877866
 ---------------------------------------------------------------------

 SCF Done:  E(RB3LYP) =  -423.230227695     A.U. after    1 cycles

 The electronic state is 1-A.
 Alpha  occ. eigenvalues --  -19.17323 -19.11268 -10.30014 -10.25869 -10.20848
 Alpha  occ. eigenvalues --  -10.20140 -10.19543 -10.19543 -10.18566  -1.09076
 Alpha  occ. eigenvalues --   -1.01126  -0.86733  -0.77924  -0.71704  -0.68095
 Alpha  occ. eigenvalues --   -0.62369  -0.60541  -0.53439  -0.49415  -0.47309
 Alpha  occ. eigenvalues --   -0.46773  -0.44981  -0.44514  -0.42666  -0.39912
 Alpha  occ. eigenvalues --   -0.39716  -0.39355  -0.38379  -0.34747  -0.33784
 Alpha  occ. eigenvalues --   -0.32839  -0.30524  -0.27960  -0.25717
 Alpha virt. eigenvalues --    0.01398   0.07296   0.09309   0.09779   0.13156
 Alpha virt. eigenvalues --    0.14422   0.14687   0.15254   0.15445   0.16036
 Alpha virt. eigenvalues --    0.17083   0.18166   0.19018   0.20993   0.21453

 Mulliken charges:
               1
     1  C   -0.466314
     2  C    0.421292
     3  C   -0.267808
     4  C   -0.039143
     5  C   -0.267814
     6  C   -0.347118
     7  C    0.405448
     8  O   -0.332925
     9  O   -0.267367
    10  H    0.133529
    11  H    0.116726
    12  H    0.133537
    13  H    0.107112
    14  H    0.107697
    15  H    0.074057
    16  H    0.107112
    17  H    0.107694
    18  H    0.137137
    19  H    0.137147
 Sum of Mulliken charges =   0.00000

 Dipole moment (field-independent basis, Debye):
    X=             -3.1751    Y=              3.0497    Z=             -0.0001  Tot=              4.4025
 Quadrupole moment (field-independent basis, Debye-Ang):
   XX=            -57.7285   YY=            -55.4494   ZZ=            -51.2598
   XY=              5.7562   XZ=             -0.0004   YZ=              0.0002

  Exact polarizability:  86.921   0.026  73.648   0.000  -0.001  65.068
 Approx polarizability: 123.178  -5.825 106.708   0.001  -0.001  98.683

                      1                      2                      3
                      A                      A                      A
 Frequencies --    108.5601               216.4821               226.6679
 Red. masses --      4.2428                 1.1498                 2.1965
 Frc consts  --      0.0295                 0.0317                 0.0665
 IR Inten    --      1.5080                 0.2715                 1.9820

                      4                      5                      6
                      A                      A                      A
 Frequencies --    273.2448               366.0969               412.6295
 Red. masses --      2.7829                 1.9274                 2.3227
 Frc consts  --      0.1224                 0.1522                 0.2330
 IR Inten    --      1.0716                 0.6106                 1.0745

                      7                      8                      9
                      A                      A                      A
 Frequencies --    448.3475               457.1808               487.8614
 Red. masses --      4.9762                 2.5929                 4.8103
 Frc consts  --      0.5894                 0.3193                 0.6746
 IR Inten    --      0.7818                 0.4131                 4.7882

                     10                     11                     12
                      A                      A                      A
 Frequencies --    578.4961               604.9287               650.0994
 Red. masses --      2.7496                 3.1516                 3.9731
 Frc consts  --      0.5421                 0.6795                 0.9893
 IR Inten    --      5.0764                 5.4494                 0.9200

                     13                     14                     15
                      A                      A                      A
 Frequencies --    798.3852               827.6280               869.7278
 Red. masses --      3.5833                 1.7277                 2.5294
 Frc consts  --      1.3457                 0.6973                 1.1273
 IR Inten    --      1.0185                 0.9850                 0.5752

                     16                     17                     18
                      A                      A                      A
 Frequencies --    872.6770               910.5447               915.7521
 Red. masses --      2.3346                 3.8996                 1.5965
 Frc consts  --      1.0475                 1.9049                 0.7888
 IR Inten    --      8.4469                 6.6917                 0.4754

                     19                     20                     21
                      A                      A                      A
 Frequencies --    976.9054              1002.8042              1012.2213
 Red. masses --      4.1384                 1.5947                 1.5726
 Frc consts  --      2.3269                 0.9448                 0.9493
 IR Inten    --     61.4081                 6.6244                 4.1645

                     22                     23                     24
                      A                      A                      A
 Frequencies --   1028.8037              1080.0749              1082.2435
 Red. masses --      1.9945                 1.4219                 1.2292
 Frc consts  --      1.2438                 0.9773                 0.8483
 IR Inten    --      0.5465                80.1651                 0.7936

                     25                     26                     27
                      A                      A                      A
 Frequencies --   1140.0236              1192.1130              1198.6557
 Red. masses --      1.5592                 2.4164                 1.6515
 Frc consts  --      1.1939                 2.0233                 1.3980
 IR Inten    --      3.7616               118.1212                 3.8828

                     28                     29                     30
                      A                      A                      A
 Frequencies --   1223.6223              1230.0595              1254.8520
 Red. masses --      1.3043                 1.8568                 3.4824
 Frc consts  --      1.1506                 1.6552                 3.2308
 IR Inten    --      0.1583                62.3659                36.1339

                     31                     32                     33
                      A                      A                      A
 Frequencies --   1284.7899              1321.0746              1334.4401
 Red. masses --      1.6168                 2.2621                 2.2223
 Frc consts  --      1.5724                 2.3260                 2.3316
 IR Inten    --      0.7373                31.5210                39.4661

                     34                     35                     36
                      A                      A                      A
 Frequencies --   1363.3993              1416.3531              1458.6155
 Red. masses --      1.5797                 1.3891                 1.0842
 Frc consts  --      1.7301                 1.6418                 1.3590
 IR Inten    --     26.3780                16.1404                 3.2370

                     37                     38                     39
                      A                      A                      A
 Frequencies --   1471.1858              1481.6982              1492.4009
 Red. masses --      1.0934                 1.0492                 1.0579
 Frc consts  --      1.3943                 1.3572                 1.3883
 IR Inten    --      4.4453                 3.0378                 2.4188

                     40                     41                     42
                      A                      A                      A
 Frequencies --   1501.3837              1854.0910              3042.3470
 Red. masses --      1.1306                12.8599                 1.0352
 Frc consts  --      1.5015                26.0465                 5.6451
 IR Inten    --      2.7924               357.4881                12.7716

                     43                     44                     45
                      A                      A                      A
 Frequencies --   3048.4618              3056.5911              3062.1592
 Red. masses --      1.0605                 1.0569                 1.0591
 Frc consts  --      5.8066                 5.8180                 5.8512
 IR Inten    --     13.1873                39.7385                 6.2048

                     46                     47                     48
                      A                      A                      A
 Frequencies --   3086.8295              3093.4509              3115.7102
 Red. masses --      1.1020                 1.0890                 1.1017
 Frc consts  --      6.1864                 6.1399                 6.3015
 IR Inten    --      7.7189                39.4344                11.9279

                     49                     50                     51
                      A                      A                      A
 Frequencies --   3118.6311              3118.7681              3124.6494
 Red. masses --      1.1093                 1.1050                 1.1043
 Frc consts  --      6.3568                 6.3324                 6.3524
 IR Inten    --      7.6608                 3.8826                48.7300

 - Thermochemistry -
 -------------------
 Temperature   298.150 Kelvin.  Pressure   1.00000 Atm.
 Atom     1 has atomic number  6 and mass  12.00000

 Molecular mass:   126.06808 amu.
 Principal axes and moments of inertia in atomic units:
                           1         2         3
     Eigenvalues --   666.131011082.910451447.38362
           X            0.99638   0.08505   0.00000
           Y           -0.08505   0.99638   0.00000
           Z            0.00000   0.00000   1.00000
 This molecule is an asymmetric top.
 Rotational symmetry number  1.
 Warning -- assumption of classical behavior for rotation
           may cause significant error
 Rotational temperatures (Kelvin)      0.13003     0.07998     0.05984
 Rotational constants (GHZ):           2.70929     1.66657     1.24690
 Zero-point vibrational energy     420455.8 (Joules/Mol)
                                  100.49135 (Kcal/Mol)
 Warning -- explicit consideration of  11 degrees of freedom as
           vibrations may cause significant error
 Vibrational temperatures:    156.19   311.47   326.12   393.14   526.73
          (Kelvin)            593.68   645.07   657.78   701.92   832.33
                              870.36   935.35  1148.70  1190.77  1251.34
                             1255.59  1310.07  1317.56  1405.55  1442.81
                             1456.36  1480.22  1553.98  1557.11  1640.24
                             1715.18  1724.60  1760.52  1769.78  1805.45
                             1848.52  1900.73  1919.96  1961.63  2037.81
                             2098.62  2116.71  2131.83  2147.23  2160.15
                             2667.62  4377.25  4386.05  4397.75  4405.76
                             4441.25  4450.78  4482.81  4487.01  4487.21
                             4495.67

 Zero-point correction=                           0.160143 (Hartree/Particle)
 Thermal correction to Energy=                    0.167811
 Thermal correction to Enthalpy=                  0.168755
 Thermal correction to Gibbs Free Energy=         0.128327
 Sum of electronic and zero-point Energies=           -423.070085
 Sum of electronic and thermal Energies=              -423.062417
 Sum of electronic and thermal Enthalpies=            -423.061473
 Sum of electronic and thermal Free Energies=         -423.101901

                     E (Thermal)             CV                S
                      KCal/Mol        Cal/Mol-Kelvin    Cal/Mol-Kelvin
 Total                  105.303             30.907             85.088
 Electronic               0.000              0.000              0.000
 Translational            0.889              2.981             40.409
 Rotational               0.889              2.981             28.436
 Vibrational            103.526             24.946             16.243
 Vibration     1          0.606              1.942              3.295
 Vibration     2          0.645              1.816              1.988
 Vibration     3          0.650              1.800              1.905
 Vibration     4          0.676              1.723              1.576
 Vibration     5          0.739              1.542              1.096
 Vibration     6          0.776              1.443              0.917
 Vibration     7          0.807              1.365              0.801
 Vibration     8          0.815              1.345              0.774
 Vibration     9          0.844              1.277              0.689
 Vibration    10          0.935              1.078              0.488
 Vibration    11          0.963              1.021              0.441

 Optimization completed.
    -- Stationary point found.
 Normal termination of Gaussian 09 at Mon Jan 27 18:06:45 2020.
