 Gaussian 09, Revision D.01,
 Gaussian 09:  ES64L-G09RevD.01 24-Apr-2013

 -----------------------------
 # b3lyp 6-31G(2df,p) opt Freq
 -----------------------------

 -----
 titel
 -----
 Symbolic Z-matrix:
 Charge =  0 Multiplicity = 1

 SCF Done:  E(RB3LYP) =  -423.105297718     A.U. after   14 cycles
 Optimization completed.
    -- Stationary point found.
 Normal termination of Gaussian 09 at Tue Jan 28 09:37:24 2020.

 ----------------------------------------------------------------------
 #N Geom=AllCheck Guess=TCheck SCRF=Check GenChk RB3LYP/6-31G(2df,p) Fr
 eq
 ----------------------------------------------------------------------

 Structure from the checkpoint file:  "/scratch/puck/g09_a085194a-8609-4160-b1ee-bceee5ef59d3/Gau-132158.chk"
 -----
 titel
 -----
 Charge =  0 Multiplicity = 1

                         Standard orientation:
 ---------------------------------------------------------------------
 Center     Atomic      Atomic             Coordinates (Angstroms)
 Number     Number       Type             X           Y           Z
 ---------------------------------------------------------------------
      1          6           0       -0.735502    2.085566   -0.296740
      2          6           0       -0.785677    0.625819    0.048205
      3          6           0       -1.777545   -0.009132    0.984672
      4          6           0       -1.720535   -0.474108   -0.450379
      5          6           0       -0.480709   -1.385343   -0.695854
      6          8           0        0.235532   -1.563352    0.536775
      7          6           0        0.425033   -0.344819   -0.218980
      8          6           0        1.831417    0.031398   -0.551908
      9          8           0        2.510031    0.579345    0.568955
     10          1           0       -1.731142    2.535658   -0.232045
     11          1           0       -0.073423    2.628669    0.387335
     12          1           0       -0.364805    2.250215   -1.315549
     13          1           0       -1.455320   -0.664637    1.783582
     14          1           0       -2.634255    0.616407    1.217295
     15          1           0       -2.551694   -0.393584   -1.138777
     16          1           0       -0.364367   -2.150724   -1.454549
     17          1           0        2.348680   -0.852666   -0.953528
     18          1           0        1.845208    0.809671   -1.321702
     19          1           0        2.477722   -0.083243    1.268006
 ---------------------------------------------------------------------

 SCF Done:  E(RB3LYP) =  -423.105297718     A.U. after    1 cycles

 The electronic state is 1-A.
 Alpha  occ. eigenvalues --  -19.15412 -19.13814 -10.24036 -10.23800 -10.23549
 Alpha  occ. eigenvalues --  -10.20051 -10.19281 -10.18541 -10.18202  -1.07915
 Alpha  occ. eigenvalues --   -1.01818  -0.87183  -0.73524  -0.71674  -0.67764
 Alpha  occ. eigenvalues --   -0.61680  -0.56613  -0.53956  -0.50774  -0.49219
 Alpha  occ. eigenvalues --   -0.47836  -0.44860  -0.43444  -0.41260  -0.40195
 Alpha  occ. eigenvalues --   -0.39651  -0.37850  -0.35556  -0.33597  -0.32872
 Alpha  occ. eigenvalues --   -0.29787  -0.27413  -0.26193  -0.22762
 Alpha virt. eigenvalues --    0.05762   0.08057   0.09947   0.10841   0.12089
 Alpha virt. eigenvalues --    0.13007   0.14233   0.15229   0.15538   0.16218
 Alpha virt. eigenvalues --    0.17508   0.18163   0.19199   0.21157   0.22810

 Mulliken charges:
               1
     1  C   -0.499647
     2  C    0.284962
     3  C   -0.333684
     4  C   -0.148486
     5  C   -0.072045
     6  O   -0.294287
     7  C    0.349536
     8  C   -0.188716
     9  O   -0.415667
    10  H    0.118845
    11  H    0.135540
    12  H    0.115769
    13  H    0.131071
    14  H    0.108718
    15  H    0.091618
    16  H    0.107160
    17  H    0.100189
    18  H    0.115419
    19  H    0.293706
 Sum of Mulliken charges =   0.00000

 Dipole moment (field-independent basis, Debye):
    X=             -0.9976    Y=              0.0147    Z=             -1.2908  Tot=              1.6314
 Quadrupole moment (field-independent basis, Debye-Ang):
   XX=            -54.0735   YY=            -54.7732   ZZ=            -50.4815
   XY=             -3.6101   XZ=              0.3689   YZ=              1.2325

  Exact polarizability:  80.518   0.635  76.120  -1.351   2.382  67.111
 Approx polarizability: 110.886   4.788 113.061   3.055   2.040 106.369

                      1                      2                      3
                      A                      A                      A
 Frequencies --     59.2351               121.5816               190.6077
 Red. masses --      3.7793                 3.6578                 1.1901
 Frc consts  --      0.0078                 0.0319                 0.0255
 IR Inten    --      3.8294                 0.1141                 0.1365

                      4                      5                      6
                      A                      A                      A
 Frequencies --    215.9395               234.8353               350.4553
 Red. masses --      2.3755                 2.2770                 1.8185
 Frc consts  --      0.0653                 0.0740                 0.1316
 IR Inten    --      1.3379                 1.8542                41.6865

                      7                      8                      9
                      A                      A                      A
 Frequencies --    373.7513               419.3126               441.5873
 Red. masses --      2.2396                 1.7766                 3.0907
 Frc consts  --      0.1843                 0.1840                 0.3551
 IR Inten    --     20.4174                68.4547                 1.1434

                     10                     11                     12
                      A                      A                      A
 Frequencies --    451.1707               564.4967               625.7861
 Red. masses --      3.4382                 3.4648                 3.3883
 Frc consts  --      0.4123                 0.6505                 0.7818
 IR Inten    --      3.8362                 6.6364                 6.9614

                     13                     14                     15
                      A                      A                      A
 Frequencies --    695.1218               763.2523               780.1917
 Red. masses --      3.8918                 3.9426                 3.0422
 Frc consts  --      1.1079                 1.3532                 1.0910
 IR Inten    --     12.6964                 7.6371                10.8630

                     16                     17                     18
                      A                      A                      A
 Frequencies --    852.4664               873.6344               907.8400
 Red. masses --      2.4278                 2.8284                 1.7579
 Frc consts  --      1.0395                 1.2719                 0.8536
 IR Inten    --      9.1514                 1.0957                10.0578

                     19                     20                     21
                      A                      A                      A
 Frequencies --    950.2274               959.0768               979.1896
 Red. masses --      2.1475                 1.5879                 1.6295
 Frc consts  --      1.1425                 0.8605                 0.9205
 IR Inten    --     34.9173                12.4852                 1.9722

                     22                     23                     24
                      A                      A                      A
 Frequencies --   1006.5743              1009.3355              1070.3425
 Red. masses --      1.8710                 1.4909                 4.2892
 Frc consts  --      1.1169                 0.8949                 2.8951
 IR Inten    --     21.7215                 3.3772                64.9098

                     25                     26                     27
                      A                      A                      A
 Frequencies --   1075.7270              1098.8261              1116.5213
 Red. masses --      1.6694                 1.4438                 1.7511
 Frc consts  --      1.1382                 1.0271                 1.2861
 IR Inten    --      6.2664                 6.4753                 8.1889

                     28                     29                     30
                      A                      A                      A
 Frequencies --   1142.3754              1212.6869              1231.9406
 Red. masses --      2.1578                 1.3113                 1.5894
 Frc consts  --      1.6591                 1.1361                 1.4212
 IR Inten    --      2.3586                15.1832                 3.3413

                     31                     32                     33
                      A                      A                      A
 Frequencies --   1251.9693              1287.6640              1363.2742
 Red. masses --      1.6160                 2.4824                 1.3030
 Frc consts  --      1.4923                 2.4251                 1.4268
 IR Inten    --      6.4619                12.5470                 0.7472

                     34                     35                     36
                      A                      A                      A
 Frequencies --   1368.1966              1414.0362              1421.5385
 Red. masses --      2.2388                 1.3559                 1.3157
 Frc consts  --      2.4693                 1.5974                 1.5665
 IR Inten    --      3.4682                16.0397                29.5889

                     37                     38                     39
                      A                      A                      A
 Frequencies --   1460.7441              1479.2904              1482.7163
 Red. masses --      1.9855                 1.1386                 1.4122
 Frc consts  --      2.4961                 1.4681                 1.8292
 IR Inten    --     14.7688                 7.9082                 8.5105

                     40                     41                     42
                      A                      A                      A
 Frequencies --   1489.2409              1501.3347              2997.4082
 Red. masses --      1.3250                 1.1102                 1.0679
 Frc consts  --      1.7314                 1.4743                 5.6530
 IR Inten    --      5.0138                 2.2654                46.2689

                     43                     44                     45
                      A                      A                      A
 Frequencies --   3021.4982              3077.3045              3081.2569
 Red. masses --      1.0361                 1.0979                 1.0966
 Frc consts  --      5.5731                 6.1257                 6.1340
 IR Inten    --     30.5735                16.4995                28.8808

                     46                     47                     48
                      A                      A                      A
 Frequencies --   3099.8328              3136.1357              3181.3853
 Red. masses --      1.1003                 1.0550                 1.0931
 Frc consts  --      6.2295                 6.1136                 6.5184
 IR Inten    --     17.9005                17.5743                15.9110

                     49                     50                     51
                      A                      A                      A
 Frequencies --   3199.8245              3229.8876              3806.0444
 Red. masses --      1.0947                 1.1135                 1.0661
 Frc consts  --      6.6040                 6.8443                 9.0987
 IR Inten    --     13.1426                 3.5290                23.1245

 - Thermochemistry -
 -------------------
 Temperature   298.150 Kelvin.  Pressure   1.00000 Atm.
 Atom     1 has atomic number  6 and mass  12.00000

 Molecular mass:   126.06808 amu.
 Principal axes and moments of inertia in atomic units:
                           1         2         3
     Eigenvalues --   725.018871135.111331508.01283
           X            0.99895  -0.04381  -0.01368
           Y            0.04385   0.99904   0.00237
           Z            0.01356  -0.00297   0.99990
 This molecule is an asymmetric top.
 Rotational symmetry number  1.
 Warning -- assumption of classical behavior for rotation
           may cause significant error
 Rotational temperatures (Kelvin)      0.11946     0.07630     0.05744
 Rotational constants (GHZ):           2.48923     1.58992     1.19677
 Zero-point vibrational energy     413457.4 (Joules/Mol)
                                   98.81868 (Kcal/Mol)
 Warning -- explicit consideration of  11 degrees of freedom as
           vibrations may cause significant error
 Vibrational temperatures:     85.23   174.93   274.24   310.69   337.88
          (Kelvin)            504.23   537.74   603.30   635.34   649.13
                              812.18   900.37  1000.12  1098.15  1122.52
                             1226.51  1256.96  1306.18  1367.16  1379.90
                             1408.83  1448.23  1452.21  1539.98  1547.73
                             1580.96  1606.42  1643.62  1744.78  1772.49
                             1801.30  1852.66  1961.44  1968.53  2034.48
                             2045.27  2101.68  2128.37  2133.30  2142.68
                             2160.08  4312.60  4347.26  4427.55  4433.24
                             4459.96  4512.19  4577.30  4603.83  4647.08
                             5476.04

 Zero-point correction=                           0.157478 (Hartree/Particle)
 Thermal correction to Energy=                    0.166191
 Thermal correction to Enthalpy=                  0.167135
 Thermal correction to Gibbs Free Energy=         0.124079
 Sum of electronic and zero-point Energies=           -422.947820
 Sum of electronic and thermal Energies=              -422.939107
 Sum of electronic and thermal Enthalpies=            -422.938163
 Sum of electronic and thermal Free Energies=         -422.981219

                     E (Thermal)             CV                S
                      KCal/Mol        Cal/Mol-Kelvin    Cal/Mol-Kelvin
 Total                  104.286             33.449             90.620
 Electronic               0.000              0.000              0.000
 Translational            0.889              2.981             40.409
 Rotational               0.889              2.981             28.608
 Vibrational            102.509             27.487             21.603
 Vibration     1          0.597              1.974              4.483
 Vibration     2          0.609              1.931              3.075
 Vibration     3          0.634              1.853              2.222
 Vibration     4          0.645              1.817              1.993
 Vibration     5          0.655              1.788              1.842
 Vibration     6          0.727              1.574              1.164
 Vibration     7          0.745              1.526              1.064
 Vibration     8          0.782              1.428              0.894
 Vibration     9          0.801              1.379              0.822
 Vibration    10          0.810              1.358              0.792
 Vibration    11          0.920              1.108              0.515

 Normal termination of Gaussian 09 at Tue Jan 28 10:21:02 2020.
