 Gaussian 09, Revision D.01,
 Gaussian 09:  ES64L-G09RevD.01 24-Apr-2013

 -----------------------------
 # b3lyp 6-31G(2df,p) opt Freq
 -----------------------------

 -----
 titel
 -----
 Symbolic Z-matrix:
 Charge =  0 Multiplicity = 1

 SCF Done:  E(RB3LYP) =  -423.172420857     A.U. after   14 cycles
 Optimization completed.
    -- Stationary point found.
 Normal termination of Gaussian 09 at Tue Jan 28 00:31:16 2020.

 ----------------------------------------------------------------------
 #N Geom=AllCheck Guess=TCheck SCRF=Check GenChk RB3LYP/6-31G(2df,p) Fr
 eq
 ----------------------------------------------------------------------

 Structure from the checkpoint file:  "/scratch/puck/g09_7b283c7b-0cff-413b-9333-1086bc419bdc/Gau-106427.chk"
 -----
 titel
 -----
 Charge =  0 Multiplicity = 1

                         Standard orientation:
 ---------------------------------------------------------------------
 Center     Atomic      Atomic             Coordinates (Angstroms)
 Number     Number       Type             X           Y           Z
 ---------------------------------------------------------------------
      1          8           0       -2.093342   -1.438579    0.039748
      2          6           0       -1.087731   -0.492351   -0.291975
      3          6           0       -1.610062    0.889193   -0.007237
      4          6           0       -0.781719    1.933286    0.014780
      5          6           0        0.696403    1.736961   -0.233539
      6          6           0        1.196228    0.480321    0.503553
      7          6           0        2.153864   -0.495928   -0.215262
      8          8           0        1.172947   -1.556164   -0.189435
      9          6           0        0.214400   -0.711683    0.493083
     10          1           0       -1.767304   -2.308530   -0.212999
     11          1           0       -0.829527   -0.573284   -1.362664
     12          1           0       -2.678840    0.981825    0.156411
     13          1           0       -1.154439    2.936884    0.194769
     14          1           0        0.871702    1.618870   -1.313143
     15          1           0        1.268198    2.618318    0.071246
     16          1           0        1.520661    0.747999    1.510646
     17          1           0        2.430112   -0.218092   -1.241205
     18          1           0        3.062265   -0.768386    0.335591
     19          1           0       -0.047968   -1.116447    1.478425
 ---------------------------------------------------------------------

 SCF Done:  E(RB3LYP) =  -423.172420857     A.U. after    1 cycles

 The electronic state is 1-A.
 Alpha  occ. eigenvalues --  -19.13499 -19.13118 -10.23159 -10.23036 -10.22811
 Alpha  occ. eigenvalues --  -10.19540 -10.19293 -10.18487 -10.18007  -1.03803
 Alpha  occ. eigenvalues --   -1.01569  -0.82564  -0.75188  -0.71985  -0.67849
 Alpha  occ. eigenvalues --   -0.62382  -0.56447  -0.52980  -0.50902  -0.49167
 Alpha  occ. eigenvalues --   -0.48111  -0.46167  -0.43552  -0.40666  -0.40126
 Alpha  occ. eigenvalues --   -0.38277  -0.37897  -0.35715  -0.34711  -0.31261
 Alpha  occ. eigenvalues --   -0.29623  -0.27368  -0.25366  -0.23810
 Alpha virt. eigenvalues --    0.01376   0.07393   0.08267   0.09460   0.11750
 Alpha virt. eigenvalues --    0.12053   0.13590   0.15430   0.16629   0.17203
 Alpha virt. eigenvalues --    0.17965   0.19361   0.20883   0.21520   0.23251

 Mulliken charges:
               1
     1  O   -0.445262
     2  C    0.058933
     3  C   -0.051732
     4  C   -0.076524
     5  C   -0.292177
     6  C   -0.058589
     7  C   -0.094301
     8  O   -0.304100
     9  C    0.102513
    10  H    0.289312
    11  H    0.084843
    12  H    0.103563
    13  H    0.093965
    14  H    0.113962
    15  H    0.105626
    16  H    0.085965
    17  H    0.098447
    18  H    0.101917
    19  H    0.083639
 Sum of Mulliken charges =   0.00000

 Dipole moment (field-independent basis, Debye):
    X=              1.2586    Y=              1.3196    Z=             -0.0559  Tot=              1.8244
 Quadrupole moment (field-independent basis, Debye-Ang):
   XX=            -54.8365   YY=            -51.7144   ZZ=            -52.8624
   XY=              1.8624   XZ=              1.1952   YZ=              0.5348

  Exact polarizability:  85.706   3.171  82.057  -2.147   0.451  58.130
 Approx polarizability: 118.973  11.282 121.102  -4.525   1.974  91.221

                      1                      2                      3
                      A                      A                      A
 Frequencies --     55.6444               110.0985               264.2503
 Red. masses --      3.5020                 2.4232                 4.7128
 Frc consts  --      0.0064                 0.0173                 0.1939
 IR Inten    --      1.7942                 0.1989                 5.7105

                      4                      5                      6
                      A                      A                      A
 Frequencies --    306.6465               333.6217               376.4661
 Red. masses --      2.0555                 1.3673                 2.4526
 Frc consts  --      0.1139                 0.0897                 0.2048
 IR Inten    --     12.1201                84.4444                15.6146

                      7                      8                      9
                      A                      A                      A
 Frequencies --    410.7470               429.7531               504.2441
 Red. masses --      3.2546                 4.9735                 4.3842
 Frc consts  --      0.3235                 0.5412                 0.6568
 IR Inten    --      2.8535                 4.6004                 3.8596

                     10                     11                     12
                      A                      A                      A
 Frequencies --    548.0564               698.1131               705.1527
 Red. masses --      3.5116                 1.7701                 2.0460
 Frc consts  --      0.6214                 0.5083                 0.5994
 IR Inten    --      3.2118                17.9886                 8.9976

                     13                     14                     15
                      A                      A                      A
 Frequencies --    796.7846               889.8321               894.3969
 Red. masses --      3.7481                 2.1821                 1.8777
 Frc consts  --      1.4020                 1.0180                 0.8850
 IR Inten    --      5.1392                 8.8570                 6.5335

                     16                     17                     18
                      A                      A                      A
 Frequencies --    940.7272               951.9664               982.1401
 Red. masses --      2.0448                 3.0555                 1.7408
 Frc consts  --      1.0662                 1.6314                 0.9893
 IR Inten    --      3.3733                 3.4830                 6.1391

                     19                     20                     21
                      A                      A                      A
 Frequencies --    990.1812              1021.9923              1023.7480
 Red. masses --      2.0587                 2.5699                 7.7868
 Frc consts  --      1.1892                 1.5814                 4.8083
 IR Inten    --     16.6696                24.9597                86.6914

                     22                     23                     24
                      A                      A                      A
 Frequencies --   1065.8960              1091.0051              1117.0942
 Red. masses --      2.5676                 2.1154                 4.0404
 Frc consts  --      1.7187                 1.4836                 2.9707
 IR Inten    --     17.4183                16.4226                61.1213

                     25                     26                     27
                      A                      A                      A
 Frequencies --   1135.3447              1161.1236              1181.9085
 Red. masses --      2.2005                 1.1383                 1.1668
 Frc consts  --      1.6712                 0.9042                 0.9603
 IR Inten    --      3.2146                 0.4110                 0.8007

                     28                     29                     30
                      A                      A                      A
 Frequencies --   1218.7792              1220.9786              1248.1900
 Red. masses --      1.1264                 1.4212                 1.3019
 Frc consts  --      0.9858                 1.2483                 1.1950
 IR Inten    --     47.6570                 4.9059                 0.1999

                     31                     32                     33
                      A                      A                      A
 Frequencies --   1275.7582              1296.0126              1324.6728
 Red. masses --      1.2597                 1.2954                 1.4056
 Frc consts  --      1.2080                 1.2820                 1.4533
 IR Inten    --     28.3988                 8.8215                 2.8468

                     34                     35                     36
                      A                      A                      A
 Frequencies --   1352.0301              1356.5180              1372.0466
 Red. masses --      1.3788                 1.5005                 1.4090
 Frc consts  --      1.4850                 1.6268                 1.5627
 IR Inten    --      9.1029                 5.5075                 4.1758

                     37                     38                     39
                      A                      A                      A
 Frequencies --   1382.1729              1436.0406              1488.1644
 Red. masses --      1.5108                 1.5914                 1.0862
 Frc consts  --      1.7006                 1.9336                 1.4173
 IR Inten    --      5.9603                 7.2721                 2.9153

                     40                     41                     42
                      A                      A                      A
 Frequencies --   1524.4536              1702.6331              2940.3367
 Red. masses --      1.1006                 6.9548                 1.0808
 Frc consts  --      1.5070                11.8790                 5.5053
 IR Inten    --      1.0749                 2.6162                30.4092

                     43                     44                     45
                      A                      A                      A
 Frequencies --   2997.8355              3006.6439              3030.8704
 Red. masses --      1.0696                 1.0572                 1.0861
 Frc consts  --      5.6637                 5.6309                 5.8785
 IR Inten    --      7.9663                98.3578                28.6891

                     46                     47                     48
                      A                      A                      A
 Frequencies --   3049.6764              3072.4397              3095.2333
 Red. masses --      1.1083                 1.0894                 1.0897
 Frc consts  --      6.0733                 6.0591                 6.1511
 IR Inten    --     36.7357                18.4021                45.1357

                     49                     50                     51
                      A                      A                      A
 Frequencies --   3169.4418              3194.0943              3818.1148
 Red. masses --      1.0852                 1.0984                 1.0662
 Frc consts  --      6.4226                 6.6025                 9.1579
 IR Inten    --      7.4413                16.8510                26.5338

 - Thermochemistry -
 -------------------
 Temperature   298.150 Kelvin.  Pressure   1.00000 Atm.
 Atom     1 has atomic number  8 and mass  15.99491

 Molecular mass:   126.06808 amu.
 Principal axes and moments of inertia in atomic units:
                           1         2         3
     Eigenvalues --   796.28241 982.647201645.47198
           X            0.99950   0.03163   0.00014
           Y           -0.03163   0.99950  -0.00245
           Z           -0.00021   0.00245   1.00000
 This molecule is an asymmetric top.
 Rotational symmetry number  1.
 Warning -- assumption of classical behavior for rotation
           may cause significant error
 Rotational temperatures (Kelvin)      0.10877     0.08814     0.05264
 Rotational constants (GHZ):           2.26646     1.83661     1.09679
 Zero-point vibrational energy     422043.0 (Joules/Mol)
                                  100.87069 (Kcal/Mol)
 Warning -- explicit consideration of  10 degrees of freedom as
           vibrations may cause significant error
 Vibrational temperatures:     80.06   158.41   380.20   441.20   480.01
          (Kelvin)            541.65   590.97   618.32   725.49   788.53
                             1004.43  1014.56  1146.39  1280.27  1286.84
                             1353.49  1369.67  1413.08  1424.65  1470.42
                             1472.94  1533.58  1569.71  1607.25  1633.51
                             1670.60  1700.50  1753.55  1756.71  1795.86
                             1835.53  1864.67  1905.91  1945.27  1951.72
                             1974.07  1988.64  2066.14  2141.13  2193.35
                             2449.71  4230.48  4313.21  4325.88  4360.74
                             4387.80  4420.55  4453.34  4560.11  4595.58
                             5493.41

 Zero-point correction=                           0.160748 (Hartree/Particle)
 Thermal correction to Energy=                    0.168621
 Thermal correction to Enthalpy=                  0.169565
 Thermal correction to Gibbs Free Energy=         0.127952
 Sum of electronic and zero-point Energies=           -423.011673
 Sum of electronic and thermal Energies=              -423.003800
 Sum of electronic and thermal Enthalpies=            -423.002856
 Sum of electronic and thermal Free Energies=         -423.044469

                     E (Thermal)             CV                S
                      KCal/Mol        Cal/Mol-Kelvin    Cal/Mol-Kelvin
 Total                  105.811             30.668             87.583
 Electronic               0.000              0.000              0.000
 Translational            0.889              2.981             40.409
 Rotational               0.889              2.981             28.645
 Vibrational            104.034             24.707             18.530
 Vibration     1          0.596              1.975              4.606
 Vibration     2          0.606              1.941              3.267
 Vibration     3          0.671              1.738              1.634
 Vibration     4          0.697              1.661              1.380
 Vibration     5          0.715              1.608              1.242
 Vibration     6          0.747              1.520              1.053
 Vibration     7          0.775              1.447              0.924
 Vibration     8          0.791              1.405              0.859
 Vibration     9          0.860              1.241              0.648
 Vibration    10          0.903              1.144              0.548

 Normal termination of Gaussian 09 at Tue Jan 28 01:15:06 2020.
