 Gaussian 09, Revision D.01,
 Gaussian 09:  ES64L-G09RevD.01 24-Apr-2013

 -----------------------------
 # b3lyp 6-31G(2df,p) opt Freq
 -----------------------------

 -----
 titel
 -----
 Symbolic Z-matrix:
 Charge =  0 Multiplicity = 1

 SCF Done:  E(RB3LYP) =  -423.125667315     A.U. after   14 cycles
 SCF Done:  E(RB3LYP) =  -423.125663729     A.U. after   10 cycles
 SCF Done:  E(RB3LYP) =  -423.125667716     A.U. after    8 cycles
 SCF Done:  E(RB3LYP) =  -423.125667678     A.U. after    7 cycles
 SCF Done:  E(RB3LYP) =  -423.125667578     A.U. after    7 cycles
 SCF Done:  E(RB3LYP) =  -423.125667347     A.U. after    6 cycles
 SCF Done:  E(RB3LYP) =  -423.125667256     A.U. after    6 cycles
 SCF Done:  E(RB3LYP) =  -423.125666870     A.U. after    7 cycles
 Optimization completed on the basis of negligible forces.
    -- Stationary point found.
 Normal termination of Gaussian 09 at Tue Jan 28 12:33:45 2020.

 ----------------------------------------------------------------------
 #N Geom=AllCheck Guess=TCheck SCRF=Check GenChk RB3LYP/6-31G(2df,p) Fr
 eq
 ----------------------------------------------------------------------

 Structure from the checkpoint file:  "/scratch/puck/g09_6a4ec35a-59e5-49a5-812b-a99566e952f8/Gau-1325.chk"
 -----
 titel
 -----
 Charge =  0 Multiplicity = 1

                         Standard orientation:
 ---------------------------------------------------------------------
 Center     Atomic      Atomic             Coordinates (Angstroms)
 Number     Number       Type             X           Y           Z
 ---------------------------------------------------------------------
      1          8           0       -4.493137   -0.019909    0.065173
      2          6           0       -3.146576    0.104115    0.480575
      3          6           0       -2.157812   -0.178520   -0.668982
      4          6           0       -0.766642   -0.102065   -0.242599
      5          6           0        0.368173   -0.031048    0.157885
      6          6           0        1.744541    0.044664    0.597918
      7          6           0        2.705335    1.051594   -0.097142
      8          8           0        3.682015    0.020580   -0.329635
      9          6           0        2.761516   -1.009703    0.073852
     10          1           0       -4.687636    0.704150   -0.538377
     11          1           0       -2.937150    1.093935    0.911340
     12          1           0       -3.001986   -0.634714    1.274010
     13          1           0       -2.380972   -1.170459   -1.080287
     14          1           0       -2.339481    0.539987   -1.480934
     15          1           0        1.796583    0.136482    1.686678
     16          1           0        2.306466    1.464828   -1.031967
     17          1           0        3.098135    1.862811    0.525140
     18          1           0        2.389275   -1.591580   -0.778362
     19          1           0        3.194536   -1.685035    0.819413
 ---------------------------------------------------------------------

 SCF Done:  E(RB3LYP) =  -423.125666870     A.U. after    1 cycles

 The electronic state is 1-A.
 Alpha  occ. eigenvalues --  -19.14194 -19.13471 -10.23595 -10.23581 -10.23576
 Alpha  occ. eigenvalues --  -10.21714 -10.20862 -10.17906 -10.17545  -1.04160
 Alpha  occ. eigenvalues --   -1.02369  -0.80087  -0.77468  -0.70232  -0.69435
 Alpha  occ. eigenvalues --   -0.63934  -0.58058  -0.52159  -0.51353  -0.50284
 Alpha  occ. eigenvalues --   -0.47582  -0.45602  -0.44902  -0.41156  -0.40632
 Alpha  occ. eigenvalues --   -0.40094  -0.39388  -0.35112  -0.33623  -0.32592
 Alpha  occ. eigenvalues --   -0.28372  -0.25302  -0.25193  -0.24827
 Alpha virt. eigenvalues --    0.04133   0.04289   0.07006   0.08563   0.10756
 Alpha virt. eigenvalues --    0.12473   0.12954   0.13848   0.14912   0.15221
 Alpha virt. eigenvalues --    0.17925   0.18093   0.18676   0.20871   0.21524

 Mulliken charges:
               1
     1  O   -0.408000
     2  C   -0.054401
     3  C   -0.357731
     4  C    0.040293
     5  C    0.096621
     6  C   -0.211746
     7  C   -0.072877
     8  O   -0.268428
     9  C   -0.072738
    10  H    0.284329
    11  H    0.100361
    12  H    0.125074
    13  H    0.139113
    14  H    0.117734
    15  H    0.109709
    16  H    0.106945
    17  H    0.108507
    18  H    0.108159
    19  H    0.109078
 Sum of Mulliken charges =   0.00000

 Dipole moment (field-independent basis, Debye):
    X=             -0.9308    Y=              1.0713    Z=              0.0553  Tot=              1.4202
 Quadrupole moment (field-independent basis, Debye-Ang):
   XX=            -64.5855   YY=            -49.8659   ZZ=            -51.4514
   XY=             -5.2099   XZ=              7.4187   YZ=             -0.9645

  Exact polarizability: 114.847   0.323  67.626   9.353  -0.755  63.875
 Approx polarizability: 151.840   2.700  96.974  18.801  -1.182  95.567

 ******    1 imaginary frequencies (negative Signs) ******

                      1                      2                      3
                      A                      A                      A
 Frequencies --     -9.9879                58.8280                76.9421
 Red. masses --      2.9824                 6.4908                 2.4741
 Frc consts  --      0.0002                 0.0132                 0.0086
 IR Inten    --      2.1671                 2.5511                 2.8288

                      4                      5                      6
                      A                      A                      A
 Frequencies --     99.8131               136.8954               190.5406
 Red. masses --      4.0249                 3.2866                 3.1020
 Frc consts  --      0.0236                 0.0363                 0.0664
 IR Inten    --      2.1457                 1.6834                 4.0593

                      7                      8                      9
                      A                      A                      A
 Frequencies --    300.7435               319.3136               346.7372
 Red. masses --      1.2172                 2.9262                 3.9748
 Frc consts  --      0.0649                 0.1758                 0.2816
 IR Inten    --     78.1411                 5.6113                50.3137

                     10                     11                     12
                      A                      A                      A
 Frequencies --    472.8126               501.4220               512.4452
 Red. masses --      5.4758                 4.4186                 5.1753
 Frc consts  --      0.7212                 0.6545                 0.8007
 IR Inten    --      2.5012                 0.2163                 2.9889

                     13                     14                     15
                      A                      A                      A
 Frequencies --    652.0532               779.3576               849.4223
 Red. masses --      3.1911                 1.1547                 4.0656
 Frc consts  --      0.7994                 0.4132                 1.7283
 IR Inten    --      1.1891                 1.6977                11.1923

                     16                     17                     18
                      A                      A                      A
 Frequencies --    889.7599               924.3217              1001.5368
 Red. masses --      1.2381                 3.0063                 4.0060
 Frc consts  --      0.5775                 1.5133                 2.3675
 IR Inten    --      0.0097                17.6425                 0.5306

                     19                     20                     21
                      A                      A                      A
 Frequencies --   1007.9604              1024.6576              1039.6106
 Red. masses --      3.4066                 3.2600                11.0033
 Frc consts  --      2.0392                 2.0166                 7.0067
 IR Inten    --      8.7247                 7.7040                90.3690

                     22                     23                     24
                      A                      A                      A
 Frequencies --   1051.3999              1083.6127              1107.3959
 Red. masses --      1.8950                 4.0300                 2.3338
 Frc consts  --      1.2342                 2.7880                 1.6862
 IR Inten    --     82.7529                88.9920                 1.1091

                     25                     26                     27
                      A                      A                      A
 Frequencies --   1158.2895              1168.4158              1170.3822
 Red. masses --      1.0885                 1.1277                 1.2066
 Frc consts  --      0.8605                 0.9070                 0.9738
 IR Inten    --      1.1520                 7.6232                 2.2626

                     28                     29                     30
                      A                      A                      A
 Frequencies --   1193.9975              1240.2292              1290.8687
 Red. masses --      1.9583                 1.2459                 1.3407
 Frc consts  --      1.6449                 1.1291                 1.3163
 IR Inten    --      0.1216                 1.6516                 0.3207

                     31                     32                     33
                      A                      A                      A
 Frequencies --   1303.3086              1310.7238              1346.7712
 Red. masses --      1.2548                 1.1739                 1.5443
 Frc consts  --      1.2558                 1.1883                 1.6503
 IR Inten    --      0.0528                12.6812                31.8268

                     34                     35                     36
                      A                      A                      A
 Frequencies --   1381.7037              1395.0783              1412.7201
 Red. masses --      1.6011                 1.3079                 1.2458
 Frc consts  --      1.8010                 1.4997                 1.4649
 IR Inten    --      0.0949                15.6691                42.9823

                     37                     38                     39
                      A                      A                      A
 Frequencies --   1472.7317              1508.7449              1509.4041
 Red. masses --      1.0869                 1.0766                 1.0893
 Frc consts  --      1.3890                 1.4439                 1.4622
 IR Inten    --      2.4653                 1.6060                 0.5018

                     40                     41                     42
                      A                      A                      A
 Frequencies --   1534.8099              2361.7437              3002.0063
 Red. masses --      1.1089                11.8854                 1.0684
 Frc consts  --      1.5391                39.0598                 5.6729
 IR Inten    --      1.0155                 0.4886                33.7482

                     43                     44                     45
                      A                      A                      A
 Frequencies --   3008.1169              3014.7585              3025.2595
 Red. masses --      1.0653                 1.0537                 1.0591
 Frc consts  --      5.6793                 5.6424                 5.7112
 IR Inten    --     33.5700               109.7369                 6.9444

                     46                     47                     48
                      A                      A                      A
 Frequencies --   3054.3708              3055.9972              3072.7870
 Red. masses --      1.0925                 1.0909                 1.1089
 Frc consts  --      6.0051                 6.0028                 6.1691
 IR Inten    --     11.9056                 2.0902                11.3463

                     49                     50                     51
                      A                      A                      A
 Frequencies --   3081.4531              3095.1413              3817.1840
 Red. masses --      1.1047                 1.0976                 1.0662
 Frc consts  --      6.1803                 6.1950                 9.1533
 IR Inten    --     87.3100                29.7906                22.6468

 - Thermochemistry -
 -------------------
 Temperature   298.150 Kelvin.  Pressure   1.00000 Atm.
 Atom     1 has atomic number  8 and mass  15.99491

 Molecular mass:   126.06808 amu.
 Principal axes and moments of inertia in atomic units:
                           1         2         3
     Eigenvalues --   243.225743754.942893804.97072
           X            0.99998  -0.00285   0.00509
           Y            0.00291   0.99991  -0.01304
           Z           -0.00505   0.01305   0.99990
 This molecule is an asymmetric top.
 Rotational symmetry number  1.
 Rotational temperatures (Kelvin)      0.35610     0.02307     0.02276
 Rotational constants (GHZ):           7.42003     0.48063     0.47431
    1 imaginary frequencies ignored.
 Zero-point vibrational energy     415191.4 (Joules/Mol)
                                   99.23312 (Kcal/Mol)
 Warning -- explicit consideration of  11 degrees of freedom as
           vibrations may cause significant error
 Vibrational temperatures:     84.64   110.70   143.61   196.96   274.15
          (Kelvin)            432.70   459.42   498.88   680.27   721.43
                              737.29   938.16  1121.32  1222.13  1280.16
                             1329.89  1440.99  1450.23  1474.25  1495.77
                             1512.73  1559.08  1593.29  1666.52  1681.09
                             1683.92  1717.89  1784.41  1857.27  1875.17
                             1885.84  1937.70  1987.96  2007.20  2032.59
                             2118.93  2170.74  2171.69  2208.25  3398.02
                             4319.21  4328.00  4337.56  4352.67  4394.55
                             4396.89  4421.05  4433.52  4453.21  5492.07

 Zero-point correction=                           0.158138 (Hartree/Particle)
 Thermal correction to Energy=                    0.167189
 Thermal correction to Enthalpy=                  0.168133
 Thermal correction to Gibbs Free Energy=         0.123013
 Sum of electronic and zero-point Energies=           -422.967529
 Sum of electronic and thermal Energies=              -422.958478
 Sum of electronic and thermal Enthalpies=            -422.957534
 Sum of electronic and thermal Free Energies=         -423.002654

                     E (Thermal)             CV                S
                      KCal/Mol        Cal/Mol-Kelvin    Cal/Mol-Kelvin
 Total                  104.912             32.038             94.962
 Electronic               0.000              0.000              0.000
 Translational            0.889              2.981             40.409
 Rotational               0.889              2.981             29.631
 Vibrational            103.135             26.077             24.923
 Vibration     1          0.596              1.974              4.496
 Vibration     2          0.599              1.965              3.967
 Vibration     3          0.604              1.949              3.458
 Vibration     4          0.614              1.916              2.847
 Vibration     5          0.634              1.853              2.223
 Vibration     6          0.693              1.672              1.413
 Vibration     7          0.705              1.637              1.314
 Vibration     8          0.725              1.582              1.181
 Vibration     9          0.830              1.310              0.730
 Vibration    10          0.857              1.247              0.655
 Vibration    11          0.868              1.222              0.628

 Optimization completed on the basis of negligible forces.
    -- Stationary point found.
 Normal termination of Gaussian 09 at Tue Jan 28 13:08:40 2020.
