 Gaussian 09, Revision D.01,
 Gaussian 09:  ES64L-G09RevD.01 24-Apr-2013

 -----------------------------
 # b3lyp 6-31G(2df,p) opt Freq
 -----------------------------

 -----
 titel
 -----
 Symbolic Z-matrix:
 Charge =  0 Multiplicity = 1

 SCF Done:  E(RB3LYP) =  -423.165005566     A.U. after   13 cycles
 Optimization completed.
    -- Stationary point found.
 Normal termination of Gaussian 09 at Mon Jan 27 18:22:30 2020.

 ----------------------------------------------------------------------
 #N Geom=AllCheck Guess=TCheck SCRF=Check GenChk RB3LYP/6-31G(2df,p) Fr
 eq
 ----------------------------------------------------------------------

 Structure from the checkpoint file:  "/scratch/puck/g09_b7af7b98-36dd-45dd-8326-854fd0a5c68f/Gau-171760.chk"
 -----
 titel
 -----
 Charge =  0 Multiplicity = 1

                         Standard orientation:
 ---------------------------------------------------------------------
 Center     Atomic      Atomic             Coordinates (Angstroms)
 Number     Number       Type             X           Y           Z
 ---------------------------------------------------------------------
      1          6           0       -2.421590   -0.002154   -0.420646
      2          6           0       -0.956331    0.108283   -0.119289
      3          8           0       -0.344501    1.344396   -0.520199
      4          6           0        0.680149    1.142420    0.506485
      5          6           0        1.874619    0.451504   -0.145739
      6          6           0        1.299287   -0.690532   -1.026170
      7          6           0       -0.004685   -1.135275   -0.372245
      8          8           0        0.226611   -1.260809    1.069358
      9          6           0       -0.234233    0.082553    1.228401
     10          1           0       -2.588589   -0.028024   -1.503339
     11          1           0       -2.830171   -0.921139    0.010425
     12          1           0       -2.965769    0.853711   -0.011610
     13          1           0        0.911212    2.072629    1.030206
     14          1           0        2.453387    1.162489   -0.741577
     15          1           0        2.531282    0.048038    0.630896
     16          1           0        1.093389   -0.332137   -2.039452
     17          1           0        1.998804   -1.527795   -1.100863
     18          1           0       -0.445510   -2.044354   -0.789596
     19          1           0       -0.638214    0.307098    2.216852
 ---------------------------------------------------------------------

 SCF Done:  E(RB3LYP) =  -423.165005566     A.U. after    1 cycles

 The electronic state is 1-A.
 Alpha  occ. eigenvalues --  -19.13569 -19.13322 -10.23870 -10.23277 -10.23220
 Alpha  occ. eigenvalues --  -10.23184 -10.18339 -10.18320 -10.18295  -1.06901
 Alpha  occ. eigenvalues --   -1.01328  -0.78651  -0.76280  -0.72490  -0.67893
 Alpha  occ. eigenvalues --   -0.61345  -0.59342  -0.52585  -0.49802  -0.48436
 Alpha  occ. eigenvalues --   -0.47675  -0.43423  -0.42015  -0.41426  -0.40467
 Alpha  occ. eigenvalues --   -0.38655  -0.36795  -0.35986  -0.35631  -0.34006
 Alpha  occ. eigenvalues --   -0.32382  -0.28849  -0.24296  -0.23773
 Alpha virt. eigenvalues --    0.06904   0.09558   0.10950   0.12664   0.12878
 Alpha virt. eigenvalues --    0.13560   0.14823   0.15193   0.15944   0.16666
 Alpha virt. eigenvalues --    0.16995   0.17920   0.19313   0.20111   0.21156

 Mulliken charges:
               1
     1  C   -0.511112
     2  C    0.425152
     3  O   -0.339706
     4  C    0.056058
     5  C   -0.213751
     6  C   -0.214252
     7  C    0.026386
     8  O   -0.308055
     9  C    0.016722
    10  H    0.130502
    11  H    0.131622
    12  H    0.129800
    13  H    0.077055
    14  H    0.103840
    15  H    0.113682
    16  H    0.112743
    17  H    0.103741
    18  H    0.075171
    19  H    0.084403
 Sum of Mulliken charges =   0.00000

 Dipole moment (field-independent basis, Debye):
    X=             -0.1819    Y=             -0.0008    Z=             -0.1609  Tot=              0.2428
 Quadrupole moment (field-independent basis, Debye-Ang):
   XX=            -49.9402   YY=            -55.8762   ZZ=            -52.8069
   XY=              2.0476   XZ=             -0.7479   YZ=              5.1440

  Exact polarizability:  80.494   1.994  70.309  -0.252   4.793  68.898
 Approx polarizability: 105.132   1.034 108.922   2.167   1.597 106.420

                      1                      2                      3
                      A                      A                      A
 Frequencies --    198.5959               212.4090               240.4747
 Red. masses --      1.0796                 2.5403                 1.7338
 Frc consts  --      0.0251                 0.0675                 0.0591
 IR Inten    --      0.2599                 0.9120                 1.1381

                      4                      5                      6
                      A                      A                      A
 Frequencies --    270.9190               371.3885               450.9482
 Red. masses --      2.6803                 3.2139                 3.3594
 Frc consts  --      0.1159                 0.2612                 0.4025
 IR Inten    --      1.8051                 2.5500                 3.6116

                      7                      8                      9
                      A                      A                      A
 Frequencies --    483.2781               536.2495               635.8545
 Red. masses --      4.3410                 4.3935                 4.4964
 Frc consts  --      0.5974                 0.7444                 1.0711
 IR Inten    --     13.8788                 1.1630                 2.3504

                     10                     11                     12
                      A                      A                      A
 Frequencies --    728.5143               754.1029               780.8872
 Red. masses --      3.4188                 4.0826                 2.0762
 Frc consts  --      1.0690                 1.3679                 0.7459
 IR Inten    --      0.4481                 0.9614                 6.0158

                     13                     14                     15
                      A                      A                      A
 Frequencies --    816.4792               859.0548               870.1145
 Red. masses --      2.4890                 2.1287                 2.3183
 Frc consts  --      0.9776                 0.9255                 1.0341
 IR Inten    --      6.6406                 0.9693                 6.7698

                     16                     17                     18
                      A                      A                      A
 Frequencies --    884.4821               904.2270               943.1072
 Red. masses --      2.6859                 2.8467                 3.1377
 Frc consts  --      1.2380                 1.3713                 1.6443
 IR Inten    --      2.6907                36.7956                40.2487

                     19                     20                     21
                      A                      A                      A
 Frequencies --    989.7902               998.4151              1012.6493
 Red. masses --      2.4869                 3.2111                 2.0686
 Frc consts  --      1.4355                 1.8859                 1.2498
 IR Inten    --      8.7901                58.4317                14.0759

                     22                     23                     24
                      A                      A                      A
 Frequencies --   1058.4653              1079.9868              1133.4662
 Red. masses --      1.8362                 2.5111                 2.1284
 Frc consts  --      1.2121                 1.7257                 1.6111
 IR Inten    --     12.9587                 2.2231                 7.1956

                     25                     26                     27
                      A                      A                      A
 Frequencies --   1136.9871              1164.4129              1183.1919
 Red. masses --      1.2830                 1.7567                 1.8311
 Frc consts  --      0.9772                 1.4034                 1.5103
 IR Inten    --      5.9653                 1.3607                18.9568

                     28                     29                     30
                      A                      A                      A
 Frequencies --   1189.3947              1253.8575              1277.3227
 Red. masses --      1.9189                 1.4861                 1.3863
 Frc consts  --      1.5994                 1.3766                 1.3327
 IR Inten    --     14.2282                 4.9014                 4.1373

                     31                     32                     33
                      A                      A                      A
 Frequencies --   1298.7335              1305.8589              1319.0773
 Red. masses --      1.7717                 1.4754                 1.4984
 Frc consts  --      1.7607                 1.4823                 1.5361
 IR Inten    --      3.4486                 0.4345                12.5711

                     34                     35                     36
                      A                      A                      A
 Frequencies --   1352.8304              1366.9669              1386.4648
 Red. masses --      1.5311                 1.4387                 1.6199
 Frc consts  --      1.6510                 1.5839                 1.8346
 IR Inten    --      0.6365                 2.6609                 0.7003

                     37                     38                     39
                      A                      A                      A
 Frequencies --   1415.4757              1465.6170              1478.5388
 Red. masses --      1.9355                 1.0798                 1.0548
 Frc consts  --      2.2847                 1.3666                 1.3586
 IR Inten    --     15.7417                 1.7040                 3.3487

                     40                     41                     42
                      A                      A                      A
 Frequencies --   1482.4306              1491.6512              3035.4436
 Red. masses --      1.1048                 1.0577                 1.0358
 Frc consts  --      1.4305                 1.3866                 5.6230
 IR Inten    --      3.8770                 4.4205                15.1476

                     43                     44                     45
                      A                      A                      A
 Frequencies --   3052.3184              3059.2740              3077.8641
 Red. masses --      1.0598                 1.0613                 1.0876
 Frc consts  --      5.8173                 5.8524                 6.0703
 IR Inten    --      8.6702                27.4488                65.7840

                     46                     47                     48
                      A                      A                      A
 Frequencies --   3085.1038              3094.7608              3104.0312
 Red. masses --      1.0893                 1.1033                 1.0991
 Frc consts  --      6.1083                 6.2256                 6.2395
 IR Inten    --     28.7935                13.5353                 2.5176

                     49                     50                     51
                      A                      A                      A
 Frequencies --   3104.6645              3109.6224              3120.0940
 Red. masses --      1.0926                 1.1053                 1.1020
 Frc consts  --      6.2047                 6.2973                 6.3208
 IR Inten    --     59.7814                25.1426                15.5863

 - Thermochemistry -
 -------------------
 Temperature   298.150 Kelvin.  Pressure   1.00000 Atm.
 Atom     1 has atomic number  6 and mass  12.00000

 Molecular mass:   126.06808 amu.
 Principal axes and moments of inertia in atomic units:
                           1         2         3
     Eigenvalues --   656.17752 965.990251087.62316
           X            0.99961   0.02772  -0.00369
           Y           -0.02663   0.98398   0.17630
           Z            0.00852  -0.17613   0.98433
 This molecule is an asymmetric top.
 Rotational symmetry number  1.
 Warning -- assumption of classical behavior for rotation
           may cause significant error
 Rotational temperatures (Kelvin)      0.13200     0.08966     0.07964
 Rotational constants (GHZ):           2.75039     1.86828     1.65934
 Zero-point vibrational energy     422436.4 (Joules/Mol)
                                  100.96472 (Kcal/Mol)
 Warning -- explicit consideration of   8 degrees of freedom as
           vibrations may cause significant error
 Vibrational temperatures:    285.73   305.61   345.99   389.79   534.34
          (Kelvin)            648.81   695.33   771.54   914.85  1048.17
                             1084.98  1123.52  1174.73  1235.99  1251.90
                             1272.57  1300.98  1356.92  1424.09  1436.49
                             1456.97  1522.89  1553.86  1630.80  1635.87
                             1675.33  1702.35  1711.27  1804.02  1837.78
                             1868.59  1878.84  1897.86  1946.42  1966.76
                             1994.81  2036.55  2108.69  2127.28  2132.88
                             2146.15  4367.32  4391.60  4401.61  4428.35
                             4438.77  4452.66  4466.00  4466.91  4474.05
                             4489.11

 Zero-point correction=                           0.160898 (Hartree/Particle)
 Thermal correction to Energy=                    0.167979
 Thermal correction to Enthalpy=                  0.168923
 Thermal correction to Gibbs Free Energy=         0.129902
 Sum of electronic and zero-point Energies=           -423.004108
 Sum of electronic and thermal Energies=              -422.997026
 Sum of electronic and thermal Enthalpies=            -422.996082
 Sum of electronic and thermal Free Energies=         -423.035103

                     E (Thermal)             CV                S
                      KCal/Mol        Cal/Mol-Kelvin    Cal/Mol-Kelvin
 Total                  105.409             29.254             82.127
 Electronic               0.000              0.000              0.000
 Translational            0.889              2.981             40.409
 Rotational               0.889              2.981             28.024
 Vibrational            103.631             23.292             13.695
 Vibration     1          0.637              1.842              2.146
 Vibration     2          0.643              1.822              2.023
 Vibration     3          0.658              1.778              1.799
 Vibration     4          0.675              1.727              1.590
 Vibration     5          0.743              1.531              1.074
 Vibration     6          0.810              1.359              0.793
 Vibration     7          0.839              1.287              0.701
 Vibration     8          0.891              1.170              0.573

 Normal termination of Gaussian 09 at Mon Jan 27 19:13:37 2020.
