 Gaussian 09, Revision D.01,
 Gaussian 09:  ES64L-G09RevD.01 24-Apr-2013

 -----------------------------
 # b3lyp 6-31G(2df,p) opt Freq
 -----------------------------

 -----
 titel
 -----
 Symbolic Z-matrix:
 Charge =  0 Multiplicity = 1

 SCF Done:  E(RB3LYP) =  -423.183652906     A.U. after   14 cycles
 Optimization completed.
    -- Stationary point found.
 Normal termination of Gaussian 09 at Tue Jan 28 13:51:16 2020.

 ----------------------------------------------------------------------
 #N Geom=AllCheck Guess=TCheck SCRF=Check GenChk RB3LYP/6-31G(2df,p) Fr
 eq
 ----------------------------------------------------------------------

 Structure from the checkpoint file:  "/scratch/puck/g09_c931a7ad-eec9-40c6-a02e-297db3f43002/Gau-33060.chk"
 -----
 titel
 -----
 Charge =  0 Multiplicity = 1

                         Standard orientation:
 ---------------------------------------------------------------------
 Center     Atomic      Atomic             Coordinates (Angstroms)
 Number     Number       Type             X           Y           Z
 ---------------------------------------------------------------------
      1          8           0        2.978644   -0.162343   -0.496838
      2          6           0        2.011969   -0.341324    0.528556
      3          6           0        0.655569   -0.474762   -0.149105
      4          6           0        0.211083    0.791842   -0.971140
      5          6           0       -1.167151    1.070973   -0.327049
      6          6           0       -0.838077    0.907700    1.193882
      7          6           0       -0.548720   -0.587038    0.818263
      8          6           0       -1.706120   -0.364796   -0.180499
      9          8           0       -2.665335   -0.977429   -0.541880
     10          1           0        3.838082   -0.036159   -0.084578
     11          1           0        2.219288   -1.248255    1.119015
     12          1           0        2.013296    0.511176    1.225651
     13          1           0        0.704161   -1.355012   -0.798433
     14          1           0        0.902778    1.626632   -0.829237
     15          1           0        0.143771    0.592092   -2.042607
     16          1           0       -1.770416    1.887599   -0.718191
     17          1           0       -0.001397    1.498539    1.571374
     18          1           0       -1.709352    1.020606    1.841226
     19          1           0       -0.557997   -1.394613    1.548076
 ---------------------------------------------------------------------

 SCF Done:  E(RB3LYP) =  -423.183652906     A.U. after    1 cycles

 The electronic state is 1-A.
 Alpha  occ. eigenvalues --  -19.14113 -19.13414 -10.26659 -10.23339 -10.20156
 Alpha  occ. eigenvalues --  -10.20004 -10.19870 -10.19864 -10.19076  -1.04493
 Alpha  occ. eigenvalues --   -1.02194  -0.89665  -0.75668  -0.71221  -0.65990
 Alpha  occ. eigenvalues --   -0.62128  -0.55431  -0.53302  -0.51771  -0.49317
 Alpha  occ. eigenvalues --   -0.46295  -0.45391  -0.43602  -0.42526  -0.38311
 Alpha  occ. eigenvalues --   -0.37569  -0.36848  -0.35664  -0.34151  -0.33603
 Alpha  occ. eigenvalues --   -0.32875  -0.31781  -0.27404  -0.23292
 Alpha virt. eigenvalues --   -0.00115   0.07003   0.08760   0.10918   0.12448
 Alpha virt. eigenvalues --    0.13344   0.13927   0.14762   0.15938   0.16737
 Alpha virt. eigenvalues --    0.17375   0.19042   0.19436   0.20508   0.22298

 Mulliken charges:
               1
     1  O   -0.419522
     2  C   -0.108304
     3  C    0.035979
     4  C   -0.231482
     5  C   -0.139482
     6  C   -0.251123
     7  C   -0.169621
     8  C    0.437117
     9  O   -0.325524
    10  H    0.289032
    11  H    0.088938
    12  H    0.084417
    13  H    0.093563
    14  H    0.112361
    15  H    0.115337
    16  H    0.082571
    17  H    0.107002
    18  H    0.117826
    19  H    0.080914
 Sum of Mulliken charges =   0.00000

 Dipole moment (field-independent basis, Debye):
    X=              2.8402    Y=              1.4762    Z=              2.0683  Tot=              3.8110
 Quadrupole moment (field-independent basis, Debye-Ang):
   XX=            -55.9103   YY=            -53.4474   ZZ=            -52.8886
   XY=             -3.9692   XZ=              1.3201   YZ=             -1.1740

  Exact polarizability:  86.804   1.114  69.589   1.871  -0.960  69.221
 Approx polarizability: 119.430   7.420 108.164   5.180   1.697 106.176

                      1                      2                      3
                      A                      A                      A
 Frequencies --     94.1360               133.7012               182.2149
 Red. masses --      4.9274                 5.0132                 2.3366
 Frc consts  --      0.0257                 0.0528                 0.0457
 IR Inten    --      3.6977                 1.1551                 6.9932

                      4                      5                      6
                      A                      A                      A
 Frequencies --    205.8224               260.0301               347.6279
 Red. masses --      3.4046                 1.1386                 4.8697
 Frc consts  --      0.0850                 0.0454                 0.3467
 IR Inten    --      3.9770                94.5032                 3.5828

                      7                      8                      9
                      A                      A                      A
 Frequencies --    428.3515               461.7973               493.4005
 Red. masses --      2.2663                 2.2669                 3.6029
 Frc consts  --      0.2450                 0.2848                 0.5168
 IR Inten    --      1.4428                 8.7126                 2.9543

                     10                     11                     12
                      A                      A                      A
 Frequencies --    620.8428               662.8423               780.6723
 Red. masses --      4.2538                 3.1089                 3.6943
 Frc consts  --      0.9660                 0.8048                 1.3265
 IR Inten    --      2.4223                 1.7017                 6.5593

                     13                     14                     15
                      A                      A                      A
 Frequencies --    786.0829               822.2921               845.0362
 Red. masses --      3.9407                 2.6925                 2.9761
 Frc consts  --      1.4347                 1.0727                 1.2521
 IR Inten    --      3.9769                 0.6446                 8.8714

                     16                     17                     18
                      A                      A                      A
 Frequencies --    924.4711               940.8366               978.2041
 Red. masses --      1.8494                 1.5844                 2.1873
 Frc consts  --      0.9313                 0.8263                 1.2331
 IR Inten    --      4.8221                 1.9697                11.5201

                     19                     20                     21
                      A                      A                      A
 Frequencies --    990.9831              1014.0880              1019.8618
 Red. masses --      2.0734                 2.0290                 1.5226
 Frc consts  --      1.1997                 1.2293                 0.9331
 IR Inten    --     20.0407                 5.7725                 7.0756

                     22                     23                     24
                      A                      A                      A
 Frequencies --   1047.1158              1069.4326              1087.9638
 Red. masses --      2.1644                 2.0751                 2.8747
 Frc consts  --      1.3982                 1.3983                 2.0048
 IR Inten    --     11.9654                 4.7931                58.8312

                     25                     26                     27
                      A                      A                      A
 Frequencies --   1094.5179              1131.5921              1170.1318
 Red. masses --      1.3586                 1.6476                 1.5078
 Frc consts  --      0.9589                 1.2430                 1.2164
 IR Inten    --      8.6182                 0.1229                 5.6164

                     28                     29                     30
                      A                      A                      A
 Frequencies --   1198.2338              1217.3482              1238.9929
 Red. masses --      1.4606                 1.6156                 1.5289
 Frc consts  --      1.2356                 1.4106                 1.3828
 IR Inten    --     11.9278                 0.8312                 0.5306

                     31                     32                     33
                      A                      A                      A
 Frequencies --   1247.1037              1249.2886              1274.0712
 Red. masses --      1.2192                 1.4459                 1.2701
 Frc consts  --      1.1172                 1.3295                 1.2147
 IR Inten    --     27.6254                 2.0813                 5.0319

                     34                     35                     36
                      A                      A                      A
 Frequencies --   1310.2926              1319.3889              1380.1631
 Red. masses --      1.5242                 1.4344                 1.3547
 Frc consts  --      1.5418                 1.4712                 1.5204
 IR Inten    --      6.8067                 7.3056                 4.7399

                     37                     38                     39
                      A                      A                      A
 Frequencies --   1460.1954              1493.9694              1505.3046
 Red. masses --      1.4749                 1.0899                 1.0951
 Frc consts  --      1.8529                 1.4333                 1.4620
 IR Inten    --      4.1477                 1.5710                 2.4670

                     40                     41                     42
                      A                      A                      A
 Frequencies --   1525.5757              1902.8649              2968.5375
 Red. masses --      1.0884                12.1224                 1.0556
 Frc consts  --      1.4924                25.8616                 5.4809
 IR Inten    --      3.0180               338.4631                53.8000

                     43                     44                     45
                      A                      A                      A
 Frequencies --   2997.5067              3054.9423              3065.1728
 Red. masses --      1.1033                 1.0859                 1.0608
 Frc consts  --      5.8405                 5.9710                 5.8723
 IR Inten    --     41.7691                28.6958                23.9538

                     46                     47                     48
                      A                      A                      A
 Frequencies --   3076.0021              3113.5690              3137.7289
 Red. masses --      1.0559                 1.1057                 1.1058
 Frc consts  --      5.8866                 6.3152                 6.4145
 IR Inten    --     22.7596                19.9573                12.6316

                     49                     50                     51
                      A                      A                      A
 Frequencies --   3139.6011              3145.3957              3831.2367
 Red. masses --      1.0938                 1.0920                 1.0664
 Frc consts  --      6.3522                 6.3656                 9.2229
 IR Inten    --     33.8310                19.5041                24.9026

 - Thermochemistry -
 -------------------
 Temperature   298.150 Kelvin.  Pressure   1.00000 Atm.
 Atom     1 has atomic number  8 and mass  15.99491

 Molecular mass:   126.06808 amu.
 Principal axes and moments of inertia in atomic units:
                           1         2         3
     Eigenvalues --   498.576441684.429741703.90991
           X            0.99987  -0.01528   0.00557
           Y            0.01623   0.96102  -0.27599
           Z           -0.00113   0.27604   0.96114
 This molecule is an asymmetric top.
 Rotational symmetry number  1.
 Warning -- assumption of classical behavior for rotation
           may cause significant error
 Rotational temperatures (Kelvin)      0.17372     0.05142     0.05083
 Rotational constants (GHZ):           3.61979     1.07143     1.05918
 Zero-point vibrational energy     421363.8 (Joules/Mol)
                                  100.70838 (Kcal/Mol)
 Warning -- explicit consideration of   9 degrees of freedom as
           vibrations may cause significant error
 Vibrational temperatures:    135.44   192.37   262.17   296.13   374.12
          (Kelvin)            500.16   616.30   664.42   709.89   893.25
                              953.68  1123.21  1131.00  1183.09  1215.82
                             1330.11  1353.65  1407.42  1425.80  1459.04
                             1467.35  1506.56  1538.67  1565.34  1574.77
                             1628.11  1683.56  1723.99  1751.49  1782.63
                             1794.30  1797.45  1833.10  1885.22  1898.30
                             1985.74  2100.89  2149.49  2165.79  2194.96
                             2737.79  4271.06  4312.74  4395.38  4410.09
                             4425.68  4479.73  4514.49  4517.18  4525.52
                             5512.29

 Zero-point correction=                           0.160489 (Hartree/Particle)
 Thermal correction to Energy=                    0.168596
 Thermal correction to Enthalpy=                  0.169540
 Thermal correction to Gibbs Free Energy=         0.127703
 Sum of electronic and zero-point Energies=           -423.023164
 Sum of electronic and thermal Energies=              -423.015057
 Sum of electronic and thermal Enthalpies=            -423.014112
 Sum of electronic and thermal Free Energies=         -423.055950

                     E (Thermal)             CV                S
                      KCal/Mol        Cal/Mol-Kelvin    Cal/Mol-Kelvin
 Total                  105.796             31.227             88.054
 Electronic               0.000              0.000              0.000
 Translational            0.889              2.981             40.409
 Rotational               0.889              2.981             28.750
 Vibrational            104.018             25.266             18.896
 Vibration     1          0.603              1.953              3.572
 Vibration     2          0.613              1.920              2.892
 Vibration     3          0.630              1.864              2.306
 Vibration     4          0.640              1.832              2.080
 Vibration     5          0.668              1.746              1.662
 Vibration     6          0.725              1.580              1.177
 Vibration     7          0.790              1.409              0.864
 Vibration     8          0.820              1.335              0.761
 Vibration     9          0.849              1.265              0.675

 Optimization completed.
    -- Stationary point found.
 Normal termination of Gaussian 09 at Tue Jan 28 14:33:44 2020.
