 Gaussian 09, Revision D.01,
 Gaussian 09:  ES64L-G09RevD.01 24-Apr-2013

 -----------------------------
 # b3lyp 6-31G(2df,p) opt Freq
 -----------------------------

 -----
 titel
 -----
 Symbolic Z-matrix:
 Charge =  0 Multiplicity = 1

 SCF Done:  E(RB3LYP) =  -423.199439821     A.U. after   14 cycles
 Optimization completed.
    -- Stationary point found.
 Normal termination of Gaussian 09 at Tue Jan 28 09:03:04 2020.

 ----------------------------------------------------------------------
 #N Geom=AllCheck Guess=TCheck SCRF=Check GenChk RB3LYP/6-31G(2df,p) Fr
 eq
 ----------------------------------------------------------------------

 Structure from the checkpoint file:  "/scratch/puck/g09_91d20650-9ec0-4b1d-86ec-8c9a5e403c1c/Gau-94246.chk"
 -----
 titel
 -----
 Charge =  0 Multiplicity = 1

                         Standard orientation:
 ---------------------------------------------------------------------
 Center     Atomic      Atomic             Coordinates (Angstroms)
 Number     Number       Type             X           Y           Z
 ---------------------------------------------------------------------
      1          6           0       -1.144395    2.373214    0.231092
      2          6           0       -0.233118    1.389390   -0.516483
      3          6           0       -0.415654   -0.039998   -0.039962
      4          6           0        0.160352   -0.504246    1.268353
      5          6           0        0.770130   -1.056821    0.011206
      6          6           0        2.132437   -0.636235   -0.397596
      7          8           0        2.684163    0.380112   -0.041667
      8          6           0       -1.692620   -0.706966   -0.450659
      9          8           0       -2.038516   -1.808126   -0.096620
     10          1           0       -2.203915    2.120048    0.114065
     11          1           0       -0.921752    2.376056    1.302738
     12          1           0       -1.003826    3.390733   -0.144875
     13          1           0       -0.443569    1.436377   -1.593194
     14          1           0        0.809846    1.684528   -0.387536
     15          1           0        0.767799    0.211358    1.811910
     16          1           0       -0.440004   -1.187386    1.857885
     17          1           0        0.486102   -2.065159   -0.269480
     18          1           0        2.644952   -1.348076   -1.080263
     19          1           0       -2.323596   -0.104403   -1.140655
 ---------------------------------------------------------------------

 SCF Done:  E(RB3LYP) =  -423.199439821     A.U. after    1 cycles

 The electronic state is 1-A.
 Alpha  occ. eigenvalues --  -19.14733 -19.14576 -10.27976 -10.27940 -10.22690
 Alpha  occ. eigenvalues --  -10.21828 -10.21065 -10.19551 -10.18542  -1.05542
 Alpha  occ. eigenvalues --   -1.05207  -0.89078  -0.77750  -0.69728  -0.67240
 Alpha  occ. eigenvalues --   -0.62846  -0.57491  -0.53819  -0.52608  -0.47709
 Alpha  occ. eigenvalues --   -0.46460  -0.45943  -0.43365  -0.42897  -0.41846
 Alpha  occ. eigenvalues --   -0.41185  -0.38317  -0.37830  -0.36730  -0.35513
 Alpha  occ. eigenvalues --   -0.32312  -0.29918  -0.26490  -0.25937
 Alpha virt. eigenvalues --   -0.05704  -0.01163   0.08299   0.09789   0.11952
 Alpha virt. eigenvalues --    0.13325   0.13389   0.14845   0.15191   0.16845
 Alpha virt. eigenvalues --    0.17194   0.18194   0.18782   0.20343   0.22849

 Mulliken charges:
               1
     1  C   -0.381052
     2  C   -0.301368
     3  C    0.237354
     4  C   -0.306187
     5  C   -0.149764
     6  C    0.135844
     7  O   -0.263770
     8  C    0.102514
     9  O   -0.265955
    10  H    0.117037
    11  H    0.125675
    12  H    0.122086
    13  H    0.100552
    14  H    0.146572
    15  H    0.144022
    16  H    0.143710
    17  H    0.119358
    18  H    0.088889
    19  H    0.084484
 Sum of Mulliken charges =   0.00000

 Dipole moment (field-independent basis, Debye):
    X=             -0.4035    Y=              0.5985    Z=             -0.5757  Tot=              0.9232
 Quadrupole moment (field-independent basis, Debye-Ang):
   XX=            -61.9599   YY=            -55.6912   ZZ=            -50.7949
   XY=             -8.7494   XZ=             -0.1766   YZ=              0.3712

  Exact polarizability:  89.338  -1.014  81.142   0.057   0.191  65.124
 Approx polarizability: 130.018   9.018 122.665   1.869   0.155 100.731

                      1                      2                      3
                      A                      A                      A
 Frequencies --     83.9408               105.7036               124.8749
 Red. masses --      2.8699                 3.3350                 3.5647
 Frc consts  --      0.0119                 0.0220                 0.0328
 IR Inten    --      4.4272                 9.6414                10.9530

                      4                      5                      6
                      A                      A                      A
 Frequencies --    162.3247               196.3852               209.7471
 Red. masses --      3.3511                 1.9544                 1.6946
 Frc consts  --      0.0520                 0.0444                 0.0439
 IR Inten    --      3.1720                 3.3269                 0.6780

                      7                      8                      9
                      A                      A                      A
 Frequencies --    229.3911               255.6544               323.6841
 Red. masses --      2.0143                 5.6978                 2.4687
 Frc consts  --      0.0624                 0.2194                 0.1524
 IR Inten    --      1.0408                 1.7341                 6.5677

                     10                     11                     12
                      A                      A                      A
 Frequencies --    371.9158               465.4602               601.0392
 Red. masses --      2.2121                 3.5230                 3.7560
 Frc consts  --      0.1803                 0.4497                 0.7994
 IR Inten    --      2.2583                 2.6058                 2.8697

                     13                     14                     15
                      A                      A                      A
 Frequencies --    698.6549               721.8715               765.0923
 Red. masses --      3.5773                 3.7315                 2.8913
 Frc consts  --      1.0288                 1.1457                 0.9972
 IR Inten    --      6.7269                 2.2283                 4.3580

                     16                     17                     18
                      A                      A                      A
 Frequencies --    790.1792               881.2947               926.2476
 Red. masses --      1.2617                 2.8633                 1.6485
 Frc consts  --      0.4642                 1.3103                 0.8333
 IR Inten    --     10.2080                14.9610                 9.8481

                     19                     20                     21
                      A                      A                      A
 Frequencies --    951.5959               999.4955              1018.6906
 Red. masses --      1.7520                 2.2661                 1.8439
 Frc consts  --      0.9347                 1.3338                 1.1274
 IR Inten    --     13.2604               102.4213                41.5928

                     22                     23                     24
                      A                      A                      A
 Frequencies --   1050.9971              1057.3983              1089.5451
 Red. masses --      1.6528                 1.6851                 1.4310
 Frc consts  --      1.0757                 1.1101                 1.0009
 IR Inten    --      0.9987                 1.2595                 7.2257

                     25                     26                     27
                      A                      A                      A
 Frequencies --   1094.6033              1119.3544              1140.5972
 Red. masses --      1.8666                 1.7011                 1.2512
 Frc consts  --      1.3177                 1.2558                 0.9590
 IR Inten    --      4.2121                36.5684                11.6485

                     28                     29                     30
                      A                      A                      A
 Frequencies --   1243.5506              1292.7377              1330.1905
 Red. masses --      1.9176                 2.1454                 1.2863
 Frc consts  --      1.7472                 2.1124                 1.3409
 IR Inten    --     18.0334                 5.7105                30.2532

                     31                     32                     33
                      A                      A                      A
 Frequencies --   1376.0013              1403.8745              1414.8167
 Red. masses --      1.5002                 1.6360                 1.2435
 Frc consts  --      1.6736                 1.8997                 1.4666
 IR Inten    --      5.1759                 8.2530                 4.8909

                     34                     35                     36
                      A                      A                      A
 Frequencies --   1426.4149              1431.7884              1456.2524
 Red. masses --      1.2189                 1.2971                 1.4114
 Frc consts  --      1.4612                 1.5667                 1.7635
 IR Inten    --     10.9063                 7.9089                 4.3642

                     37                     38                     39
                      A                      A                      A
 Frequencies --   1491.7649              1499.4416              1506.1584
 Red. masses --      1.0621                 1.0401                 1.0790
 Frc consts  --      1.3926                 1.3778                 1.4422
 IR Inten    --      2.2875                 5.4250                 4.3798

                     40                     41                     42
                      A                      A                      A
 Frequencies --   1793.7850              1812.3570              2888.7306
 Red. masses --      9.9328                 9.8286                 1.0832
 Frc consts  --     18.8305                19.0209                 5.3259
 IR Inten    --    276.6444                33.1590               123.8926

                     43                     44                     45
                      A                      A                      A
 Frequencies --   2897.4934              3024.9240              3035.1269
 Red. masses --      1.0835                 1.0705                 1.0362
 Frc consts  --      5.3594                 5.7713                 5.6240
 IR Inten    --    120.3897                25.1320                23.1953

                     46                     47                     48
                      A                      A                      A
 Frequencies --   3094.3760              3113.2031              3120.8524
 Red. masses --      1.0973                 1.1015                 1.0944
 Frc consts  --      6.1903                 6.2900                 6.2802
 IR Inten    --     16.4178                26.9078                 9.9160

                     49                     50                     51
                      A                      A                      A
 Frequencies --   3138.2570              3179.0902              3239.0959
 Red. masses --      1.0525                 1.0889                 1.1186
 Frc consts  --      6.1072                 6.4837                 6.9148
 IR Inten    --      4.2854                 3.6236                 0.6551

 - Thermochemistry -
 -------------------
 Temperature   298.150 Kelvin.  Pressure   1.00000 Atm.
 Atom     1 has atomic number  6 and mass  12.00000

 Molecular mass:   126.06808 amu.
 Principal axes and moments of inertia in atomic units:
                           1         2         3
     Eigenvalues --   880.748661287.858261872.37472
           X            0.99319  -0.11646  -0.00255
           Y            0.11647   0.99319   0.00164
           Z            0.00234  -0.00192   1.00000
 This molecule is an asymmetric top.
 Rotational symmetry number  1.
 Warning -- assumption of classical behavior for rotation
           may cause significant error
 Rotational temperatures (Kelvin)      0.09834     0.06725     0.04626
 Rotational constants (GHZ):           2.04910     1.40135     0.96388
 Zero-point vibrational energy     410594.4 (Joules/Mol)
                                   98.13441 (Kcal/Mol)
 Warning -- explicit consideration of  12 degrees of freedom as
           vibrations may cause significant error
 Vibrational temperatures:    120.77   152.08   179.67   233.55   282.55
          (Kelvin)            301.78   330.04   367.83   465.71   535.10
                              669.69   864.76  1005.21  1038.61  1100.80
                             1136.89  1267.98  1332.66  1369.13  1438.05
                             1465.67  1512.15  1521.36  1567.61  1574.89
                             1610.50  1641.06  1789.19  1859.96  1913.85
                             1979.76  2019.86  2035.60  2052.29  2060.02
                             2095.22  2146.31  2157.36  2167.02  2580.85
                             2607.57  4156.23  4168.84  4352.19  4366.87
                             4452.11  4479.20  4490.20  4515.25  4574.00
                             4660.33

 Zero-point correction=                           0.156387 (Hartree/Particle)
 Thermal correction to Energy=                    0.166126
 Thermal correction to Enthalpy=                  0.167070
 Thermal correction to Gibbs Free Energy=         0.121543
 Sum of electronic and zero-point Energies=           -423.043053
 Sum of electronic and thermal Energies=              -423.033314
 Sum of electronic and thermal Enthalpies=            -423.032370
 Sum of electronic and thermal Free Energies=         -423.077897

                     E (Thermal)             CV                S
                      KCal/Mol        Cal/Mol-Kelvin    Cal/Mol-Kelvin
 Total                  104.246             34.641             95.819
 Electronic               0.000              0.000              0.000
 Translational            0.889              2.981             40.409
 Rotational               0.889              2.981             29.142
 Vibrational            102.468             28.680             26.269
 Vibration     1          0.601              1.960              3.797
 Vibration     2          0.605              1.945              3.346
 Vibration     3          0.610              1.928              3.024
 Vibration     4          0.622              1.889              2.523
 Vibration     5          0.636              1.845              2.167
 Vibration     6          0.642              1.826              2.046
 Vibration     7          0.652              1.796              1.884
 Vibration     8          0.666              1.753              1.691
 Vibration     9          0.708              1.628              1.291
 Vibration    10          0.744              1.530              1.072
 Vibration    11          0.823              1.327              0.750
 Vibration    12          0.959              1.030              0.448

 Optimization completed.
    -- Stationary point found.
 Normal termination of Gaussian 09 at Tue Jan 28 09:44:40 2020.
