 Gaussian 09, Revision D.01,
 Gaussian 09:  ES64L-G09RevD.01 24-Apr-2013

 -----------------------------
 # b3lyp 6-31G(2df,p) opt Freq
 -----------------------------

 -----
 titel
 -----
 Symbolic Z-matrix:
 Charge =  0 Multiplicity = 1

 SCF Done:  E(RB3LYP) =  -423.115898185     A.U. after   12 cycles
 Optimization completed.
    -- Stationary point found.
 Normal termination of Gaussian 09 at Mon Jan 27 15:58:28 2020.

 ----------------------------------------------------------------------
 #N Geom=AllCheck Guess=TCheck SCRF=Check GenChk RB3LYP/6-31G(2df,p) Fr
 eq
 ----------------------------------------------------------------------

 Structure from the checkpoint file:  "/scratch/puck/g09_624c8ef0-efed-4f3a-b584-499f809e9890/Gau-35514.chk"
 -----
 titel
 -----
 Charge =  0 Multiplicity = 1

                         Standard orientation:
 ---------------------------------------------------------------------
 Center     Atomic      Atomic             Coordinates (Angstroms)
 Number     Number       Type             X           Y           Z
 ---------------------------------------------------------------------
      1          6           0       -2.380305   -0.751778   -0.006940
      2          6           0       -1.090482    0.047872   -0.004959
      3          8           0       -1.358764    1.452338   -0.084146
      4          6           0        0.055911   -0.338314    0.959639
      5          6           0        0.580745   -1.458688    0.001465
      6          6           0        2.023825   -0.899415    0.003644
      7          6           0        1.122752    0.335608    0.005552
      8          8           0        1.547411    1.639972    0.006526
      9          6           0        0.058600   -0.332607   -0.952676
     10          1           0       -2.988221   -0.515974    0.876121
     11          1           0       -2.974397   -0.519792   -0.896461
     12          1           0       -2.181410   -1.826946    0.008776
     13          1           0       -1.977708    1.680890    0.617880
     14          1           0        0.074137   -0.358481    2.051269
     15          1           0        0.257976   -2.496697   -0.003328
     16          1           0        2.618297   -1.076991    0.905285
     17          1           0        2.619483   -1.072208   -0.898226
     18          1           0        0.741259    2.174394   -0.031146
     19          1           0        0.075131   -0.342745   -2.043565
 ---------------------------------------------------------------------

 SCF Done:  E(RB3LYP) =  -423.115898185     A.U. after    1 cycles

 The electronic state is 1-A.
 Alpha  occ. eigenvalues --  -19.14637 -19.13346 -10.24199 -10.24055 -10.20043
 Alpha  occ. eigenvalues --  -10.18830 -10.18731 -10.18072 -10.17928  -1.03598
 Alpha  occ. eigenvalues --   -1.01742  -0.92549  -0.75917  -0.69873  -0.63740
 Alpha  occ. eigenvalues --   -0.61910  -0.58285  -0.52999  -0.51140  -0.49463
 Alpha  occ. eigenvalues --   -0.46640  -0.45271  -0.41975  -0.40753  -0.39902
 Alpha  occ. eigenvalues --   -0.37698  -0.35956  -0.33087  -0.32715  -0.32147
 Alpha  occ. eigenvalues --   -0.30369  -0.28732  -0.26188  -0.24053
 Alpha virt. eigenvalues --    0.06670   0.09577   0.11833   0.12728   0.13640
 Alpha virt. eigenvalues --    0.13791   0.14083   0.14745   0.16524   0.18150
 Alpha virt. eigenvalues --    0.18529   0.18607   0.19318   0.20136   0.21606

 Mulliken charges:
               1
     1  C   -0.477318
     2  C    0.408938
     3  O   -0.491346
     4  C   -0.187245
     5  C   -0.070023
     6  C   -0.312287
     7  C    0.434613
     8  O   -0.480321
     9  C   -0.153951
    10  H    0.106468
    11  H    0.126882
    12  H    0.124764
    13  H    0.278974
    14  H    0.063909
    15  H    0.079209
    16  H    0.095482
    17  H    0.096419
    18  H    0.286842
    19  H    0.069992
 Sum of Mulliken charges =   0.00000

 Dipole moment (field-independent basis, Debye):
    X=             -2.1803    Y=             -0.9854    Z=              0.8949  Tot=              2.5545
 Quadrupole moment (field-independent basis, Debye-Ang):
   XX=            -53.8065   YY=            -52.9144   ZZ=            -51.8115
   XY=             -3.9127   XZ=             -2.3139   YZ=              1.9916

  Exact polarizability:  86.063  -2.926  73.279  -1.202   0.750  67.012
 Approx polarizability: 114.229  -2.413 112.659  -1.896   0.460 107.201

                      1                      2                      3
                      A                      A                      A
 Frequencies --    181.1830               201.4371               237.1948
 Red. masses --      4.3479                 3.3551                 1.0581
 Frc consts  --      0.0841                 0.0802                 0.0351
 IR Inten    --      1.4458                 2.0321                 0.2129

                      4                      5                      6
                      A                      A                      A
 Frequencies --    296.3500               323.1151               332.6015
 Red. masses --      1.3368                 2.0998                 2.4633
 Frc consts  --      0.0692                 0.1292                 0.1606
 IR Inten    --     39.0106                10.2054                24.7299

                      7                      8                      9
                      A                      A                      A
 Frequencies --    401.5029               408.3665               493.9780
 Red. masses --      3.6962                 2.5623                 2.0212
 Frc consts  --      0.3511                 0.2518                 0.2906
 IR Inten    --     16.8319                 5.3869                 3.2583

                     10                     11                     12
                      A                      A                      A
 Frequencies --    531.4685               544.0675               624.2554
 Red. masses --      1.2703                 4.3692                 3.8967
 Frc consts  --      0.2114                 0.7620                 0.8947
 IR Inten    --     96.0697                 7.9645                 7.7242

                     13                     14                     15
                      A                      A                      A
 Frequencies --    693.2699               726.1052               822.0916
 Red. masses --      4.0977                 4.3753                 2.4700
 Frc consts  --      1.1604                 1.3591                 0.9835
 IR Inten    --      5.7826                 1.9767                 0.7044

                     16                     17                     18
                      A                      A                      A
 Frequencies --    859.3954               863.0094               893.8248
 Red. masses --      2.0728                 1.8594                 1.6742
 Frc consts  --      0.9020                 0.8159                 0.7881
 IR Inten    --      0.3791                 2.2255                 1.6874

                     19                     20                     21
                      A                      A                      A
 Frequencies --    923.6737               933.5605               984.9334
 Red. masses --      2.5313                 2.0270                 1.3754
 Frc consts  --      1.2724                 1.0409                 0.7861
 IR Inten    --      3.7667                34.3290                 0.3684

                     22                     23                     24
                      A                      A                      A
 Frequencies --   1007.5348              1048.4832              1052.9432
 Red. masses --      2.2539                 1.4356                 2.6832
 Frc consts  --      1.3480                 0.9298                 1.7527
 IR Inten    --      5.6385                 4.2904                 6.5841

                     25                     26                     27
                      A                      A                      A
 Frequencies --   1089.1335              1107.1022              1126.0042
 Red. masses --      1.6892                 1.6169                 1.4727
 Frc consts  --      1.1806                 1.1676                 1.1001
 IR Inten    --      6.5179                11.6801                 7.1610

                     28                     29                     30
                      A                      A                      A
 Frequencies --   1139.9195              1154.4644              1166.3954
 Red. masses --      1.7741                 1.9446                 1.8253
 Frc consts  --      1.3582                 1.5270                 1.4631
 IR Inten    --     30.4184                18.4547                46.3749

                     31                     32                     33
                      A                      A                      A
 Frequencies --   1186.6965              1211.3992              1248.5483
 Red. masses --      1.8350                 2.4639                 1.8535
 Frc consts  --      1.5225                 2.1303                 1.7024
 IR Inten    --     26.6940                12.5353                19.3244

                     34                     35                     36
                      A                      A                      A
 Frequencies --   1273.6768              1345.4767              1383.7716
 Red. masses --      1.8538                 3.4272                 1.9620
 Frc consts  --      1.7718                 3.6554                 2.2135
 IR Inten    --    130.0382               192.4069                58.9357

                     37                     38                     39
                      A                      A                      A
 Frequencies --   1409.7334              1420.0354              1488.9452
 Red. masses --      1.3631                 1.8136                 1.0527
 Frc consts  --      1.5960                 2.1547                 1.3751
 IR Inten    --     17.1548                 6.7287                 4.4738

                     40                     41                     42
                      A                      A                      A
 Frequencies --   1495.1253              1519.6182              3022.7120
 Red. masses --      1.0696                 1.2386                 1.0408
 Frc consts  --      1.4088                 1.6851                 5.6026
 IR Inten    --      5.3222                 9.8267                28.1871

                     43                     44                     45
                      A                      A                      A
 Frequencies --   3041.7714              3088.3717              3093.7618
 Red. masses --      1.0550                 1.0947                 1.0898
 Frc consts  --      5.7512                 6.1519                 6.1456
 IR Inten    --     56.1522                20.3011                60.7285

                     46                     47                     48
                      A                      A                      A
 Frequencies --   3101.0691              3106.1584              3117.3467
 Red. masses --      1.1100                 1.0902                 1.1012
 Frc consts  --      6.2893                 6.1970                 6.3053
 IR Inten    --     30.7358                23.8532                17.6059

                     49                     50                     51
                      A                      A                      A
 Frequencies --   3147.5717              3748.5521              3803.5310
 Red. masses --      1.0933                 1.0643                 1.0659
 Frc consts  --      6.3817                 8.8114                 9.0855
 IR Inten    --     30.8164                61.6191                17.1710

 - Thermochemistry -
 -------------------
 Temperature   298.150 Kelvin.  Pressure   1.00000 Atm.
 Atom     1 has atomic number  6 and mass  12.00000

 Molecular mass:   126.06808 amu.
 Principal axes and moments of inertia in atomic units:
                           1         2         3
     Eigenvalues --   632.746531048.482341437.69271
           X            0.99996  -0.00702  -0.00539
           Y            0.00706   0.99994   0.00832
           Z            0.00533  -0.00836   0.99995
 This molecule is an asymmetric top.
 Rotational symmetry number  1.
 Warning -- assumption of classical behavior for rotation
           may cause significant error
 Rotational temperatures (Kelvin)      0.13689     0.08261     0.06025
 Rotational constants (GHZ):           2.85223     1.72129     1.25530
 Zero-point vibrational energy     415231.2 (Joules/Mol)
                                   99.24264 (Kcal/Mol)
 Warning -- explicit consideration of  11 degrees of freedom as
           vibrations may cause significant error
 Vibrational temperatures:    260.68   289.82   341.27   426.38   464.89
          (Kelvin)            478.54   577.67   587.55   710.72   764.66
                              782.79   898.16   997.46  1044.70  1182.80
                             1236.48  1241.68  1286.01  1328.96  1343.18
                             1417.10  1449.62  1508.53  1514.95  1567.02
                             1592.87  1620.07  1640.09  1661.01  1678.18
                             1707.39  1742.93  1796.38  1832.53  1935.84
                             1990.94  2028.29  2043.11  2142.26  2151.15
                             2186.39  4349.00  4376.43  4443.47  4451.23
                             4461.74  4469.06  4485.16  4528.65  5393.32
                             5472.43

 Zero-point correction=                           0.158153 (Hartree/Particle)
 Thermal correction to Energy=                    0.166160
 Thermal correction to Enthalpy=                  0.167104
 Thermal correction to Gibbs Free Energy=         0.126461
 Sum of electronic and zero-point Energies=           -422.957745
 Sum of electronic and thermal Energies=              -422.949738
 Sum of electronic and thermal Enthalpies=            -422.948794
 Sum of electronic and thermal Free Energies=         -422.989437

                     E (Thermal)             CV                S
                      KCal/Mol        Cal/Mol-Kelvin    Cal/Mol-Kelvin
 Total                  104.267             33.005             85.539
 Electronic               0.000              0.000              0.000
 Translational            0.889              2.981             40.409
 Rotational               0.889              2.981             28.347
 Vibrational            102.489             27.044             16.784
 Vibration     1          0.630              1.865              2.316
 Vibration     2          0.638              1.838              2.120
 Vibration     3          0.656              1.784              1.824
 Vibration     4          0.690              1.681              1.437
 Vibration     5          0.708              1.629              1.294
 Vibration     6          0.715              1.610              1.247
 Vibration     7          0.767              1.467              0.957
 Vibration     8          0.773              1.452              0.932
 Vibration     9          0.850              1.263              0.673
 Vibration    10          0.886              1.180              0.584
 Vibration    11          0.899              1.153              0.557

 Optimization completed.
    -- Stationary point found.
 Normal termination of Gaussian 09 at Mon Jan 27 16:47:17 2020.
