 Gaussian 09, Revision D.01,
 Gaussian 09:  ES64L-G09RevD.01 24-Apr-2013

 -----------------------------
 # b3lyp 6-31G(2df,p) opt Freq
 -----------------------------

 -----
 titel
 -----
 Symbolic Z-matrix:
 Charge =  0 Multiplicity = 1

 SCF Done:  E(RB3LYP) =  -423.199290369     A.U. after   14 cycles
 Optimization completed.
    -- Stationary point found.
 Normal termination of Gaussian 09 at Mon Jan 27 13:08:11 2020.

 ----------------------------------------------------------------------
 #N Geom=AllCheck Guess=TCheck SCRF=Check GenChk RB3LYP/6-31G(2df,p) Fr
 eq
 ----------------------------------------------------------------------

 Structure from the checkpoint file:  "/scratch/puck/g09_d2136a53-653f-4c89-a7cd-6fc0c06fb811/Gau-28403.chk"
 -----
 titel
 -----
 Charge =  0 Multiplicity = 1

                         Standard orientation:
 ---------------------------------------------------------------------
 Center     Atomic      Atomic             Coordinates (Angstroms)
 Number     Number       Type             X           Y           Z
 ---------------------------------------------------------------------
      1          8           0       -2.813208   -0.672066    0.071660
      2          6           0       -1.681229   -0.280524   -0.076008
      3          6           0       -1.317882    1.202529    0.075021
      4          8           0        0.009578    1.475739   -0.324770
      5          6           0        0.950802    0.751130    0.444220
      6          6           0        2.265119    0.468677   -0.314875
      7          6           0        2.111191   -1.047505    0.005971
      8          6           0        0.670073   -0.783751    0.532008
      9          6           0       -0.490238   -1.168295   -0.396837
     10          1           0       -1.981017    1.796525   -0.560446
     11          1           0       -1.507364    1.503040    1.119859
     12          1           0        1.086986    1.227993    1.425866
     13          1           0        2.152663    0.701651   -1.375829
     14          1           0        3.162454    0.963992    0.060328
     15          1           0        2.191055   -1.733384   -0.840989
     16          1           0        2.789581   -1.392207    0.789596
     17          1           0        0.472248   -1.156799    1.540494
     18          1           0       -0.205996   -0.975546   -1.439955
     19          1           0       -0.778598   -2.218215   -0.311058
 ---------------------------------------------------------------------

 SCF Done:  E(RB3LYP) =  -423.199290369     A.U. after    1 cycles

 The electronic state is 1-A.
 Alpha  occ. eigenvalues --  -19.15099 -19.13050 -10.26909 -10.23792 -10.23775
 Alpha  occ. eigenvalues --  -10.19921 -10.19427 -10.19144 -10.18746  -1.05165
 Alpha  occ. eigenvalues --   -1.03680  -0.85027  -0.77316  -0.71093  -0.65475
 Alpha  occ. eigenvalues --   -0.64224  -0.56044  -0.52982  -0.51456  -0.50505
 Alpha  occ. eigenvalues --   -0.47444  -0.45426  -0.42994  -0.42135  -0.40225
 Alpha  occ. eigenvalues --   -0.39291  -0.38202  -0.36153  -0.34977  -0.33616
 Alpha  occ. eigenvalues --   -0.32626  -0.29889  -0.27568  -0.22988
 Alpha virt. eigenvalues --   -0.01696   0.07044   0.09234   0.10555   0.12044
 Alpha virt. eigenvalues --    0.13500   0.14009   0.14619   0.16410   0.16608
 Alpha virt. eigenvalues --    0.17322   0.18165   0.19850   0.21711   0.21921

 Mulliken charges:
               1
     1  O   -0.303737
     2  C    0.360254
     3  C   -0.182111
     4  O   -0.252237
     5  C    0.136124
     6  C   -0.245783
     7  C   -0.246971
     8  C   -0.040330
     9  C   -0.318895
    10  H    0.141442
    11  H    0.117512
    12  H    0.067410
    13  H    0.118019
    14  H    0.105923
    15  H    0.104857
    16  H    0.107835
    17  H    0.080399
    18  H    0.128179
    19  H    0.122110
 Sum of Mulliken charges =   0.00000

 Dipole moment (field-independent basis, Debye):
    X=              2.5679    Y=             -0.0248    Z=              0.4411  Tot=              2.6056
 Quadrupole moment (field-independent basis, Debye-Ang):
   XX=            -60.5572   YY=            -54.3154   ZZ=            -51.0932
   XY=             -4.2893   XZ=              1.2575   YZ=              1.3883

  Exact polarizability:  89.989  -0.955  72.504  -0.644   1.418  62.277
 Approx polarizability: 121.853   2.802 103.275  -2.182  -0.341  98.213

                      1                      2                      3
                      A                      A                      A
 Frequencies --     51.8828               106.4171               218.9346
 Red. masses --      2.6123                 3.2822                 2.4460
 Frc consts  --      0.0041                 0.0219                 0.0691
 IR Inten    --      1.2568                 4.0154                 3.7897

                      4                      5                      6
                      A                      A                      A
 Frequencies --    291.6180               357.3330               399.1333
 Red. masses --      2.6239                 3.0854                 3.4907
 Frc consts  --      0.1315                 0.2321                 0.3276
 IR Inten    --      1.7935                10.0823                 0.2506

                      7                      8                      9
                      A                      A                      A
 Frequencies --    456.0654               501.4762               549.4579
 Red. masses --      4.2602                 3.6181                 3.3332
 Frc consts  --      0.5221                 0.5361                 0.5929
 IR Inten    --      9.9895                 7.7734                 1.6501

                     10                     11                     12
                      A                      A                      A
 Frequencies --    622.0050               679.2157               755.1792
 Red. masses --      2.9721                 1.9233                 1.6029
 Frc consts  --      0.6775                 0.5228                 0.5386
 IR Inten    --      2.8702                 1.1908                 3.9263

                     13                     14                     15
                      A                      A                      A
 Frequencies --    776.0881               816.8138               865.0644
 Red. masses --      2.2243                 2.8477                 2.0818
 Frc consts  --      0.7893                 1.1194                 0.9179
 IR Inten    --      2.5928                 2.5466                 0.5728

                     16                     17                     18
                      A                      A                      A
 Frequencies --    943.1850               949.2853               964.4892
 Red. masses --      2.5597                 2.4150                 1.8969
 Frc consts  --      1.3416                 1.2822                 1.0397
 IR Inten    --      6.0247                 2.2021                 4.3919

                     19                     20                     21
                      A                      A                      A
 Frequencies --    970.6552              1023.3255              1070.1181
 Red. masses --      1.6674                 2.2760                 2.4755
 Frc consts  --      0.9256                 1.4043                 1.6702
 IR Inten    --      0.2848                 6.2005                10.9068

                     22                     23                     24
                      A                      A                      A
 Frequencies --   1102.8078              1133.0966              1135.6848
 Red. masses --      2.3709                 1.7634                 3.7080
 Frc consts  --      1.6989                 1.3340                 2.8178
 IR Inten    --     10.4250                11.0432                92.9539

                     25                     26                     27
                      A                      A                      A
 Frequencies --   1164.8807              1215.5987              1240.2309
 Red. masses --      2.3690                 1.6567                 1.3654
 Frc consts  --      1.8940                 1.4423                 1.2374
 IR Inten    --     17.6896                32.3903                 2.1440

                     28                     29                     30
                      A                      A                      A
 Frequencies --   1243.5581              1265.5131              1266.0309
 Red. masses --      1.4646                 1.3493                 1.3447
 Frc consts  --      1.3344                 1.2732                 1.2699
 IR Inten    --     10.9422                17.8615                 1.9765

                     31                     32                     33
                      A                      A                      A
 Frequencies --   1273.5053              1303.0511              1308.1378
 Red. masses --      1.3806                 1.6162                 1.5247
 Frc consts  --      1.3192                 1.6169                 1.5373
 IR Inten    --     17.5895                 2.8463                 1.5791

                     34                     35                     36
                      A                      A                      A
 Frequencies --   1348.6303              1354.2569              1381.7253
 Red. masses --      1.3428                 1.4053                 1.3537
 Frc consts  --      1.4389                 1.5185                 1.5227
 IR Inten    --     19.8209                 2.9483                 6.5528

                     37                     38                     39
                      A                      A                      A
 Frequencies --   1455.6299              1458.2930              1474.8945
 Red. masses --      1.0898                 1.0879                 1.0867
 Frc consts  --      1.3606                 1.3631                 1.3928
 IR Inten    --      1.8509                12.2104                 3.0280

                     40                     41                     42
                      A                      A                      A
 Frequencies --   1495.1972              1829.1471              2967.0961
 Red. masses --      1.1164                12.0551                 1.0705
 Frc consts  --      1.4705                23.7639                 5.5525
 IR Inten    --      3.8931               189.7763                31.3877

                     43                     44                     45
                      A                      A                      A
 Frequencies --   2990.9547              3027.8877              3061.6027
 Red. masses --      1.0852                 1.0652                 1.0663
 Frc consts  --      5.7197                 5.7540                 5.8886
 IR Inten    --     58.9752                 3.7477                30.2755

                     46                     47                     48
                      A                      A                      A
 Frequencies --   3067.4785              3076.1746              3094.6761
 Red. masses --      1.0763                 1.0614                 1.0905
 Frc consts  --      5.9668                 5.9176                 6.1531
 IR Inten    --     35.2536                21.3952                10.5063

                     49                     50                     51
                      A                      A                      A
 Frequencies --   3110.1236              3113.1695              3133.4600
 Red. masses --      1.1073                 1.0984                 1.1076
 Frc consts  --      6.3105                 6.2720                 6.4076
 IR Inten    --      7.9729                16.6454                32.6658

 - Thermochemistry -
 -------------------
 Temperature   298.150 Kelvin.  Pressure   1.00000 Atm.
 Atom     1 has atomic number  8 and mass  15.99491

 Molecular mass:   126.06808 amu.
 Principal axes and moments of inertia in atomic units:
                           1         2         3
     Eigenvalues --   533.632091332.661041707.98722
           X            0.99961  -0.02791  -0.00084
           Y            0.02792   0.99940   0.02064
           Z            0.00027  -0.02066   0.99979
 This molecule is an asymmetric top.
 Rotational symmetry number  1.
 Warning -- assumption of classical behavior for rotation
           may cause significant error
 Rotational temperatures (Kelvin)      0.16231     0.06499     0.05071
 Rotational constants (GHZ):           3.38200     1.35424     1.05665
 Zero-point vibrational energy     421445.8 (Joules/Mol)
                                  100.72796 (Kcal/Mol)
 Warning -- explicit consideration of   9 degrees of freedom as
           vibrations may cause significant error
 Vibrational temperatures:     74.65   153.11   315.00   419.57   514.12
          (Kelvin)            574.26   656.18   721.51   790.55   894.93
                              977.24  1086.53  1116.62  1175.21  1244.63
                             1357.03  1365.81  1387.68  1396.55  1472.34
                             1539.66  1586.69  1630.27  1634.00  1676.00
                             1748.97  1784.41  1789.20  1820.79  1821.53
                             1832.29  1874.80  1882.12  1940.38  1948.47
                             1987.99  2094.32  2098.16  2122.04  2151.25
                             2631.73  4268.98  4303.31  4356.45  4404.96
                             4413.41  4425.92  4452.54  4474.77  4479.15
                             4508.34

 Zero-point correction=                           0.160520 (Hartree/Particle)
 Thermal correction to Energy=                    0.168263
 Thermal correction to Enthalpy=                  0.169208
 Thermal correction to Gibbs Free Energy=         0.127705
 Sum of electronic and zero-point Energies=           -423.038770
 Sum of electronic and thermal Energies=              -423.031027
 Sum of electronic and thermal Enthalpies=            -423.030083
 Sum of electronic and thermal Free Energies=         -423.071586

                     E (Thermal)             CV                S
                      KCal/Mol        Cal/Mol-Kelvin    Cal/Mol-Kelvin
 Total                  105.587             30.030             87.350
 Electronic               0.000              0.000              0.000
 Translational            0.889              2.981             40.409
 Rotational               0.889              2.981             28.587
 Vibrational            103.809             24.068             18.355
 Vibration     1          0.596              1.977              4.744
 Vibration     2          0.605              1.944              3.333
 Vibration     3          0.647              1.812              1.968
 Vibration     4          0.687              1.689              1.465
 Vibration     5          0.733              1.560              1.134
 Vibration     6          0.765              1.472              0.966
 Vibration     7          0.814              1.347              0.778
 Vibration     8          0.857              1.247              0.654
 Vibration     9          0.905              1.141              0.545

 Optimization completed.
    -- Stationary point found.
 Normal termination of Gaussian 09 at Mon Jan 27 13:55:38 2020.
