 Gaussian 09, Revision D.01,
 Gaussian 09:  ES64L-G09RevD.01 24-Apr-2013

 -----------------------------
 # b3lyp 6-31G(2df,p) opt Freq
 -----------------------------

 -----
 titel
 -----
 Symbolic Z-matrix:
 Charge =  0 Multiplicity = 1

 SCF Done:  E(RB3LYP) =  -423.204029484     A.U. after   15 cycles
 Optimization completed.
    -- Stationary point found.
 Normal termination of Gaussian 09 at Mon Jan 27 13:15:30 2020.

 ----------------------------------------------------------------------
 #N Geom=AllCheck Guess=TCheck SCRF=Check GenChk RB3LYP/6-31G(2df,p) Fr
 eq
 ----------------------------------------------------------------------

 Structure from the checkpoint file:  "/scratch/puck/g09_10a6d687-6427-4a6d-a219-7635e7eeacf8/Gau-169470.chk"
 -----
 titel
 -----
 Charge =  0 Multiplicity = 1

                         Standard orientation:
 ---------------------------------------------------------------------
 Center     Atomic      Atomic             Coordinates (Angstroms)
 Number     Number       Type             X           Y           Z
 ---------------------------------------------------------------------
      1          8           0        3.141909   -0.454456    0.202607
      2          6           0        2.355488    0.452131    0.039131
      3          6           0        0.891672    0.287441   -0.027166
      4          6           0        0.145641    1.387011   -0.215388
      5          6           0       -1.355917    1.467329   -0.256062
      6          6           0       -2.048400    0.426326    0.639880
      7          6           0       -2.027628   -0.992570    0.052581
      8          8           0       -0.841913   -1.316578   -0.647206
      9          6           0        0.359414   -1.127031    0.074300
     10          1           0        2.704764    1.503995   -0.070676
     11          1           0        0.678009    2.330571   -0.336701
     12          1           0       -1.655850    2.474538    0.054112
     13          1           0       -1.698634    1.362377   -1.295696
     14          1           0       -1.566842    0.438848    1.624275
     15          1           0       -3.093587    0.711434    0.806388
     16          1           0       -2.216679   -1.725899    0.853806
     17          1           0       -2.824899   -1.102718   -0.690220
     18          1           0        0.246484   -1.430164    1.127777
     19          1           0        1.105639   -1.798528   -0.359931
 ---------------------------------------------------------------------

 SCF Done:  E(RB3LYP) =  -423.204029484     A.U. after    1 cycles

 The electronic state is 1-A.
 Alpha  occ. eigenvalues --  -19.14263 -19.13169 -10.26426 -10.23355 -10.23344
 Alpha  occ. eigenvalues --  -10.21311 -10.20358 -10.19752 -10.19491  -1.03918
 Alpha  occ. eigenvalues --   -1.03502  -0.82876  -0.79216  -0.70449  -0.69409
 Alpha  occ. eigenvalues --   -0.60746  -0.58459  -0.54432  -0.50235  -0.49218
 Alpha  occ. eigenvalues --   -0.46098  -0.45534  -0.44567  -0.42578  -0.41909
 Alpha  occ. eigenvalues --   -0.40140  -0.38905  -0.36917  -0.35475  -0.34452
 Alpha  occ. eigenvalues --   -0.31475  -0.27145  -0.26254  -0.24327
 Alpha virt. eigenvalues --   -0.05314   0.05531   0.07693   0.10414   0.11545
 Alpha virt. eigenvalues --    0.12641   0.13373   0.14304   0.15092   0.16098
 Alpha virt. eigenvalues --    0.17633   0.19208   0.19704   0.21380   0.22010

 Mulliken charges:
               1
     1  O   -0.281743
     2  C    0.097673
     3  C    0.205102
     4  C   -0.119103
     5  C   -0.248548
     6  C   -0.234523
     7  C   -0.064783
     8  O   -0.234281
     9  C   -0.193966
    10  H    0.069714
    11  H    0.099509
    12  H    0.110230
    13  H    0.132681
    14  H    0.110352
    15  H    0.104941
    16  H    0.091986
    17  H    0.109738
    18  H    0.106613
    19  H    0.138407
 Sum of Mulliken charges =   0.00000

 Dipole moment (field-independent basis, Debye):
    X=             -3.1277    Y=              2.2826    Z=              0.6474  Tot=              3.9258
 Quadrupole moment (field-independent basis, Debye-Ang):
   XX=            -59.6421   YY=            -51.7176   ZZ=            -53.7691
   XY=              2.6181   XZ=             -1.7818   YZ=             -1.8476

  Exact polarizability: 103.118  -8.137  83.103   1.686  -4.466  55.248
 Approx polarizability: 146.586 -29.063 131.239   7.547  -8.269  88.858

                      1                      2                      3
                      A                      A                      A
 Frequencies --     73.6411               123.3989               207.1765
 Red. masses --      3.1463                 2.7610                 6.0731
 Frc consts  --      0.0101                 0.0248                 0.1536
 IR Inten    --      1.9915                 2.8599                 7.8387

                      4                      5                      6
                      A                      A                      A
 Frequencies --    231.7530               259.2666               330.9158
 Red. masses --      2.1583                 3.4212                 2.1298
 Frc consts  --      0.0683                 0.1355                 0.1374
 IR Inten    --      1.9420                 3.8404                 3.8776

                      7                      8                      9
                      A                      A                      A
 Frequencies --    353.5254               378.0270               468.6046
 Red. masses --      3.6520                 2.5159                 2.4350
 Frc consts  --      0.2689                 0.2118                 0.3150
 IR Inten    --      2.3517                 1.7756                 3.1093

                     10                     11                     12
                      A                      A                      A
 Frequencies --    524.0636               590.6061               697.8783
 Red. masses --      4.9192                 2.1775                 4.3012
 Frc consts  --      0.7960                 0.4475                 1.2342
 IR Inten    --      0.7914                 3.4452                32.1774

                     13                     14                     15
                      A                      A                      A
 Frequencies --    783.4132               832.8431               842.9392
 Red. masses --      2.0977                 2.1204                 1.9140
 Frc consts  --      0.7585                 0.8666                 0.8013
 IR Inten    --      3.7990                 5.9194                 9.5436

                     16                     17                     18
                      A                      A                      A
 Frequencies --    912.4172               930.6524               959.6289
 Red. masses --      1.7258                 2.4178                 2.6201
 Frc consts  --      0.8465                 1.2338                 1.4216
 IR Inten    --      5.2162                10.6699                 1.5466

                     19                     20                     21
                      A                      A                      A
 Frequencies --   1003.1489              1028.1480              1055.6772
 Red. masses --      2.0172                 1.9264                 2.1021
 Frc consts  --      1.1960                 1.1998                 1.3803
 IR Inten    --      2.8027                11.1770                15.9893

                     22                     23                     24
                      A                      A                      A
 Frequencies --   1081.7823              1115.3023              1148.3834
 Red. masses --      1.9713                 2.0092                 3.7247
 Frc consts  --      1.3592                 1.4725                 2.8941
 IR Inten    --      3.9695                 3.5644                13.7150

                     25                     26                     27
                      A                      A                      A
 Frequencies --   1200.2495              1221.3451              1257.4703
 Red. masses --      2.1507                 1.3537                 1.4057
 Frc consts  --      1.8255                 1.1898                 1.3096
 IR Inten    --    118.5379                50.3410                11.8583

                     28                     29                     30
                      A                      A                      A
 Frequencies --   1280.3900              1323.2910              1355.4237
 Red. masses --      1.2130                 1.1679                 1.2793
 Frc consts  --      1.1716                 1.2050                 1.3847
 IR Inten    --     13.0551                 3.0097                 8.0485

                     31                     32                     33
                      A                      A                      A
 Frequencies --   1371.9005              1388.0009              1401.6085
 Red. masses --      1.4612                 1.3967                 1.4585
 Frc consts  --      1.6203                 1.5853                 1.6882
 IR Inten    --      0.6815                 0.0325                24.6507

                     34                     35                     36
                      A                      A                      A
 Frequencies --   1421.5140              1434.1345              1465.7110
 Red. masses --      1.3661                 1.2663                 1.0917
 Frc consts  --      1.6264                 1.5345                 1.3818
 IR Inten    --      6.6733                 5.2326                 7.1675

                     37                     38                     39
                      A                      A                      A
 Frequencies --   1482.2097              1490.1274              1503.1622
 Red. masses --      1.0886                 1.0741                 1.0960
 Frc consts  --      1.4091                 1.4052                 1.4590
 IR Inten    --      4.1068                 4.0043                 2.9102

                     40                     41                     42
                      A                      A                      A
 Frequencies --   1706.3394              1785.4588              2871.0510
 Red. masses --      7.0152                10.5270                 1.0830
 Frc consts  --     12.0342                19.7722                 5.2595
 IR Inten    --     53.1025               240.8630               114.2413

                     43                     44                     45
                      A                      A                      A
 Frequencies --   2971.0951              2976.3270              3011.7215
 Red. masses --      1.0704                 1.0715                 1.0668
 Frc consts  --      5.5673                 5.5923                 5.7014
 IR Inten    --     56.2378                42.0967                11.0292

                     46                     47                     48
                      A                      A                      A
 Frequencies --   3036.1819              3060.0617              3060.6070
 Red. masses --      1.0622                 1.0958                 1.0909
 Frc consts  --      5.7690                 6.0459                 6.0209
 IR Inten    --     25.0317                 2.9927                29.9798

                     49                     50                     51
                      A                      A                      A
 Frequencies --   3082.5289              3088.8914              3126.4261
 Red. masses --      1.0995                 1.0901                 1.0876
 Frc consts  --      6.1555                 6.1282                 6.2636
 IR Inten    --     53.8107                 7.7810                18.2573

 - Thermochemistry -
 -------------------
 Temperature   298.150 Kelvin.  Pressure   1.00000 Atm.
 Atom     1 has atomic number  8 and mass  15.99491

 Molecular mass:   126.06808 amu.
 Principal axes and moments of inertia in atomic units:
                           1         2         3
     Eigenvalues --   571.620431534.442731953.42333
           X            0.99996   0.00250  -0.00906
           Y           -0.00272   0.99970  -0.02436
           Z            0.00900   0.02438   0.99966
 This molecule is an asymmetric top.
 Rotational symmetry number  1.
 Warning -- assumption of classical behavior for rotation
           may cause significant error
 Rotational temperatures (Kelvin)      0.15152     0.05645     0.04434
 Rotational constants (GHZ):           3.15724     1.17615     0.92389
 Zero-point vibrational energy     420525.8 (Joules/Mol)
                                  100.50807 (Kcal/Mol)
 Warning -- explicit consideration of  11 degrees of freedom as
           vibrations may cause significant error
 Vibrational temperatures:    105.95   177.54   298.08   333.44   373.03
          (Kelvin)            476.11   508.64   543.90   674.22   754.01
                              849.75  1004.09  1127.16  1198.27  1212.80
                             1312.76  1339.00  1380.69  1443.31  1479.27
                             1518.88  1556.44  1604.67  1652.27  1726.89
                             1757.24  1809.22  1842.19  1903.92  1950.15
                             1973.86  1997.02  2016.60  2045.24  2063.40
                             2108.83  2132.57  2143.96  2162.71  2455.04
                             2568.87  4130.80  4274.74  4282.27  4333.19
                             4368.38  4402.74  4403.53  4435.07  4444.22
                             4498.22

 Zero-point correction=                           0.160170 (Hartree/Particle)
 Thermal correction to Energy=                    0.168491
 Thermal correction to Enthalpy=                  0.169435
 Thermal correction to Gibbs Free Energy=         0.126999
 Sum of electronic and zero-point Energies=           -423.043860
 Sum of electronic and thermal Energies=              -423.035538
 Sum of electronic and thermal Enthalpies=            -423.034594
 Sum of electronic and thermal Free Energies=         -423.077031

                     E (Thermal)             CV                S
                      KCal/Mol        Cal/Mol-Kelvin    Cal/Mol-Kelvin
 Total                  105.730             31.287             89.315
 Electronic               0.000              0.000              0.000
 Translational            0.889              2.981             40.409
 Rotational               0.889              2.981             28.929
 Vibrational            103.952             25.325             19.978
 Vibration     1          0.599              1.966              4.054
 Vibration     2          0.610              1.930              3.046
 Vibration     3          0.641              1.830              2.068
 Vibration     4          0.653              1.792              1.865
 Vibration     5          0.668              1.747              1.667
 Vibration     6          0.713              1.614              1.256
 Vibration     7          0.730              1.568              1.150
 Vibration     8          0.748              1.517              1.047
 Vibration     9          0.826              1.320              0.741
 Vibration    10          0.879              1.197              0.601
 Vibration    11          0.948              1.052              0.466

 Optimization completed.
    -- Stationary point found.
 Normal termination of Gaussian 09 at Mon Jan 27 13:58:01 2020.
