 Gaussian 09, Revision D.01,
 Gaussian 09:  ES64L-G09RevD.01 24-Apr-2013

 -----------------------------
 # b3lyp 6-31G(2df,p) opt Freq
 -----------------------------

 -----
 titel
 -----
 Symbolic Z-matrix:
 Charge =  0 Multiplicity = 1

 SCF Done:  E(RB3LYP) =  -423.114529712     A.U. after   12 cycles
 Optimization completed.
    -- Stationary point found.
 Normal termination of Gaussian 09 at Mon Jan 27 18:09:09 2020.

 ----------------------------------------------------------------------
 #N Geom=AllCheck Guess=TCheck SCRF=Check GenChk RB3LYP/6-31G(2df,p) Fr
 eq
 ----------------------------------------------------------------------

 Structure from the checkpoint file:  "/scratch/puck/g09_0c784663-e268-4ec1-a8c3-6f7ff67db9f5/Gau-41307.chk"
 -----
 titel
 -----
 Charge =  0 Multiplicity = 1

                         Standard orientation:
 ---------------------------------------------------------------------
 Center     Atomic      Atomic             Coordinates (Angstroms)
 Number     Number       Type             X           Y           Z
 ---------------------------------------------------------------------
      1          8           0       -2.527013   -0.794814    0.121511
      2          6           0       -1.327805   -0.120860    0.021683
      3          6           0       -0.524624    0.345365    1.242084
      4          6           0        0.281017    0.810606   -0.017726
      5          6           0       -1.056923    1.309117   -0.617624
      6          6           0        1.775430    0.948089   -0.043442
      7          8           0        2.227629   -0.406134    0.157650
      8          6           0        1.187597   -1.380438   -0.129494
      9          6           0        0.012361   -0.572292   -0.664455
     10          1           0       -2.842781   -0.995400   -0.766242
     11          1           0       -0.973310    1.140705    1.842001
     12          1           0       -0.076742   -0.423154    1.871437
     13          1           0       -1.544605    2.153371   -0.124893
     14          1           0       -1.111124    1.381552   -1.707565
     15          1           0        2.133009    1.339134   -1.007678
     16          1           0        2.197481    1.558136    0.761419
     17          1           0        1.571806   -2.084285   -0.875554
     18          1           0        0.975990   -1.942855    0.786876
     19          1           0       -0.016970   -0.557136   -1.759246
 ---------------------------------------------------------------------

 SCF Done:  E(RB3LYP) =  -423.114529712     A.U. after    1 cycles

 The electronic state is 1-A.
 Alpha  occ. eigenvalues --  -19.15115 -19.12786 -10.25977 -10.22858 -10.22483
 Alpha  occ. eigenvalues --  -10.20739 -10.19626 -10.18832 -10.18534  -1.03907
 Alpha  occ. eigenvalues --   -1.01702  -0.91159  -0.73693  -0.70212  -0.67804
 Alpha  occ. eigenvalues --   -0.62213  -0.58898  -0.53611  -0.51796  -0.48838
 Alpha  occ. eigenvalues --   -0.46699  -0.44831  -0.43067  -0.41267  -0.40392
 Alpha  occ. eigenvalues --   -0.39527  -0.36276  -0.34977  -0.32402  -0.31401
 Alpha  occ. eigenvalues --   -0.30913  -0.28242  -0.26140  -0.24339
 Alpha virt. eigenvalues --    0.07553   0.09117   0.10549   0.11497   0.12061
 Alpha virt. eigenvalues --    0.12686   0.14363   0.14942   0.15173   0.15739
 Alpha virt. eigenvalues --    0.17532   0.17950   0.19717   0.22136   0.23010

 Mulliken charges:
               1
     1  O   -0.461750
     2  C    0.377278
     3  C   -0.292887
     4  C    0.307987
     5  C   -0.381445
     6  C   -0.193433
     7  O   -0.284069
     8  C   -0.118971
     9  C   -0.107752
    10  H    0.283521
    11  H    0.093262
    12  H    0.109882
    13  H    0.099767
    14  H    0.092488
    15  H    0.094903
    16  H    0.108449
    17  H    0.099431
    18  H    0.107155
    19  H    0.066185
 Sum of Mulliken charges =   0.00000

 Dipole moment (field-independent basis, Debye):
    X=             -1.1064    Y=              0.5573    Z=             -1.6193  Tot=              2.0388
 Quadrupole moment (field-independent basis, Debye-Ang):
   XX=            -59.1582   YY=            -51.4161   ZZ=            -50.8742
   XY=              1.1937   XZ=              3.3100   YZ=              2.0720

  Exact polarizability:  80.589  -1.520  75.039   0.692   1.017  70.383
 Approx polarizability: 113.821  -0.247 111.738   1.255   1.387 108.927

                      1                      2                      3
                      A                      A                      A
 Frequencies --    113.6620               224.5143               254.1905
 Red. masses --      4.0589                 2.2937                 2.5078
 Frc consts  --      0.0309                 0.0681                 0.0955
 IR Inten    --      4.7755                11.4578                 3.7195

                      4                      5                      6
                      A                      A                      A
 Frequencies --    292.8382               348.8481               400.8666
 Red. masses --      1.4660                 2.4233                 2.6575
 Frc consts  --      0.0741                 0.1737                 0.2516
 IR Inten    --     80.9937                 9.5424                 6.2991

                      7                      8                      9
                      A                      A                      A
 Frequencies --    487.7714               513.8826               579.3818
 Red. masses --      3.3795                 2.8197                 2.8501
 Frc consts  --      0.4737                 0.4387                 0.5637
 IR Inten    --      1.7719                 1.7693                 1.4911

                     10                     11                     12
                      A                      A                      A
 Frequencies --    628.7414               695.3779               727.2077
 Red. masses --      3.0968                 3.2338                 3.0747
 Frc consts  --      0.7213                 0.9213                 0.9580
 IR Inten    --      3.3324                 3.0529                14.5218

                     13                     14                     15
                      A                      A                      A
 Frequencies --    800.4493               813.4715               869.8036
 Red. masses --      3.5241                 3.5213                 3.5981
 Frc consts  --      1.3303                 1.3729                 1.6039
 IR Inten    --      1.6359                 7.6141                 0.3035

                     16                     17                     18
                      A                      A                      A
 Frequencies --    873.2685               968.1425               986.2189
 Red. masses --      3.5076                 2.1254                 1.4968
 Frc consts  --      1.5760                 1.1738                 0.8578
 IR Inten    --     25.1626                 3.8498                 6.5915

                     19                     20                     21
                      A                      A                      A
 Frequencies --   1000.8570              1013.5812              1037.2077
 Red. masses --      2.1811                 1.8840                 1.8963
 Frc consts  --      1.2873                 1.1404                 1.2020
 IR Inten    --     34.0201                 6.2584                26.5679

                     22                     23                     24
                      A                      A                      A
 Frequencies --   1067.8508              1098.1544              1110.6998
 Red. masses --      2.5156                 1.6869                 1.8148
 Frc consts  --      1.6901                 1.1986                 1.3191
 IR Inten    --      1.4354                45.8985                 7.5139

                     25                     26                     27
                      A                      A                      A
 Frequencies --   1114.2295              1133.4236              1142.3730
 Red. masses --      2.0891                 1.4481                 1.4625
 Frc consts  --      1.5281                 1.0961                 1.1245
 IR Inten    --     10.3971                 7.0745                 5.5796

                     28                     29                     30
                      A                      A                      A
 Frequencies --   1160.4519              1173.7911              1204.9085
 Red. masses --      1.4936                 1.9675                 1.1665
 Frc consts  --      1.1851                 1.5972                 0.9978
 IR Inten    --      4.4630                 3.1169                 0.3976

                     31                     32                     33
                      A                      A                      A
 Frequencies --   1235.9274              1275.0154              1309.3769
 Red. masses --      1.2531                 2.5467                 1.7239
 Frc consts  --      1.1278                 2.4392                 1.7414
 IR Inten    --     33.9485               233.8030                42.9096

                     34                     35                     36
                      A                      A                      A
 Frequencies --   1345.2952              1362.2636              1378.6369
 Red. masses --      1.5441                 1.7973                 1.5288
 Frc consts  --      1.6465                 1.9651                 1.7120
 IR Inten    --      6.3075                 5.0657                 9.1046

                     37                     38                     39
                      A                      A                      A
 Frequencies --   1416.3399              1494.3583              1516.1897
 Red. masses --      1.6046                 1.1034                 1.0917
 Frc consts  --      1.8965                 1.4518                 1.4786
 IR Inten    --     13.0404                 1.2011                 0.6120

                     40                     41                     42
                      A                      A                      A
 Frequencies --   1524.9942              1554.1929              2991.4798
 Red. masses --      1.1329                 1.2166                 1.0678
 Frc consts  --      1.5523                 1.7314                 5.6302
 IR Inten    --      1.9181                10.3342                75.5147

                     43                     44                     45
                      A                      A                      A
 Frequencies --   3030.6382              3040.1080              3052.5054
 Red. masses --      1.0580                 1.0858                 1.0565
 Frc consts  --      5.7252                 5.9129                 5.8002
 IR Inten    --     51.3768                12.2004                48.9961

                     46                     47                     48
                      A                      A                      A
 Frequencies --   3069.3404              3071.4670              3073.6870
 Red. masses --      1.1030                 1.0930                 1.0633
 Frc consts  --      6.1225                 6.0753                 5.9189
 IR Inten    --     44.4661                32.0596                42.1961

                     49                     50                     51
                      A                      A                      A
 Frequencies --   3123.8328              3145.6122              3809.0943
 Red. masses --      1.1114                 1.1069                 1.0657
 Frc consts  --      6.3897                 6.4529                 9.1102
 IR Inten    --     35.2825                26.4118                29.5581

 - Thermochemistry -
 -------------------
 Temperature   298.150 Kelvin.  Pressure   1.00000 Atm.
 Atom     1 has atomic number  8 and mass  15.99491

 Molecular mass:   126.06808 amu.
 Principal axes and moments of inertia in atomic units:
                           1         2         3
     Eigenvalues --   528.669541237.780581438.94279
           X            0.99994  -0.00996   0.00489
           Y            0.00992   0.99991   0.00941
           Z           -0.00498  -0.00936   0.99994
 This molecule is an asymmetric top.
 Rotational symmetry number  1.
 Warning -- assumption of classical behavior for rotation
           may cause significant error
 Rotational temperatures (Kelvin)      0.16383     0.06998     0.06019
 Rotational constants (GHZ):           3.41374     1.45805     1.25421
 Zero-point vibrational energy     422619.8 (Joules/Mol)
                                  101.00857 (Kcal/Mol)
 Warning -- explicit consideration of   9 degrees of freedom as
           vibrations may cause significant error
 Vibrational temperatures:    163.53   323.03   365.72   421.33   501.91
          (Kelvin)            576.76   701.79   739.36   833.60   904.62
                             1000.49  1046.29  1151.67  1170.40  1251.45
                             1256.44  1392.94  1418.95  1440.01  1458.32
                             1492.31  1536.40  1580.00  1598.05  1603.13
                             1630.74  1643.62  1669.63  1688.82  1733.59
                             1778.22  1834.46  1883.90  1935.58  1959.99
                             1983.55  2037.79  2150.05  2181.46  2194.12
                             2236.13  4304.07  4360.41  4374.03  4391.87
                             4416.09  4419.15  4422.34  4494.49  4525.83
                             5480.43

 Zero-point correction=                           0.160967 (Hartree/Particle)
 Thermal correction to Energy=                    0.168338
 Thermal correction to Enthalpy=                  0.169282
 Thermal correction to Gibbs Free Energy=         0.129445
 Sum of electronic and zero-point Energies=           -422.953562
 Sum of electronic and thermal Energies=              -422.946192
 Sum of electronic and thermal Enthalpies=            -422.945248
 Sum of electronic and thermal Free Energies=         -422.985084

                     E (Thermal)             CV                S
                      KCal/Mol        Cal/Mol-Kelvin    Cal/Mol-Kelvin
 Total                  105.634             30.105             83.843
 Electronic               0.000              0.000              0.000
 Translational            0.889              2.981             40.409
 Rotational               0.889              2.981             28.334
 Vibrational            103.856             24.144             15.101
 Vibration     1          0.607              1.938              3.205
 Vibration     2          0.649              1.804              1.922
 Vibration     3          0.665              1.756              1.701
 Vibration     4          0.688              1.687              1.458
 Vibration     5          0.726              1.578              1.171
 Vibration     6          0.767              1.468              0.959
 Vibration     7          0.844              1.277              0.689
 Vibration     8          0.869              1.219              0.624
 Vibration     9          0.936              1.076              0.487

 Normal termination of Gaussian 09 at Mon Jan 27 19:17:08 2020.
