 Gaussian 09, Revision D.01,
 Gaussian 09:  ES64L-G09RevD.01 24-Apr-2013

 -----------------------------
 # b3lyp 6-31G(2df,p) opt Freq
 -----------------------------

 -----
 titel
 -----
 Symbolic Z-matrix:
 Charge =  0 Multiplicity = 1

 SCF Done:  E(RB3LYP) =  -423.197039683     A.U. after   14 cycles
 Optimization completed.
    -- Stationary point found.
 Normal termination of Gaussian 09 at Mon Jan 27 12:18:21 2020.

 ----------------------------------------------------------------------
 #N Geom=AllCheck Guess=TCheck SCRF=Check GenChk RB3LYP/6-31G(2df,p) Fr
 eq
 ----------------------------------------------------------------------

 Structure from the checkpoint file:  "/scratch/puck/g09_84c07d55-e2b7-47f7-ab74-d6536d6eb64c/Gau-35490.chk"
 -----
 titel
 -----
 Charge =  0 Multiplicity = 1

                         Standard orientation:
 ---------------------------------------------------------------------
 Center     Atomic      Atomic             Coordinates (Angstroms)
 Number     Number       Type             X           Y           Z
 ---------------------------------------------------------------------
      1          6           0        1.690217    1.174010   -0.058363
      2          8           0        2.499728    0.003206    0.036976
      3          6           0        1.680029   -1.164410    0.073250
      4          6           0        0.269654   -0.653053    0.009266
      5          6           0        0.272993    0.676262   -0.056190
      6          6           0       -0.985089    1.486012   -0.099899
      7          6           0       -2.153456    0.581093    0.325415
      8          8           0       -2.118679   -0.671808   -0.338967
      9          6           0       -0.990519   -1.460116    0.004571
     10          1           0        1.902551    1.844070    0.790821
     11          1           0        1.941714    1.730235   -0.976461
     12          1           0        1.928743   -1.822593   -0.775602
     13          1           0        1.886947   -1.735623    0.992938
     14          1           0       -0.926375    2.352780    0.571589
     15          1           0       -1.157386    1.885250   -1.108647
     16          1           0       -2.123576    0.435537    1.417793
     17          1           0       -3.117080    1.029581    0.069656
     18          1           0       -1.141040   -1.945824    0.986752
     19          1           0       -0.945863   -2.263380   -0.741212
 ---------------------------------------------------------------------

 SCF Done:  E(RB3LYP) =  -423.197039683     A.U. after    1 cycles

 The electronic state is 1-A.
 Alpha  occ. eigenvalues --  -19.14146 -19.13227 -10.23717 -10.23221 -10.23086
 Alpha  occ. eigenvalues --  -10.22901 -10.19359 -10.18635 -10.18358  -1.03636
 Alpha  occ. eigenvalues --   -1.02885  -0.81508  -0.77538  -0.72761  -0.67419
 Alpha  occ. eigenvalues --   -0.62421  -0.60346  -0.51998  -0.50683  -0.48249
 Alpha  occ. eigenvalues --   -0.47765  -0.45929  -0.43053  -0.42539  -0.41409
 Alpha  occ. eigenvalues --   -0.40363  -0.38947  -0.37882  -0.35189  -0.31588
 Alpha  occ. eigenvalues --   -0.30903  -0.26229  -0.25618  -0.22648
 Alpha virt. eigenvalues --    0.02102   0.08974   0.10932   0.11344   0.11475
 Alpha virt. eigenvalues --    0.13057   0.13852   0.15735   0.16459   0.17222
 Alpha virt. eigenvalues --    0.17890   0.18387   0.18549   0.20177   0.21170

 Mulliken charges:
               1
     1  C   -0.166209
     2  O   -0.268291
     3  C   -0.164529
     4  C    0.182504
     5  C    0.206462
     6  C   -0.334295
     7  C   -0.074062
     8  O   -0.245789
     9  C   -0.187279
    10  H    0.100708
    11  H    0.102691
    12  H    0.102660
    13  H    0.102600
    14  H    0.105728
    15  H    0.118425
    16  H    0.090850
    17  H    0.109710
    18  H    0.098727
    19  H    0.119390
 Sum of Mulliken charges =   0.00000

 Dipole moment (field-independent basis, Debye):
    X=             -0.8704    Y=              0.5372    Z=              0.6056  Tot=              1.1887
 Quadrupole moment (field-independent basis, Debye-Ang):
   XX=            -61.6597   YY=            -48.0177   ZZ=            -52.8668
   XY=             -2.6323   XZ=             -1.8253   YZ=             -0.3859

  Exact polarizability:  80.377  -2.595  93.198  -0.944  -1.407  59.303
 Approx polarizability: 104.579  -2.307 143.870   0.894  -2.189  92.481

                      1                      2                      3
                      A                      A                      A
 Frequencies --    103.9208               122.3446               186.4461
 Red. masses --      3.9217                 2.1935                 2.3046
 Frc consts  --      0.0250                 0.0193                 0.0472
 IR Inten    --      5.9921                 1.4522                 0.4946

                      4                      5                      6
                      A                      A                      A
 Frequencies --    265.4284               315.6543               334.0647
 Red. masses --      2.1073                 2.1542                 3.8235
 Frc consts  --      0.0875                 0.1265                 0.2514
 IR Inten    --      3.9351                 4.2114                 0.9831

                      7                      8                      9
                      A                      A                      A
 Frequencies --    434.9353               498.6534               515.1524
 Red. masses --      3.9031                 3.1017                 3.5718
 Frc consts  --      0.4350                 0.4544                 0.5585
 IR Inten    --      0.0972                 1.6937                 2.0529

                     10                     11                     12
                      A                      A                      A
 Frequencies --    655.0450               714.8201               839.6827
 Red. masses --      3.6386                 3.2182                 4.5715
 Frc consts  --      0.9199                 0.9688                 1.8991
 IR Inten    --      1.2683                10.9553                12.4994

                     13                     14                     15
                      A                      A                      A
 Frequencies --    855.9321               919.6299               934.8351
 Red. masses --      2.3683                 2.2787                 4.3890
 Frc consts  --      1.0223                 1.1354                 2.2599
 IR Inten    --      8.1714                 5.4084                14.5450

                     16                     17                     18
                      A                      A                      A
 Frequencies --    952.2889               976.9499              1027.1832
 Red. masses --      1.4267                 3.1669                 1.6008
 Frc consts  --      0.7623                 1.7808                 0.9952
 IR Inten    --      0.5481                19.9266                 4.9494

                     19                     20                     21
                      A                      A                      A
 Frequencies --   1063.9304              1077.5698              1093.2897
 Red. masses --      1.7251                 5.9822                 2.7251
 Frc consts  --      1.1505                 4.0926                 1.9191
 IR Inten    --      2.8075                26.5413                13.5795

                     22                     23                     24
                      A                      A                      A
 Frequencies --   1115.4258              1138.7704              1164.7444
 Red. masses --      4.5974                 3.1922                 1.1349
 Frc consts  --      3.3701                 2.4390                 0.9071
 IR Inten    --     89.1968                21.7395                 0.9346

                     25                     26                     27
                      A                      A                      A
 Frequencies --   1184.3276              1218.4664              1225.2700
 Red. masses --      2.6860                 1.1884                 1.3249
 Frc consts  --      2.2197                 1.0396                 1.1719
 IR Inten    --     18.8084                 1.4884                 1.7301

                     28                     29                     30
                      A                      A                      A
 Frequencies --   1239.4077              1262.7597              1311.9342
 Red. masses --      1.3383                 1.4132                 1.2736
 Frc consts  --      1.2113                 1.3277                 1.2916
 IR Inten    --      2.5319                 7.9249                 2.7954

                     31                     32                     33
                      A                      A                      A
 Frequencies --   1346.0363              1373.4133              1395.6998
 Red. masses --      1.3078                 1.4162                 1.5531
 Frc consts  --      1.3961                 1.5739                 1.7825
 IR Inten    --      9.4600                 2.5258                13.4442

                     34                     35                     36
                      A                      A                      A
 Frequencies --   1407.5863              1424.2120              1471.6385
 Red. masses --      1.7755                 1.6262                 1.0931
 Frc consts  --      2.0727                 1.9435                 1.3948
 IR Inten    --      0.6942                16.3025                 1.7483

                     37                     38                     39
                      A                      A                      A
 Frequencies --   1487.8836              1499.7652              1516.9962
 Red. masses --      1.0796                 1.0995                 1.0828
 Frc consts  --      1.4081                 1.4572                 1.4681
 IR Inten    --      0.4859                 2.2162                 3.1954

                     40                     41                     42
                      A                      A                      A
 Frequencies --   1528.8199              1756.2007              2931.8615
 Red. masses --      1.0874                 8.2456                 1.0723
 Frc consts  --      1.4975                14.9838                 5.4309
 IR Inten    --      0.2261                 1.0636                51.8502

                     43                     44                     45
                      A                      A                      A
 Frequencies --   2959.6531              2967.4934              2972.2620
 Red. masses --      1.0548                 1.0574                 1.0712
 Frc consts  --      5.4437                 5.4859                 5.5755
 IR Inten    --    163.3868                23.2910                44.8012

                     46                     47                     48
                      A                      A                      A
 Frequencies --   2976.6006              2979.4633              3013.5647
 Red. masses --      1.1037                 1.1068                 1.0599
 Frc consts  --      5.7614                 5.7889                 5.6713
 IR Inten    --      2.2876               105.0246                37.2239

                     49                     50                     51
                      A                      A                      A
 Frequencies --   3044.6336              3046.5722              3092.4990
 Red. masses --      1.0872                 1.0993                 1.0937
 Frc consts  --      5.9380                 6.0114                 6.1624
 IR Inten    --     45.2008                17.6920                39.8351

 - Thermochemistry -
 -------------------
 Temperature   298.150 Kelvin.  Pressure   1.00000 Atm.
 Atom     1 has atomic number  6 and mass  12.00000

 Molecular mass:   126.06808 amu.
 Principal axes and moments of inertia in atomic units:
                           1         2         3
     Eigenvalues --   537.750321307.139261761.48163
           X            0.99979  -0.01883  -0.00840
           Y            0.01878   0.99980  -0.00615
           Z            0.00851   0.00599   0.99995
 This molecule is an asymmetric top.
 Rotational symmetry number  1.
 Warning -- assumption of classical behavior for rotation
           may cause significant error
 Rotational temperatures (Kelvin)      0.16107     0.06626     0.04917
 Rotational constants (GHZ):           3.35610     1.38068     1.02456
 Zero-point vibrational energy     424325.7 (Joules/Mol)
                                  101.41628 (Kcal/Mol)
 Warning -- explicit consideration of   9 degrees of freedom as
           vibrations may cause significant error
 Vibrational temperatures:    149.52   176.03   268.25   381.89   454.16
          (Kelvin)            480.64   625.77   717.45   741.19   942.46
                             1028.47  1208.11  1231.49  1323.14  1345.02
                             1370.13  1405.61  1477.89  1530.76  1550.38
                             1573.00  1604.85  1638.43  1675.81  1703.98
                             1753.10  1762.89  1783.23  1816.83  1887.58
                             1936.64  1976.03  2008.10  2025.20  2049.12
                             2117.36  2140.73  2157.82  2182.62  2199.63
                             2526.78  4218.29  4258.28  4269.56  4276.42
                             4282.66  4286.78  4335.84  4380.54  4383.33
                             4449.41

 Zero-point correction=                           0.161617 (Hartree/Particle)
 Thermal correction to Energy=                    0.169295
 Thermal correction to Enthalpy=                  0.170240
 Thermal correction to Gibbs Free Energy=         0.129224
 Sum of electronic and zero-point Energies=           -423.035423
 Sum of electronic and thermal Energies=              -423.027744
 Sum of electronic and thermal Enthalpies=            -423.026800
 Sum of electronic and thermal Free Energies=         -423.067816

                     E (Thermal)             CV                S
                      KCal/Mol        Cal/Mol-Kelvin    Cal/Mol-Kelvin
 Total                  106.234             29.216             86.325
 Electronic               0.000              0.000              0.000
 Translational            0.889              2.981             40.409
 Rotational               0.889              2.981             28.606
 Vibrational            104.457             23.254             17.311
 Vibration     1          0.605              1.946              3.379
 Vibration     2          0.610              1.930              3.063
 Vibration     3          0.632              1.858              2.263
 Vibration     4          0.671              1.736              1.626
 Vibration     5          0.703              1.644              1.333
 Vibration     6          0.716              1.607              1.240
 Vibration     7          0.796              1.394              0.843
 Vibration     8          0.854              1.253              0.662
 Vibration     9          0.870              1.216              0.621

 Normal termination of Gaussian 09 at Mon Jan 27 13:01:45 2020.
