 Gaussian 09, Revision D.01,
 Gaussian 09:  ES64L-G09RevD.01 24-Apr-2013

 -----------------------------
 # b3lyp 6-31G(2df,p) opt Freq
 -----------------------------

 -----
 titel
 -----
 Symbolic Z-matrix:
 Charge =  0 Multiplicity = 1

 SCF Done:  E(RB3LYP) =  -423.203336538     A.U. after   13 cycles
 Optimization completed.
    -- Stationary point found.
 Normal termination of Gaussian 09 at Tue Jan 28 08:10:18 2020.

 ----------------------------------------------------------------------
 #N Geom=AllCheck Guess=TCheck SCRF=Check GenChk RB3LYP/6-31G(2df,p) Fr
 eq
 ----------------------------------------------------------------------

 Structure from the checkpoint file:  "/scratch/puck/g09_fb749d9d-2c06-4599-b4f6-2fa9e244dfa5/Gau-127697.chk"
 -----
 titel
 -----
 Charge =  0 Multiplicity = 1

                         Standard orientation:
 ---------------------------------------------------------------------
 Center     Atomic      Atomic             Coordinates (Angstroms)
 Number     Number       Type             X           Y           Z
 ---------------------------------------------------------------------
      1          8           0       -2.456832    0.543187   -0.481713
      2          6           0       -1.292587    0.635724    0.323365
      3          6           0       -1.017175   -0.673647    1.062294
      4          8           0       -0.444258   -1.511037    0.057817
      5          6           0        0.447055   -0.710134   -0.731438
      6          6           0        1.917958   -0.786332   -0.240610
      7          6           0        2.181931    0.574567    0.350551
      8          6           0        1.160225    1.412198    0.177863
      9          6           0       -0.006330    0.773993   -0.531535
     10          1           0       -2.414515   -0.307594   -0.934692
     11          1           0       -1.446132    1.486443    0.992031
     12          1           0       -0.326275   -0.522653    1.904485
     13          1           0       -1.929081   -1.153085    1.426046
     14          1           0        0.348846   -1.066770   -1.759462
     15          1           0        2.030122   -1.603077    0.482117
     16          1           0        2.607831   -1.005628   -1.065832
     17          1           0        3.117397    0.826375    0.838949
     18          1           0        1.135523    2.444935    0.509247
     19          1           0       -0.261456    1.285642   -1.464667
 ---------------------------------------------------------------------

 SCF Done:  E(RB3LYP) =  -423.203336538     A.U. after    1 cycles

 The electronic state is 1-A.
 Alpha  occ. eigenvalues --  -19.14048 -19.13336 -10.23209 -10.23152 -10.22343
 Alpha  occ. eigenvalues --  -10.18808 -10.18591 -10.18449 -10.18310  -1.04273
 Alpha  occ. eigenvalues --   -1.00897  -0.83843  -0.75752  -0.71360  -0.68755
 Alpha  occ. eigenvalues --   -0.60212  -0.56627  -0.54778  -0.51414  -0.50294
 Alpha  occ. eigenvalues --   -0.47773  -0.44872  -0.42973  -0.40245  -0.39923
 Alpha  occ. eigenvalues --   -0.37470  -0.37331  -0.36132  -0.35492  -0.32234
 Alpha  occ. eigenvalues --   -0.31217  -0.27733  -0.25782  -0.23781
 Alpha virt. eigenvalues --    0.01718   0.08075   0.10794   0.11455   0.12218
 Alpha virt. eigenvalues --    0.13482   0.14332   0.14826   0.16531   0.17512
 Alpha virt. eigenvalues --    0.17752   0.18734   0.19241   0.20468   0.21615

 Mulliken charges:
               1
     1  O   -0.443486
     2  C    0.133757
     3  C   -0.127411
     4  O   -0.279078
     5  C    0.092738
     6  C   -0.276379
     7  C   -0.071032
     8  C   -0.084732
     9  C   -0.115338
    10  H    0.286074
    11  H    0.085750
    12  H    0.097543
    13  H    0.113642
    14  H    0.082004
    15  H    0.118993
    16  H    0.107596
    17  H    0.096215
    18  H    0.096149
    19  H    0.086994
 Sum of Mulliken charges =   0.00000

 Dipole moment (field-independent basis, Debye):
    X=              1.4360    Y=              0.2225    Z=              0.1687  Tot=              1.4629
 Quadrupole moment (field-independent basis, Debye-Ang):
   XX=            -55.1065   YY=            -55.0663   ZZ=            -50.6128
   XY=              2.1047   XZ=             -0.4780   YZ=              1.8123

  Exact polarizability:  87.161  -3.971  73.198   1.539   2.620  64.756
 Approx polarizability: 123.073 -12.084 114.260   4.782   3.102  98.790

                      1                      2                      3
                      A                      A                      A
 Frequencies --     75.2051               159.0934               199.3744
 Red. masses --      3.3110                 3.8132                 3.2858
 Frc consts  --      0.0110                 0.0569                 0.0770
 IR Inten    --      0.2813                 7.9430                 0.7115

                      4                      5                      6
                      A                      A                      A
 Frequencies --    353.7474               392.9552               397.3569
 Red. masses --      3.5645                 1.2751                 2.3738
 Frc consts  --      0.2628                 0.1160                 0.2208
 IR Inten    --      0.4185                39.4611                20.7164

                      7                      8                      9
                      A                      A                      A
 Frequencies --    421.3081               482.6740               609.5429
 Red. masses --      2.5980                 2.1668                 5.4136
 Frc consts  --      0.2717                 0.2974                 1.1851
 IR Inten    --     27.8309                 0.4838                11.0870

                     10                     11                     12
                      A                      A                      A
 Frequencies --    714.3231               747.5354               788.4442
 Red. masses --      1.7394                 2.7866                 3.7775
 Frc consts  --      0.5229                 0.9175                 1.3835
 IR Inten    --     18.6510                10.2739                11.1468

                     13                     14                     15
                      A                      A                      A
 Frequencies --    819.3474               841.0674               876.1211
 Red. masses --      3.4423                 3.2228                 2.8893
 Frc consts  --      1.3616                 1.3432                 1.3067
 IR Inten    --      4.7569                 6.7580                20.2641

                     16                     17                     18
                      A                      A                      A
 Frequencies --    891.2490               950.5908               970.0021
 Red. masses --      2.3214                 2.6214                 2.2688
 Frc consts  --      1.0864                 1.3956                 1.2577
 IR Inten    --     15.9303                 5.2624                 6.6364

                     19                     20                     21
                      A                      A                      A
 Frequencies --    979.5840               995.7249              1020.9809
 Red. masses --      1.3223                 2.1128                 2.3376
 Frc consts  --      0.7476                 1.2342                 1.4356
 IR Inten    --      1.0889                18.1387                30.4091

                     22                     23                     24
                      A                      A                      A
 Frequencies --   1030.1790              1059.1234              1084.8403
 Red. masses --      2.3109                 2.1589                 2.4225
 Frc consts  --      1.4450                 1.4269                 1.6797
 IR Inten    --      0.3708                13.6285                76.9234

                     25                     26                     27
                      A                      A                      A
 Frequencies --   1107.3387              1132.0823              1180.2338
 Red. masses --      2.5683                 1.0956                 1.3356
 Frc consts  --      1.8555                 0.8273                 1.0961
 IR Inten    --     54.4641                 1.2265                15.3588

                     28                     29                     30
                      A                      A                      A
 Frequencies --   1210.1113              1230.6147              1240.0473
 Red. masses --      1.6313                 1.2128                 1.4349
 Frc consts  --      1.4075                 1.0822                 1.3000
 IR Inten    --     29.2109                27.0783                 6.1520

                     31                     32                     33
                      A                      A                      A
 Frequencies --   1276.4883              1305.9640              1310.3303
 Red. masses --      1.4061                 1.4459                 1.4567
 Frc consts  --      1.3499                 1.4529                 1.4736
 IR Inten    --      2.7325                 1.3335                 4.8563

                     34                     35                     36
                      A                      A                      A
 Frequencies --   1329.3789              1353.2830              1381.9586
 Red. masses --      1.5333                 1.3428                 1.5328
 Frc consts  --      1.5965                 1.4489                 1.7248
 IR Inten    --      0.3678                 4.6605                 1.0487

                     37                     38                     39
                      A                      A                      A
 Frequencies --   1388.2025              1429.3451              1474.5038
 Red. masses --      1.4347                 1.2623                 1.0918
 Frc consts  --      1.6290                 1.5195                 1.3985
 IR Inten    --      4.8774                62.1517                 2.6643

                     40                     41                     42
                      A                      A                      A
 Frequencies --   1506.9379              1684.7767              3001.5001
 Red. masses --      1.0937                 6.3249                 1.0683
 Frc consts  --      1.4634                10.5777                 5.6707
 IR Inten    --      3.8033                 0.8958                44.0637

                     43                     44                     45
                      A                      A                      A
 Frequencies --   3022.5375              3058.4591              3061.0639
 Red. masses --      1.0642                 1.0902                 1.0918
 Frc consts  --      5.7282                 6.0083                 6.0277
 IR Inten    --     28.3857                18.3629                 3.4840

                     46                     47                     48
                      A                      A                      A
 Frequencies --   3080.2870              3088.7029              3105.6826
 Red. masses --      1.0881                 1.0876                 1.0962
 Frc consts  --      6.0830                 6.1132                 6.2298
 IR Inten    --     59.8646                19.9071                26.9935

                     49                     50                     51
                      A                      A                      A
 Frequencies --   3177.5032              3202.4636              3788.9742
 Red. masses --      1.0842                 1.1037                 1.0656
 Frc consts  --      6.4493                 6.6691                 9.0130
 IR Inten    --      5.4779                22.3954                19.6376

 - Thermochemistry -
 -------------------
 Temperature   298.150 Kelvin.  Pressure   1.00000 Atm.
 Atom     1 has atomic number  8 and mass  15.99491

 Molecular mass:   126.06808 amu.
 Principal axes and moments of inertia in atomic units:
                           1         2         3
     Eigenvalues --   583.062761186.168471440.04980
           X            0.99998  -0.00126  -0.00565
           Y            0.00136   0.99982   0.01893
           Z            0.00562  -0.01893   0.99980
 This molecule is an asymmetric top.
 Rotational symmetry number  1.
 Warning -- assumption of classical behavior for rotation
           may cause significant error
 Rotational temperatures (Kelvin)      0.14855     0.07302     0.06015
 Rotational constants (GHZ):           3.09528     1.52149     1.25325
 Zero-point vibrational energy     424609.4 (Joules/Mol)
                                  101.48407 (Kcal/Mol)
 Warning -- explicit consideration of   9 degrees of freedom as
           vibrations may cause significant error
 Vibrational temperatures:    108.20   228.90   286.85   508.96   565.37
          (Kelvin)            571.71   606.17   694.46   877.00  1027.75
                             1075.54  1134.39  1178.86  1210.11  1260.54
                             1282.31  1367.69  1395.61  1409.40  1432.62
                             1468.96  1482.20  1523.84  1560.84  1593.21
                             1628.81  1698.09  1741.08  1770.58  1784.15
                             1836.58  1878.99  1885.27  1912.68  1947.07
                             1988.33  1997.31  2056.51  2121.48  2168.14
                             2424.01  4318.48  4348.75  4400.43  4404.18
                             4431.84  4443.95  4468.38  4571.71  4607.63
                             5451.48

 Zero-point correction=                           0.161725 (Hartree/Particle)
 Thermal correction to Energy=                    0.169219
 Thermal correction to Enthalpy=                  0.170163
 Thermal correction to Gibbs Free Energy=         0.129643
 Sum of electronic and zero-point Energies=           -423.041611
 Sum of electronic and thermal Energies=              -423.034118
 Sum of electronic and thermal Enthalpies=            -423.033173
 Sum of electronic and thermal Free Energies=         -423.073693

                     E (Thermal)             CV                S
                      KCal/Mol        Cal/Mol-Kelvin    Cal/Mol-Kelvin
 Total                  106.187             29.844             85.281
 Electronic               0.000              0.000              0.000
 Translational            0.889              2.981             40.409
 Rotational               0.889              2.981             28.390
 Vibrational            104.409             23.882             16.483
 Vibration     1          0.599              1.966              4.012
 Vibration     2          0.621              1.892              2.561
 Vibration     3          0.637              1.841              2.139
 Vibration     4          0.730              1.568              1.149
 Vibration     5          0.760              1.485              0.989
 Vibration     6          0.764              1.476              0.972
 Vibration     7          0.784              1.424              0.888
 Vibration     8          0.839              1.288              0.703
 Vibration     9          0.969              1.012              0.434

 Normal termination of Gaussian 09 at Tue Jan 28 08:54:00 2020.
