 Gaussian 09, Revision D.01,
 Gaussian 09:  ES64L-G09RevD.01 24-Apr-2013

 -----------------------------
 # b3lyp 6-31G(2df,p) opt Freq
 -----------------------------

 -----
 titel
 -----
 Symbolic Z-matrix:
 Charge =  0 Multiplicity = 1

 SCF Done:  E(RB3LYP) =  -423.107265143     A.U. after   13 cycles
 Optimization completed.
    -- Stationary point found.
 Normal termination of Gaussian 09 at Mon Jan 27 22:02:03 2020.

 ----------------------------------------------------------------------
 #N Geom=AllCheck Guess=TCheck SCRF=Check GenChk RB3LYP/6-31G(2df,p) Fr
 eq
 ----------------------------------------------------------------------

 Structure from the checkpoint file:  "/scratch/puck/g09_e518a0fc-0307-4997-ba6d-358af368d290/Gau-98618.chk"
 -----
 titel
 -----
 Charge =  0 Multiplicity = 1

                         Standard orientation:
 ---------------------------------------------------------------------
 Center     Atomic      Atomic             Coordinates (Angstroms)
 Number     Number       Type             X           Y           Z
 ---------------------------------------------------------------------
      1          6           0        2.505807   -1.120398    0.006426
      2          6           0        1.112650   -0.702144    0.427540
      3          6           0        0.068557   -0.582521   -0.678648
      4          6           0       -1.340121   -0.187961   -0.116520
      5          6           0       -2.655425   -0.480082   -0.758317
      6          8           0       -1.271629   -0.127393    1.324013
      7          6           0       -0.784400    0.985302    0.554726
      8          6           0        0.648111    0.655398    0.005314
      9          8           0        1.530373    1.622171   -0.433523
     10          1           0        2.781314   -0.690338   -0.960060
     11          1           0        3.246615   -0.782532    0.738197
     12          1           0        2.576033   -2.210557   -0.066771
     13          1           0        0.784290   -1.081263    1.388977
     14          1           0        0.238977   -0.969466   -1.675552
     15          1           0       -2.643365   -0.191621   -1.814710
     16          1           0       -2.883487   -1.550849   -0.706613
     17          1           0       -3.455487    0.066719   -0.252398
     18          1           0       -1.187535    1.969795    0.771166
     19          1           0        1.141622    2.076325   -1.189287
 ---------------------------------------------------------------------

 SCF Done:  E(RB3LYP) =  -423.107265143     A.U. after    1 cycles

 The electronic state is 1-A.
 Alpha  occ. eigenvalues --  -19.15570 -19.14770 -10.24235 -10.23921 -10.23087
 Alpha  occ. eigenvalues --  -10.18843 -10.18841 -10.18511 -10.17316  -1.07398
 Alpha  occ. eigenvalues --   -1.03758  -0.86048  -0.75153  -0.72230  -0.65245
 Alpha  occ. eigenvalues --   -0.62181  -0.56251  -0.54476  -0.51490  -0.49335
 Alpha  occ. eigenvalues --   -0.45508  -0.43407  -0.42656  -0.40581  -0.40281
 Alpha  occ. eigenvalues --   -0.38365  -0.37556  -0.36133  -0.35879  -0.32994
 Alpha  occ. eigenvalues --   -0.31750  -0.27541  -0.24627  -0.21907
 Alpha virt. eigenvalues --    0.06433   0.07078   0.10627   0.11151   0.12045
 Alpha virt. eigenvalues --    0.13431   0.14319   0.15401   0.16263   0.17294
 Alpha virt. eigenvalues --    0.17895   0.18057   0.20696   0.21337   0.22457

 Mulliken charges:
               1
     1  C   -0.422141
     2  C   -0.043369
     3  C   -0.259510
     4  C    0.422390
     5  C   -0.501290
     6  O   -0.280189
     7  C   -0.150757
     8  C    0.351128
     9  O   -0.451832
    10  H    0.118683
    11  H    0.124779
    12  H    0.115233
    13  H    0.109683
    14  H    0.087249
    15  H    0.123393
    16  H    0.133222
    17  H    0.134875
    18  H    0.100927
    19  H    0.287527
 Sum of Mulliken charges =   0.00000

 Dipole moment (field-independent basis, Debye):
    X=             -0.8119    Y=              0.6104    Z=             -2.4494  Tot=              2.6516
 Quadrupole moment (field-independent basis, Debye-Ang):
   XX=            -54.0640   YY=            -50.3980   ZZ=            -52.8612
   XY=             -2.5775   XZ=              2.0212   YZ=             -1.3569

  Exact polarizability:  87.896  -1.564  73.082   2.319   1.719  65.540
 Approx polarizability: 110.896   3.869 112.674   2.047   2.373 106.698

                      1                      2                      3
                      A                      A                      A
 Frequencies --    162.0738               179.6939               197.2343
 Red. masses --      2.5697                 1.2549                 1.1886
 Frc consts  --      0.0398                 0.0239                 0.0272
 IR Inten    --      0.0746                 0.9013                 0.2540

                      4                      5                      6
                      A                      A                      A
 Frequencies --    203.4868               221.3399               282.2948
 Red. masses --      2.2557                 2.2943                 2.1799
 Frc consts  --      0.0550                 0.0662                 0.1023
 IR Inten    --      1.5605                 1.5571                 4.1702

                      7                      8                      9
                      A                      A                      A
 Frequencies --    322.9679               358.5744               364.9206
 Red. masses --      1.4182                 3.7981                 2.8191
 Frc consts  --      0.0872                 0.2877                 0.2212
 IR Inten    --     59.8547                 5.0544                30.7380

                     10                     11                     12
                      A                      A                      A
 Frequencies --    441.3291               494.6653               555.2168
 Red. masses --      4.2383                 2.7563                 4.7198
 Frc consts  --      0.4864                 0.3974                 0.8572
 IR Inten    --      4.0901                 2.2745                12.3596

                     13                     14                     15
                      A                      A                      A
 Frequencies --    625.4738               682.2297               760.1278
 Red. masses --      4.8049                 4.8001                 3.7513
 Frc consts  --      1.1075                 1.3163                 1.2771
 IR Inten    --     10.5903                 5.4594                 3.1392

                     16                     17                     18
                      A                      A                      A
 Frequencies --    797.1553               859.1863               871.5201
 Red. masses --      2.8412                 2.4273                 2.9999
 Frc consts  --      1.0638                 1.0557                 1.3425
 IR Inten    --      4.0578                11.9564                 5.5998

                     19                     20                     21
                      A                      A                      A
 Frequencies --    899.7798               954.1340               980.2462
 Red. masses --      1.3993                 2.4628                 1.6836
 Frc consts  --      0.6675                 1.3210                 0.9531
 IR Inten    --      8.1565                18.3107                 1.2448

                     22                     23                     24
                      A                      A                      A
 Frequencies --   1005.4683              1028.3553              1048.3146
 Red. masses --      1.6001                 3.4896                 1.5952
 Frc consts  --      0.9531                 2.1743                 1.0328
 IR Inten    --      0.5470                 3.5281                18.7074

                     25                     26                     27
                      A                      A                      A
 Frequencies --   1084.2057              1121.3885              1136.9155
 Red. masses --      1.6863                 2.1467                 1.7483
 Frc consts  --      1.1679                 1.5905                 1.3314
 IR Inten    --      3.2186                23.9117                 0.6151

                     28                     29                     30
                      A                      A                      A
 Frequencies --   1165.0606              1171.4364              1207.8499
 Red. masses --      1.7689                 1.4376                 1.8111
 Frc consts  --      1.4147                 1.1623                 1.5567
 IR Inten    --     18.8501                 4.3911                 1.3387

                     31                     32                     33
                      A                      A                      A
 Frequencies --   1241.2372              1306.2409              1343.5026
 Red. masses --      1.8716                 1.6160                 1.9142
 Frc consts  --      1.6990                 1.6246                 2.0358
 IR Inten    --     87.4178                92.1042                14.5403

                     34                     35                     36
                      A                      A                      A
 Frequencies --   1401.5944              1412.5223              1441.4262
 Red. masses --      1.3082                 1.2924                 3.0711
 Frc consts  --      1.5142                 1.5193                 3.7595
 IR Inten    --      1.8983                 1.0610                 6.1024

                     37                     38                     39
                      A                      A                      A
 Frequencies --   1470.7609              1485.1546              1490.9914
 Red. masses --      1.5923                 1.1972                 1.0488
 Frc consts  --      2.0293                 1.5558                 1.3736
 IR Inten    --     12.4823                11.8081                 1.8873

                     40                     41                     42
                      A                      A                      A
 Frequencies --   1496.4517              1505.0609              3032.0983
 Red. masses --      1.2063                 1.4154                 1.0360
 Frc consts  --      1.5916                 1.8890                 5.6118
 IR Inten    --      4.2125                 8.1896                25.3601

                     43                     44                     45
                      A                      A                      A
 Frequencies --   3037.5941              3093.5363              3099.7490
 Red. masses --      1.0355                 1.1000                 1.1015
 Frc consts  --      5.6294                 6.2023                 6.2356
 IR Inten    --     33.0522                16.0086                20.9286

                     46                     47                     48
                      A                      A                      A
 Frequencies --   3115.1921              3120.9471              3165.7238
 Red. masses --      1.1000                 1.1009                 1.0947
 Frc consts  --      6.2892                 6.3181                 6.4636
 IR Inten    --     14.6088                12.9559                21.0684

                     49                     50                     51
                      A                      A                      A
 Frequencies --   3171.2517              3194.3876              3791.0429
 Red. masses --      1.0876                 1.0925                 1.0662
 Frc consts  --      6.4444                 6.5685                 9.0286
 IR Inten    --     10.1916                 6.0462                19.7764

 - Thermochemistry -
 -------------------
 Temperature   298.150 Kelvin.  Pressure   1.00000 Atm.
 Atom     1 has atomic number  6 and mass  12.00000

 Molecular mass:   126.06808 amu.
 Principal axes and moments of inertia in atomic units:
                           1         2         3
     Eigenvalues --   597.980451392.359331551.46923
           X            0.99936  -0.02926   0.02058
           Y            0.02890   0.99943   0.01760
           Z           -0.02108  -0.01699   0.99963
 This molecule is an asymmetric top.
 Rotational symmetry number  1.
 Warning -- assumption of classical behavior for rotation
           may cause significant error
 Rotational temperatures (Kelvin)      0.14484     0.06221     0.05583
 Rotational constants (GHZ):           3.01806     1.29617     1.16325
 Zero-point vibrational energy     410313.8 (Joules/Mol)
                                   98.06735 (Kcal/Mol)
 Warning -- explicit consideration of  12 degrees of freedom as
           vibrations may cause significant error
 Vibrational temperatures:    233.19   258.54   283.78   292.77   318.46
          (Kelvin)            406.16   464.68   515.91   525.04   634.97
                              711.71   798.83   899.92   981.58  1093.65
                             1146.93  1236.18  1253.92  1294.58  1372.78
                             1410.35  1446.64  1479.57  1508.29  1559.93
                             1613.43  1635.77  1676.26  1685.43  1737.82
                             1785.86  1879.39  1933.00  2016.58  2032.30
                             2073.89  2116.09  2136.80  2145.20  2153.06
                             2165.44  4362.51  4370.41  4450.90  4459.84
                             4482.06  4490.34  4554.76  4562.72  4596.01
                             5454.46

 Zero-point correction=                           0.156280 (Hartree/Particle)
 Thermal correction to Energy=                    0.165198
 Thermal correction to Enthalpy=                  0.166142
 Thermal correction to Gibbs Free Energy=         0.123468
 Sum of electronic and zero-point Energies=           -422.950985
 Sum of electronic and thermal Energies=              -422.942067
 Sum of electronic and thermal Enthalpies=            -422.941123
 Sum of electronic and thermal Free Energies=         -422.983797

                     E (Thermal)             CV                S
                      KCal/Mol        Cal/Mol-Kelvin    Cal/Mol-Kelvin
 Total                  103.663             34.703             89.814
 Electronic               0.000              0.000              0.000
 Translational            0.889              2.981             40.409
 Rotational               0.889              2.981             28.648
 Vibrational            101.886             28.741             20.758
 Vibration     1          0.622              1.889              2.525
 Vibration     2          0.629              1.867              2.332
 Vibration     3          0.637              1.844              2.159
 Vibration     4          0.639              1.835              2.101
 Vibration     5          0.648              1.809              1.948
 Vibration     6          0.681              1.706              1.520
 Vibration     7          0.708              1.629              1.295
 Vibration     8          0.733              1.558              1.128
 Vibration     9          0.738              1.544              1.101
 Vibration    10          0.801              1.380              0.822
 Vibration    11          0.850              1.262              0.672
 Vibration    12          0.911              1.128              0.533

 Normal termination of Gaussian 09 at Mon Jan 27 22:50:48 2020.
