 Gaussian 09, Revision D.01,
 Gaussian 09:  ES64L-G09RevD.01 24-Apr-2013

 -----------------------------
 # b3lyp 6-31G(2df,p) opt Freq
 -----------------------------

 -----
 titel
 -----
 Symbolic Z-matrix:
 Charge =  0 Multiplicity = 1

 SCF Done:  E(RB3LYP) =  -423.155329594     A.U. after   14 cycles
 Optimization completed.
    -- Stationary point found.
 Normal termination of Gaussian 09 at Mon Jan 27 18:52:34 2020.

 ----------------------------------------------------------------------
 #N Geom=AllCheck Guess=TCheck SCRF=Check GenChk RB3LYP/6-31G(2df,p) Fr
 eq
 ----------------------------------------------------------------------

 Structure from the checkpoint file:  "/scratch/puck/g09_7e1126bc-aec5-4331-a6f4-20f3067ab1b3/Gau-66816.chk"
 -----
 titel
 -----
 Charge =  0 Multiplicity = 1

                         Standard orientation:
 ---------------------------------------------------------------------
 Center     Atomic      Atomic             Coordinates (Angstroms)
 Number     Number       Type             X           Y           Z
 ---------------------------------------------------------------------
      1          6           0        2.510278   -0.299297   -0.516059
      2          6           0        1.092004    0.008834   -0.112242
      3          6           0        0.680581    1.481080    0.003133
      4          6           0       -0.843526    1.414892    0.290672
      5          6           0       -1.228348   -0.018757   -0.083320
      6          8           0       -2.517910   -0.307852   -0.523733
      7          6           0       -0.445540   -1.134624    0.592117
      8          8           0        0.746259   -0.627254    1.183301
      9          6           0       -0.093222   -0.711594   -0.801868
     10          1           0        2.675358   -1.379024   -0.556120
     11          1           0        2.730557    0.126552   -1.500697
     12          1           0        3.210930    0.128567    0.208372
     13          1           0        1.244133    1.987042    0.792215
     14          1           0        0.882145    1.996528   -0.942886
     15          1           0       -1.066086    1.634641    1.339908
     16          1           0       -1.412761    2.115841   -0.326189
     17          1           0       -3.100566   -0.318911    0.243685
     18          1           0       -0.888569   -2.041419    0.989826
     19          1           0       -0.135297   -1.212180   -1.759268
 ---------------------------------------------------------------------

 SCF Done:  E(RB3LYP) =  -423.155329594     A.U. after    1 cycles

 The electronic state is 1-A.
 Alpha  occ. eigenvalues --  -19.14835 -19.12860 -10.24120 -10.23580 -10.23109
 Alpha  occ. eigenvalues --  -10.18303 -10.18113 -10.17982 -10.17843  -1.05187
 Alpha  occ. eigenvalues --   -1.02657  -0.83438  -0.77836  -0.73609  -0.65316
 Alpha  occ. eigenvalues --   -0.60780  -0.57313  -0.54326  -0.50154  -0.48879
 Alpha  occ. eigenvalues --   -0.46459  -0.43541  -0.42756  -0.41634  -0.40331
 Alpha  occ. eigenvalues --   -0.38104  -0.37181  -0.34998  -0.34340  -0.33059
 Alpha  occ. eigenvalues --   -0.30107  -0.29292  -0.26056  -0.21530
 Alpha virt. eigenvalues --    0.07018   0.08952   0.09862   0.12092   0.12562
 Alpha virt. eigenvalues --    0.13340   0.14398   0.15739   0.17013   0.17591
 Alpha virt. eigenvalues --    0.18309   0.18664   0.21072   0.21632   0.23425

 Mulliken charges:
               1
     1  C   -0.477580
     2  C    0.412303
     3  C   -0.231644
     4  C   -0.294758
     5  C    0.358485
     6  O   -0.475134
     7  C    0.023078
     8  O   -0.341971
     9  C   -0.242546
    10  H    0.128363
    11  H    0.118278
    12  H    0.127534
    13  H    0.104945
    14  H    0.099043
    15  H    0.102147
    16  H    0.105650
    17  H    0.285608
    18  H    0.099485
    19  H    0.098712
 Sum of Mulliken charges =   0.00000

 Dipole moment (field-independent basis, Debye):
    X=             -0.2771    Y=              0.4157    Z=             -0.2022  Tot=              0.5389
 Quadrupole moment (field-independent basis, Debye-Ang):
   XX=            -50.1199   YY=            -51.7704   ZZ=            -54.8661
   XY=              1.3229   XZ=             -6.4007   YZ=              0.3121

  Exact polarizability:  84.565   1.155  72.148  -3.624  -0.247  64.872
 Approx polarizability: 112.927   1.937 102.546  -2.165  -2.801 107.155

                      1                      2                      3
                      A                      A                      A
 Frequencies --    185.7535               204.7337               233.7366
 Red. masses --      1.8470                 1.4566                 1.7287
 Frc consts  --      0.0375                 0.0360                 0.0556
 IR Inten    --      1.5255                 1.6308                 4.0015

                      4                      5                      6
                      A                      A                      A
 Frequencies --    255.6738               309.7536               367.2342
 Red. masses --      2.0848                 1.2604                 4.5797
 Frc consts  --      0.0803                 0.0713                 0.3639
 IR Inten    --     14.4206                64.7141                22.4414

                      7                      8                      9
                      A                      A                      A
 Frequencies --    394.8009               395.6397               481.3549
 Red. masses --      2.6431                 2.8403                 3.5081
 Frc consts  --      0.2427                 0.2619                 0.4789
 IR Inten    --      1.6204                12.9685                 1.1876

                     10                     11                     12
                      A                      A                      A
 Frequencies --    552.6346               598.3549               681.8864
 Red. masses --      4.4693                 3.9827                 4.0816
 Frc consts  --      0.8042                 0.8401                 1.1182
 IR Inten    --      2.4952                 0.1999                 3.5147

                     13                     14                     15
                      A                      A                      A
 Frequencies --    753.2554               800.8883               827.4613
 Red. masses --      3.4359                 2.3369                 1.8054
 Frc consts  --      1.1486                 0.8832                 0.7283
 IR Inten    --      6.2825                15.6557                 1.9788

                     16                     17                     18
                      A                      A                      A
 Frequencies --    851.3970               863.1131               910.9203
 Red. masses --      1.6231                 1.8683                 1.8709
 Frc consts  --      0.6932                 0.8200                 0.9147
 IR Inten    --      4.4348                23.1398                 7.2902

                     19                     20                     21
                      A                      A                      A
 Frequencies --    919.9929               989.0930               993.1913
 Red. masses --      2.5252                 2.1371                 1.6565
 Frc consts  --      1.2592                 1.2318                 0.9627
 IR Inten    --      0.8679                 2.9725                 5.8992

                     22                     23                     24
                      A                      A                      A
 Frequencies --   1020.9205              1036.8702              1049.5625
 Red. masses --      2.7253                 1.8987                 3.3982
 Frc consts  --      1.6736                 1.2027                 2.2056
 IR Inten    --     11.8545                 3.6994                52.4240

                     25                     26                     27
                      A                      A                      A
 Frequencies --   1102.0538              1126.2469              1175.8568
 Red. masses --      1.5558                 2.0595                 1.4986
 Frc consts  --      1.1133                 1.5391                 1.2208
 IR Inten    --     58.0330                 2.5258                21.4711

                     28                     29                     30
                      A                      A                      A
 Frequencies --   1193.3149              1212.2317              1244.4032
 Red. masses --      2.1358                 1.7870                 1.5156
 Frc consts  --      1.7919                 1.5472                 1.3828
 IR Inten    --     10.5270                 7.4789                18.7770

                     31                     32                     33
                      A                      A                      A
 Frequencies --   1275.7235              1278.4271              1306.9361
 Red. masses --      2.1998                 1.6718                 1.8908
 Frc consts  --      2.1093                 1.6099                 1.9029
 IR Inten    --     14.6769                36.1161                47.6276

                     34                     35                     36
                      A                      A                      A
 Frequencies --   1321.3600              1358.2159              1412.3982
 Red. masses --      2.1165                 1.9732                 1.4162
 Frc consts  --      2.1773                 2.1447                 1.6645
 IR Inten    --      1.9565                24.9083                10.3759

                     37                     38                     39
                      A                      A                      A
 Frequencies --   1426.9566              1472.0574              1482.0422
 Red. masses --      2.6580                 1.1015                 1.0588
 Frc consts  --      3.1888                 1.4063                 1.3702
 IR Inten    --      5.1411                 0.4139                 2.2288

                     40                     41                     42
                      A                      A                      A
 Frequencies --   1492.6091              1500.1457              3035.7520
 Red. masses --      1.0498                 1.1184                 1.0423
 Frc consts  --      1.3781                 1.4829                 5.6593
 IR Inten    --      3.7530                 1.2798                 3.3129

                     43                     44                     45
                      A                      A                      A
 Frequencies --   3040.8588              3049.3327              3087.1653
 Red. masses --      1.0537                 1.0630                 1.1002
 Frc consts  --      5.7407                 5.8235                 6.1780
 IR Inten    --     48.9371                30.9295                 6.7637

                     46                     47                     48
                      A                      A                      A
 Frequencies --   3102.1379              3107.3603              3120.6837
 Red. masses --      1.1041                 1.1013                 1.1014
 Frc consts  --      6.2602                 6.2652                 6.3198
 IR Inten    --     13.8763                34.5522                15.8717

                     49                     50                     51
                      A                      A                      A
 Frequencies --   3170.1215              3210.5542              3793.5295
 Red. masses --      1.0919                 1.0979                 1.0662
 Frc consts  --      6.4654                 6.6676                 9.0398
 IR Inten    --     25.9631                 5.3045                22.8262

 - Thermochemistry -
 -------------------
 Temperature   298.150 Kelvin.  Pressure   1.00000 Atm.
 Atom     1 has atomic number  6 and mass  12.00000

 Molecular mass:   126.06808 amu.
 Principal axes and moments of inertia in atomic units:
                           1         2         3
     Eigenvalues --   559.818211175.690201356.40502
           X            0.99949  -0.00063  -0.03192
           Y            0.00176   0.99937   0.03534
           Z            0.03188  -0.03538   0.99887
 This molecule is an asymmetric top.
 Rotational symmetry number  1.
 Warning -- assumption of classical behavior for rotation
           may cause significant error
 Rotational temperatures (Kelvin)      0.15472     0.07367     0.06386
 Rotational constants (GHZ):           3.22380     1.53505     1.33053
 Zero-point vibrational energy     417357.3 (Joules/Mol)
                                   99.75080 (Kcal/Mol)
 Warning -- explicit consideration of  11 degrees of freedom as
           vibrations may cause significant error
 Vibrational temperatures:    267.26   294.57   336.29   367.86   445.67
          (Kelvin)            528.37   568.03   569.24   692.56   795.12
                              860.90   981.08  1083.77  1152.30  1190.53
                             1224.97  1241.83  1310.61  1323.66  1423.08
                             1428.98  1468.88  1491.82  1510.08  1585.61
                             1620.42  1691.79  1716.91  1744.13  1790.42
                             1835.48  1839.37  1880.39  1901.14  1954.17
                             2032.12  2053.07  2117.96  2132.33  2147.53
                             2158.37  4367.76  4375.11  4387.30  4441.74
                             4463.28  4470.79  4489.96  4561.09  4619.27
                             5458.04

 Zero-point correction=                           0.158963 (Hartree/Particle)
 Thermal correction to Energy=                    0.166852
 Thermal correction to Enthalpy=                  0.167796
 Thermal correction to Gibbs Free Energy=         0.127315
 Sum of electronic and zero-point Energies=           -422.996367
 Sum of electronic and thermal Energies=              -422.988478
 Sum of electronic and thermal Enthalpies=            -422.987534
 Sum of electronic and thermal Free Energies=         -423.028015

                     E (Thermal)             CV                S
                      KCal/Mol        Cal/Mol-Kelvin    Cal/Mol-Kelvin
 Total                  104.701             32.117             85.200
 Electronic               0.000              0.000              0.000
 Translational            0.889              2.981             40.409
 Rotational               0.889              2.981             28.281
 Vibrational            102.924             26.155             16.511
 Vibration     1          0.632              1.859              2.270
 Vibration     2          0.640              1.833              2.090
 Vibration     3          0.654              1.789              1.850
 Vibration     4          0.666              1.753              1.691
 Vibration     5          0.699              1.655              1.364
 Vibration     6          0.740              1.540              1.091
 Vibration     7          0.762              1.481              0.982
 Vibration     8          0.762              1.479              0.979
 Vibration     9          0.838              1.291              0.706
 Vibration    10          0.908              1.134              0.539
 Vibration    11          0.956              1.035              0.452

 Optimization completed.
    -- Stationary point found.
 Normal termination of Gaussian 09 at Mon Jan 27 19:34:35 2020.
