 Gaussian 09, Revision D.01,
 Gaussian 09:  ES64L-G09RevD.01 24-Apr-2013

 -----------------------------
 # b3lyp 6-31G(2df,p) opt Freq
 -----------------------------

 -----
 titel
 -----
 Symbolic Z-matrix:
 Charge =  0 Multiplicity = 1

 SCF Done:  E(RB3LYP) =  -423.148948135     A.U. after   13 cycles
 Optimization completed.
    -- Stationary point found.
 Normal termination of Gaussian 09 at Mon Jan 27 17:13:14 2020.

 ----------------------------------------------------------------------
 #N Geom=AllCheck Guess=TCheck SCRF=Check GenChk RB3LYP/6-31G(2df,p) Fr
 eq
 ----------------------------------------------------------------------

 Structure from the checkpoint file:  "/scratch/puck/g09_b7ecc819-fe32-400c-a359-7b95ada6b365/Gau-59985.chk"
 -----
 titel
 -----
 Charge =  0 Multiplicity = 1

                         Standard orientation:
 ---------------------------------------------------------------------
 Center     Atomic      Atomic             Coordinates (Angstroms)
 Number     Number       Type             X           Y           Z
 ---------------------------------------------------------------------
      1          6           0       -0.087377    2.141251   -0.065114
      2          6           0       -0.412434    0.682257    0.055100
      3          6           0       -1.405269    0.055920    1.070474
      4          6           0       -1.475575   -0.966170   -0.084212
      5          6           0       -0.090733   -1.649085   -0.066164
      6          6           0        0.724937   -0.350430    0.056607
      7          6           0        2.046800   -0.181661    0.658782
      8          8           0        1.860696   -0.124987   -0.764414
      9          8           0       -1.256813    0.132123   -1.021569
     10          1           0        0.590188    2.304959   -0.907858
     11          1           0       -0.997617    2.725455   -0.220046
     12          1           0        0.402454    2.500847    0.845660
     13          1           0       -1.038550   -0.262922    2.050441
     14          1           0       -2.317816    0.647490    1.154442
     15          1           0       -2.356921   -1.568388   -0.301083
     16          1           0        0.050819   -2.342572    0.767390
     17          1           0        0.122404   -2.161632   -1.006601
     18          1           0        2.324207    0.761264    1.128828
     19          1           0        2.587675   -1.054078    1.023851
 ---------------------------------------------------------------------

 SCF Done:  E(RB3LYP) =  -423.148948135     A.U. after    1 cycles

 The electronic state is 1-A.
 Alpha  occ. eigenvalues --  -19.15020 -19.13091 -10.24320 -10.24048 -10.24006
 Alpha  occ. eigenvalues --  -10.23380 -10.19046 -10.18659 -10.18033  -1.07446
 Alpha  occ. eigenvalues --   -1.04350  -0.79105  -0.75852  -0.70536  -0.66697
 Alpha  occ. eigenvalues --   -0.64948  -0.57016  -0.53902  -0.50130  -0.48850
 Alpha  occ. eigenvalues --   -0.46092  -0.45314  -0.44050  -0.42083  -0.40533
 Alpha  occ. eigenvalues --   -0.38259  -0.37689  -0.35859  -0.34978  -0.32369
 Alpha  occ. eigenvalues --   -0.31729  -0.29621  -0.27164  -0.24063
 Alpha virt. eigenvalues --    0.08444   0.09258   0.10179   0.11140   0.12545
 Alpha virt. eigenvalues --    0.13147   0.13856   0.14175   0.15513   0.16519
 Alpha virt. eigenvalues --    0.17246   0.18225   0.18637   0.19487   0.20932

 Mulliken charges:
               1
     1  C   -0.515397
     2  C    0.328261
     3  C   -0.277490
     4  C    0.070803
     5  C   -0.322467
     6  C    0.466039
     7  C   -0.283212
     8  O   -0.282255
     9  O   -0.327787
    10  H    0.148078
    11  H    0.129800
    12  H    0.121329
    13  H    0.093952
    14  H    0.111400
    15  H    0.083082
    16  H    0.102769
    17  H    0.126667
    18  H    0.111824
    19  H    0.114604
 Sum of Mulliken charges =   0.00000

 Dipole moment (field-independent basis, Debye):
    X=             -0.3664    Y=             -0.4036    Z=              2.8943  Tot=              2.9452
 Quadrupole moment (field-independent basis, Debye-Ang):
   XX=            -53.8880   YY=            -49.3239   ZZ=            -55.4430
   XY=              1.0348   XZ=              1.5913   YZ=              0.4750

  Exact polarizability:  80.677   1.688  77.850   2.798   0.683  64.314
 Approx polarizability: 112.379   2.838 106.050   4.776  -0.754 107.042

                      1                      2                      3
                      A                      A                      A
 Frequencies --    127.6183               188.8686               229.2224
 Red. masses --      3.1155                 1.0820                 2.9471
 Frc consts  --      0.0299                 0.0227                 0.0912
 IR Inten    --      0.5577                 0.0693                 1.7971

                      4                      5                      6
                      A                      A                      A
 Frequencies --    264.6707               330.9678               395.8999
 Red. masses --      2.7547                 2.7890                 3.1599
 Frc consts  --      0.1137                 0.1800                 0.2918
 IR Inten    --      3.1012                 0.9760                 1.6621

                      7                      8                      9
                      A                      A                      A
 Frequencies --    411.3098               462.2013               536.8997
 Red. masses --      1.7744                 4.3378                 2.9654
 Frc consts  --      0.1769                 0.5460                 0.5036
 IR Inten    --      1.4586                 2.0539                 4.4415

                     10                     11                     12
                      A                      A                      A
 Frequencies --    603.2884               636.8938               755.3354
 Red. masses --      4.1804                 3.5317                 3.1059
 Frc consts  --      0.8964                 0.8440                 1.0440
 IR Inten    --     19.2999                 1.6624                13.6808

                     13                     14                     15
                      A                      A                      A
 Frequencies --    825.7120               834.0056               848.7128
 Red. masses --      3.1807                 2.2461                 2.8011
 Frc consts  --      1.2777                 0.9205                 1.1888
 IR Inten    --     16.6517                 1.3543                14.2045

                     16                     17                     18
                      A                      A                      A
 Frequencies --    866.7405               896.9486               928.0286
 Red. masses --      2.7280                 2.2022                 2.4724
 Frc consts  --      1.2075                 1.0439                 1.2545
 IR Inten    --     23.9703                 1.1359                 5.3047

                     19                     20                     21
                      A                      A                      A
 Frequencies --    945.2352               983.7452              1004.3241
 Red. masses --      3.1238                 1.7646                 2.4029
 Frc consts  --      1.6444                 1.0062                 1.4280
 IR Inten    --     17.4496                10.9841                36.8322

                     22                     23                     24
                      A                      A                      A
 Frequencies --   1023.9573              1074.0605              1114.0239
 Red. masses --      1.5691                 1.4143                 1.8896
 Frc consts  --      0.9693                 0.9613                 1.3817
 IR Inten    --      4.1133                 3.4238                 5.6452

                     25                     26                     27
                      A                      A                      A
 Frequencies --   1121.9138              1143.4427              1152.9663
 Red. masses --      1.3781                 2.0248                 1.2199
 Frc consts  --      1.0220                 1.5598                 0.9554
 IR Inten    --      4.5737                 2.3822                 3.5377

                     28                     29                     30
                      A                      A                      A
 Frequencies --   1172.0411              1201.1740              1218.6542
 Red. masses --      1.4891                 1.7681                 1.9393
 Frc consts  --      1.2052                 1.5031                 1.6969
 IR Inten    --      1.4526                10.0107                21.4284

                     31                     32                     33
                      A                      A                      A
 Frequencies --   1268.7580              1288.7805              1299.8162
 Red. masses --      1.7121                 1.6810                 1.5741
 Frc consts  --      1.6238                 1.6450                 1.5670
 IR Inten    --      1.9425                 4.2104                13.7194

                     34                     35                     36
                      A                      A                      A
 Frequencies --   1347.7460              1414.2614              1428.8361
 Red. masses --      2.3124                 1.6737                 2.1849
 Frc consts  --      2.4748                 1.9724                 2.6281
 IR Inten    --      1.7794                18.1997                11.0935

                     37                     38                     39
                      A                      A                      A
 Frequencies --   1471.9051              1482.7671              1489.0422
 Red. masses --      1.1113                 1.0742                 1.0941
 Frc consts  --      1.4185                 1.3915                 1.4293
 IR Inten    --      3.1743                 3.9811                 6.4981

                     40                     41                     42
                      A                      A                      A
 Frequencies --   1495.0891              1537.3667              3044.4877
 Red. masses --      1.1269                 1.5745                 1.0358
 Frc consts  --      1.4841                 2.1926                 5.6568
 IR Inten    --      2.8314                 5.9068                11.1749

                     43                     44                     45
                      A                      A                      A
 Frequencies --   3059.1154              3065.1963              3078.5268
 Red. masses --      1.0599                 1.0598                 1.0505
 Frc consts  --      5.8437                 5.8666                 5.8661
 IR Inten    --     26.6057                20.2963                25.2730

                     46                     47                     48
                      A                      A                      A
 Frequencies --   3114.3338              3122.2141              3129.0939
 Red. masses --      1.0993                 1.1051                 1.0957
 Frc consts  --      6.2822                 6.3471                 6.3209
 IR Inten    --     12.5704                12.5794                36.6130

                     49                     50                     51
                      A                      A                      A
 Frequencies --   3129.8153              3139.1426              3162.5082
 Red. masses --      1.1002                 1.1052                 1.1189
 Frc consts  --      6.3500                 6.4169                 6.5934
 IR Inten    --     11.0885                29.6053                22.1160

 - Thermochemistry -
 -------------------
 Temperature   298.150 Kelvin.  Pressure   1.00000 Atm.
 Atom     1 has atomic number  6 and mass  12.00000

 Molecular mass:   126.06808 amu.
 Principal axes and moments of inertia in atomic units:
                           1         2         3
     Eigenvalues --   704.32136 969.322131271.40126
           X            0.99992   0.01017   0.00685
           Y           -0.01020   0.99994   0.00377
           Z           -0.00682  -0.00384   0.99997
 This molecule is an asymmetric top.
 Rotational symmetry number  1.
 Warning -- assumption of classical behavior for rotation
           may cause significant error
 Rotational temperatures (Kelvin)      0.12297     0.08936     0.06812
 Rotational constants (GHZ):           2.56238     1.86186     1.41949
 Zero-point vibrational energy     417901.4 (Joules/Mol)
                                   99.88084 (Kcal/Mol)
 Warning -- explicit consideration of  10 degrees of freedom as
           vibrations may cause significant error
 Vibrational temperatures:    183.61   271.74   329.80   380.80   476.19
          (Kelvin)            569.61   591.78   665.00   772.48   868.00
                              916.35  1086.76  1188.01  1199.95  1221.11
                             1247.04  1290.51  1335.22  1359.98  1415.39
                             1445.00  1473.24  1545.33  1602.83  1614.18
                             1645.16  1658.86  1686.30  1728.22  1753.37
                             1825.46  1854.27  1870.14  1939.10  2034.80
                             2055.77  2117.74  2133.37  2142.40  2151.10
                             2211.92  4380.33  4401.38  4410.13  4429.31
                             4480.83  4492.16  4502.06  4503.10  4516.52
                             4550.14

 Zero-point correction=                           0.159170 (Hartree/Particle)
 Thermal correction to Energy=                    0.166859
 Thermal correction to Enthalpy=                  0.167803
 Thermal correction to Gibbs Free Energy=         0.127445
 Sum of electronic and zero-point Energies=           -422.989778
 Sum of electronic and thermal Energies=              -422.982089
 Sum of electronic and thermal Enthalpies=            -422.981145
 Sum of electronic and thermal Free Energies=         -423.021503

                     E (Thermal)             CV                S
                      KCal/Mol        Cal/Mol-Kelvin    Cal/Mol-Kelvin
 Total                  104.706             30.986             84.941
 Electronic               0.000              0.000              0.000
 Translational            0.889              2.981             40.409
 Rotational               0.889              2.981             28.253
 Vibrational            102.928             25.025             16.279
 Vibration     1          0.611              1.926              2.982
 Vibration     2          0.633              1.855              2.239
 Vibration     3          0.652              1.796              1.885
 Vibration     4          0.671              1.738              1.631
 Vibration     5          0.713              1.614              1.255
 Vibration     6          0.763              1.479              0.978
 Vibration     7          0.775              1.446              0.922
 Vibration     8          0.820              1.334              0.760
 Vibration     9          0.892              1.168              0.572
 Vibration    10          0.962              1.025              0.444

 Optimization completed.
    -- Stationary point found.
 Normal termination of Gaussian 09 at Mon Jan 27 17:59:10 2020.
