 Gaussian 09, Revision D.01,
 Gaussian 09:  ES64L-G09RevD.01 24-Apr-2013

 -----------------------------
 # b3lyp 6-31G(2df,p) opt Freq
 -----------------------------

 -----
 titel
 -----
 Symbolic Z-matrix:
 Charge =  0 Multiplicity = 1

 SCF Done:  E(RB3LYP) =  -423.194436955     A.U. after   14 cycles
 Optimization completed.
    -- Stationary point found.
 Normal termination of Gaussian 09 at Tue Jan 28 00:42:54 2020.

 ----------------------------------------------------------------------
 #N Geom=AllCheck Guess=TCheck SCRF=Check GenChk RB3LYP/6-31G(2df,p) Fr
 eq
 ----------------------------------------------------------------------

 Structure from the checkpoint file:  "/scratch/puck/g09_d5341b0d-9b0c-43ef-bb2e-a69260fe8af8/Gau-81516.chk"
 -----
 titel
 -----
 Charge =  0 Multiplicity = 1

                         Standard orientation:
 ---------------------------------------------------------------------
 Center     Atomic      Atomic             Coordinates (Angstroms)
 Number     Number       Type             X           Y           Z
 ---------------------------------------------------------------------
      1          6           0        3.035349   -0.440775   -0.045198
      2          6           0        1.678942    0.231923    0.080988
      3          6           0        0.638131    0.041962   -1.056001
      4          6           0       -0.488683   -0.122542    0.006536
      5          6           0        0.648788   -0.367668    1.075250
      6          6           0       -1.238650    1.155676    0.317373
      7          8           0       -0.966684    2.231553   -0.152550
      8          6           0       -1.423710   -1.292734   -0.170496
      9          8           0       -2.624166   -1.247679   -0.081422
     10          1           0        3.617657   -0.002363   -0.862868
     11          1           0        3.620246   -0.332034    0.874757
     12          1           0        2.927953   -1.512608   -0.248828
     13          1           0        1.804431    1.300207    0.280557
     14          1           0        0.491601    0.869575   -1.750654
     15          1           0        0.801212   -0.886029   -1.614104
     16          1           0        0.515016    0.112034    2.048337
     17          1           0        0.802926   -1.440928    1.233432
     18          1           0       -2.057217    1.036972    1.055961
     19          1           0       -0.898032   -2.250867   -0.395522
 ---------------------------------------------------------------------

 SCF Done:  E(RB3LYP) =  -423.194436955     A.U. after    1 cycles

 The electronic state is 1-A.
 Alpha  occ. eigenvalues --  -19.15347 -19.14754 -10.28369 -10.27610 -10.21644
 Alpha  occ. eigenvalues --  -10.21194 -10.20387 -10.19885 -10.18609  -1.06170
 Alpha  occ. eigenvalues --   -1.05308  -0.87477  -0.75970  -0.68626  -0.68324
 Alpha  occ. eigenvalues --   -0.63514  -0.56994  -0.53993  -0.50318  -0.49765
 Alpha  occ. eigenvalues --   -0.46005  -0.45327  -0.43479  -0.42892  -0.41484
 Alpha  occ. eigenvalues --   -0.40837  -0.39679  -0.38528  -0.34676  -0.34337
 Alpha  occ. eigenvalues --   -0.33352  -0.31844  -0.27102  -0.24990
 Alpha virt. eigenvalues --   -0.03798  -0.02934   0.07746   0.09292   0.10375
 Alpha virt. eigenvalues --    0.12913   0.13619   0.14391   0.14952   0.15557
 Alpha virt. eigenvalues --    0.15741   0.17221   0.18007   0.19287   0.20305

 Mulliken charges:
               1
     1  C   -0.413972
     2  C    0.063064
     3  C   -0.287399
     4  C    0.110022
     5  C   -0.291957
     6  C    0.115517
     7  O   -0.256763
     8  C    0.112101
     9  O   -0.250687
    10  H    0.124097
    11  H    0.120670
    12  H    0.111456
    13  H    0.098236
    14  H    0.133802
    15  H    0.101180
    16  H    0.119546
    17  H    0.110256
    18  H    0.103743
    19  H    0.077088
 Sum of Mulliken charges =   0.00000

 Dipole moment (field-independent basis, Debye):
    X=              2.8819    Y=             -1.7139    Z=              0.7124  Tot=              3.4279
 Quadrupole moment (field-independent basis, Debye-Ang):
   XX=            -59.9389   YY=            -59.1234   ZZ=            -51.1367
   XY=             -1.2813   XZ=             -0.8449   YZ=              1.3622

  Exact polarizability:  90.664  -0.699  75.408  -2.651  -0.600  64.748
 Approx polarizability: 125.091   0.926 116.809  -3.786  -4.682  99.011

                      1                      2                      3
                      A                      A                      A
 Frequencies --     45.7402                66.1381                86.8676
 Red. masses --      4.6922                 3.8558                 3.3259
 Frc consts  --      0.0058                 0.0099                 0.0148
 IR Inten    --      8.6847                 1.4383                 1.3338

                      4                      5                      6
                      A                      A                      A
 Frequencies --    209.5273               225.0460               252.2157
 Red. masses --      2.7631                 1.2005                 2.5849
 Frc consts  --      0.0715                 0.0358                 0.0969
 IR Inten    --      7.1290                 0.8289                 5.0273

                      7                      8                      9
                      A                      A                      A
 Frequencies --    273.4665               292.7613               368.4147
 Red. masses --      3.3080                 1.9101                 2.2853
 Frc consts  --      0.1458                 0.0965                 0.1828
 IR Inten    --      0.4481                 0.3509                 3.9384

                     10                     11                     12
                      A                      A                      A
 Frequencies --    404.8115               435.4828               590.8792
 Red. masses --      2.1955                 3.5398                 3.6655
 Frc consts  --      0.2120                 0.3955                 0.7540
 IR Inten    --      0.3571                 1.9487                 5.1834

                     13                     14                     15
                      A                      A                      A
 Frequencies --    680.7318               756.7973               820.9412
 Red. masses --      4.1717                 2.8771                 1.4325
 Frc consts  --      1.1390                 0.9709                 0.5688
 IR Inten    --     12.4599                 7.9186                 1.6841

                     16                     17                     18
                      A                      A                      A
 Frequencies --    857.4718               891.4098               907.4584
 Red. masses --      2.7532                 2.6775                 1.9802
 Frc consts  --      1.1927                 1.2535                 0.9608
 IR Inten    --     13.2294                 2.8320                 0.1266

                     19                     20                     21
                      A                      A                      A
 Frequencies --    922.2454               980.7982               996.3440
 Red. masses --      1.9505                 1.3870                 1.6654
 Frc consts  --      0.9775                 0.7861                 0.9741
 IR Inten    --     13.5833                33.1013                12.8260

                     22                     23                     24
                      A                      A                      A
 Frequencies --   1078.6066              1082.6922              1102.2227
 Red. masses --      1.4932                 1.8955                 2.4859
 Frc consts  --      1.0235                 1.3091                 1.7794
 IR Inten    --      2.0974                 1.4733                 1.7695

                     25                     26                     27
                      A                      A                      A
 Frequencies --   1150.9263              1176.5471              1219.3665
 Red. masses --      1.8137                 3.4103                 2.0758
 Frc consts  --      1.4155                 2.7814                 1.8185
 IR Inten    --      3.7110                29.9911                 5.5338

                     28                     29                     30
                      A                      A                      A
 Frequencies --   1244.6656              1270.3427              1296.5536
 Red. masses --      1.3463                 1.4460                 1.3673
 Frc consts  --      1.2289                 1.3748                 1.3542
 IR Inten    --      0.7121                 3.5806                 1.3511

                     31                     32                     33
                      A                      A                      A
 Frequencies --   1305.0546              1377.1644              1412.3530
 Red. masses --      2.0174                 1.4331                 1.2687
 Frc consts  --      2.0244                 1.6014                 1.4911
 IR Inten    --     12.9248                 6.1070                 3.8886

                     34                     35                     36
                      A                      A                      A
 Frequencies --   1419.7273              1430.0992              1461.3162
 Red. masses --      1.2155                 1.2398                 1.0901
 Frc consts  --      1.4434                 1.4939                 1.3716
 IR Inten    --      1.9254                 5.0902                 5.5847

                     37                     38                     39
                      A                      A                      A
 Frequencies --   1486.0253              1494.5819              1495.9492
 Red. masses --      1.1202                 1.0496                 1.0465
 Frc consts  --      1.4575                 1.3814                 1.3799
 IR Inten    --      0.7968                 2.4826                 7.5564

                     40                     41                     42
                      A                      A                      A
 Frequencies --   1815.3137              1823.8640              2852.1591
 Red. masses --     10.8327                10.5039                 1.0826
 Frc consts  --     21.0326                20.5866                 5.1888
 IR Inten    --    192.4575               148.1429                92.9942

                     43                     44                     45
                      A                      A                      A
 Frequencies --   2931.4759              3023.9783              3040.0849
 Red. masses --      1.0846                 1.0358                 1.0597
 Frc consts  --      5.4918                 5.5808                 5.7706
 IR Inten    --     70.8733                20.9553                25.5569

                     46                     47                     48
                      A                      A                      A
 Frequencies --   3050.6534              3063.8882              3092.7119
 Red. masses --      1.0667                 1.0823                 1.1008
 Frc consts  --      5.8491                 5.9860                 6.2032
 IR Inten    --     15.4204                 6.3079                22.4144

                     49                     50                     51
                      A                      A                      A
 Frequencies --   3096.7376              3104.0932              3134.4274
 Red. masses --      1.1010                 1.1042                 1.1020
 Frc consts  --      6.2210                 6.2686                 6.3788
 IR Inten    --     23.6543                30.8857                 9.6173

 - Thermochemistry -
 -------------------
 Temperature   298.150 Kelvin.  Pressure   1.00000 Atm.
 Atom     1 has atomic number  6 and mass  12.00000

 Molecular mass:   126.06808 amu.
 Principal axes and moments of inertia in atomic units:
                           1         2         3
     Eigenvalues --   724.950961475.196191887.35874
           X            0.99970  -0.02386  -0.00634
           Y            0.02390   0.99969   0.00699
           Z            0.00617  -0.00714   0.99996
 This molecule is an asymmetric top.
 Rotational symmetry number  1.
 Warning -- assumption of classical behavior for rotation
           may cause significant error
 Rotational temperatures (Kelvin)      0.11948     0.05871     0.04589
 Rotational constants (GHZ):           2.48947     1.22339     0.95623
 Zero-point vibrational energy     410313.9 (Joules/Mol)
                                   98.06738 (Kcal/Mol)
 Warning -- explicit consideration of  12 degrees of freedom as
           vibrations may cause significant error
 Vibrational temperatures:     65.81    95.16   124.98   301.46   323.79
          (Kelvin)            362.88   393.46   421.22   530.07   582.43
                              626.56   850.14   979.42  1088.86  1181.15
                             1233.71  1282.54  1305.63  1326.90  1411.15
                             1433.52  1551.87  1557.75  1585.85  1655.92
                             1692.79  1754.39  1790.79  1827.74  1865.45
                             1877.68  1981.43  2032.06  2042.67  2057.59
                             2102.51  2138.06  2150.37  2152.33  2611.83
                             2624.13  4103.62  4217.73  4350.82  4374.00
                             4389.20  4408.25  4449.72  4455.51  4466.09
                             4509.74

 Zero-point correction=                           0.156280 (Hartree/Particle)
 Thermal correction to Energy=                    0.165859
 Thermal correction to Enthalpy=                  0.166803
 Thermal correction to Gibbs Free Energy=         0.120881
 Sum of electronic and zero-point Energies=           -423.038157
 Sum of electronic and thermal Energies=              -423.028578
 Sum of electronic and thermal Enthalpies=            -423.027634
 Sum of electronic and thermal Free Energies=         -423.073556

                     E (Thermal)             CV                S
                      KCal/Mol        Cal/Mol-Kelvin    Cal/Mol-Kelvin
 Total                  104.078             34.065             96.651
 Electronic               0.000              0.000              0.000
 Translational            0.889              2.981             40.409
 Rotational               0.889              2.981             29.091
 Vibrational            102.300             28.104             27.151
 Vibration     1          0.595              1.979              4.994
 Vibration     2          0.598              1.970              4.265
 Vibration     3          0.601              1.958              3.729
 Vibration     4          0.642              1.826              2.048
 Vibration     5          0.650              1.803              1.918
 Vibration     6          0.664              1.759              1.715
 Vibration     7          0.676              1.722              1.574
 Vibration     8          0.688              1.687              1.458
 Vibration     9          0.741              1.537              1.086
 Vibration    10          0.770              1.460              0.945
 Vibration    11          0.796              1.393              0.841
 Vibration    12          0.948              1.051              0.466

 Optimization completed.
    -- Stationary point found.
 Normal termination of Gaussian 09 at Tue Jan 28 01:24:43 2020.
