 Gaussian 09, Revision D.01,
 Gaussian 09:  ES64L-G09RevD.01 24-Apr-2013

 -----------------------------
 # b3lyp 6-31G(2df,p) opt Freq
 -----------------------------

 -----
 titel
 -----
 Symbolic Z-matrix:
 Charge =  0 Multiplicity = 1

 SCF Done:  E(RB3LYP) =  -423.187583295     A.U. after   14 cycles
 Optimization completed.
    -- Stationary point found.
 Normal termination of Gaussian 09 at Tue Jan 28 00:30:12 2020.

 ----------------------------------------------------------------------
 #N Geom=AllCheck Guess=TCheck SCRF=Check GenChk RB3LYP/6-31G(2df,p) Fr
 eq
 ----------------------------------------------------------------------

 Structure from the checkpoint file:  "/scratch/puck/g09_3c107ae8-81f5-406d-b37d-246e1a51c9f1/Gau-106363.chk"
 -----
 titel
 -----
 Charge =  0 Multiplicity = 1

                         Standard orientation:
 ---------------------------------------------------------------------
 Center     Atomic      Atomic             Coordinates (Angstroms)
 Number     Number       Type             X           Y           Z
 ---------------------------------------------------------------------
      1          6           0        2.563598   -0.656176   -0.320924
      2          6           0        1.176373   -0.141065   -0.012264
      3          6           0        1.043968    1.364371    0.118009
      4          6           0       -0.372012    1.866580    0.111286
      5          6           0       -1.431715    1.123263   -0.196200
      6          6           0       -1.378010   -0.335882   -0.558861
      7          8           0       -2.344161   -1.082748    0.181120
      8          6           0       -0.005405   -0.945941   -0.365994
      9          8           0        0.470548   -0.896300    0.989272
     10          1           0        3.277976   -0.314171    0.436253
     11          1           0        2.573925   -1.748661   -0.330120
     12          1           0        2.907861   -0.293264   -1.295173
     13          1           0        1.548166    1.680668    1.042104
     14          1           0        1.608873    1.840334   -0.696721
     15          1           0       -0.508019    2.913891    0.370591
     16          1           0       -2.431006    1.549920   -0.178592
     17          1           0       -1.672875   -0.466288   -1.608883
     18          1           0       -2.038705   -1.069008    1.097052
     19          1           0        0.141912   -1.911946   -0.849954
 ---------------------------------------------------------------------

 SCF Done:  E(RB3LYP) =  -423.187583295     A.U. after    1 cycles

 The electronic state is 1-A.
 Alpha  occ. eigenvalues --  -19.14831 -19.13142 -10.24653 -10.23576 -10.23224
 Alpha  occ. eigenvalues --  -10.19576 -10.18895 -10.18568 -10.17980  -1.07121
 Alpha  occ. eigenvalues --   -1.01213  -0.81281  -0.76319  -0.72465  -0.68302
 Alpha  occ. eigenvalues --   -0.61766  -0.58934  -0.53099  -0.51116  -0.47743
 Alpha  occ. eigenvalues --   -0.45811  -0.45202  -0.43745  -0.42703  -0.40776
 Alpha  occ. eigenvalues --   -0.39548  -0.38580  -0.36007  -0.34288  -0.33549
 Alpha  occ. eigenvalues --   -0.29509  -0.27645  -0.26132  -0.25147
 Alpha virt. eigenvalues --    0.01481   0.08673   0.09300   0.10225   0.12008
 Alpha virt. eigenvalues --    0.12447   0.14016   0.15467   0.15744   0.16968
 Alpha virt. eigenvalues --    0.17701   0.18349   0.19221   0.21112   0.22475

 Mulliken charges:
               1
     1  C   -0.469378
     2  C    0.403190
     3  C   -0.338564
     4  C   -0.051248
     5  C   -0.096612
     6  C    0.067454
     7  O   -0.436898
     8  C   -0.052908
     9  O   -0.304344
    10  H    0.126621
    11  H    0.130987
    12  H    0.122190
    13  H    0.119775
    14  H    0.116561
    15  H    0.092789
    16  H    0.097673
    17  H    0.092872
    18  H    0.289781
    19  H    0.090057
 Sum of Mulliken charges =   0.00000

 Dipole moment (field-independent basis, Debye):
    X=              1.8128    Y=              1.3518    Z=             -0.9462  Tot=              2.4514
 Quadrupole moment (field-independent basis, Debye-Ang):
   XX=            -54.6115   YY=            -52.4649   ZZ=            -52.6875
   XY=             -1.5586   XZ=             -1.5591   YZ=              1.6580

  Exact polarizability:  91.519   5.700  78.191   2.604   4.221  58.942
 Approx polarizability: 128.538  19.330 112.778   6.796   4.892  98.707

                      1                      2                      3
                      A                      A                      A
 Frequencies --     96.4053               159.9002               200.6335
 Red. masses --      3.4288                 2.3416                 1.1670
 Frc consts  --      0.0188                 0.0353                 0.0277
 IR Inten    --      1.6969                 1.0659                 0.9968

                      4                      5                      6
                      A                      A                      A
 Frequencies --    260.4448               295.6599               352.1702
 Red. masses --      2.9755                 3.0161                 2.4660
 Frc consts  --      0.1189                 0.1553                 0.1802
 IR Inten    --      0.3180                 0.4102                 7.2800

                      7                      8                      9
                      A                      A                      A
 Frequencies --    379.7225               428.8932               452.0246
 Red. masses --      3.6326                 1.2288                 4.3200
 Frc consts  --      0.3086                 0.1332                 0.5201
 IR Inten    --      5.2303                89.2644                 4.5987

                     10                     11                     12
                      A                      A                      A
 Frequencies --    484.8727               509.6728               633.8095
 Red. masses --      3.1399                 3.6066                 3.8301
 Frc consts  --      0.4349                 0.5520                 0.9065
 IR Inten    --      2.0724                 8.7402                 6.0743

                     13                     14                     15
                      A                      A                      A
 Frequencies --    693.0794               750.8068               804.8318
 Red. masses --      2.0075                 4.4158                 2.4943
 Frc consts  --      0.5682                 1.4666                 0.9519
 IR Inten    --      7.2158                 7.9482                14.2438

                     16                     17                     18
                      A                      A                      A
 Frequencies --    877.6390               891.1004               913.6467
 Red. masses --      2.9984                 3.4923                 2.3521
 Frc consts  --      1.3607                 1.6339                 1.1568
 IR Inten    --     59.0670                 6.2182                 6.2264

                     19                     20                     21
                      A                      A                      A
 Frequencies --    942.2004               990.7161              1007.7742
 Red. masses --      2.0717                 2.5050                 1.2416
 Frc consts  --      1.0836                 1.4486                 0.7429
 IR Inten    --      5.4592                12.8951                 0.2276

                     22                     23                     24
                      A                      A                      A
 Frequencies --   1022.9986              1048.8906              1082.2092
 Red. masses --      1.6427                 3.2919                 1.9523
 Frc consts  --      1.0129                 2.1338                 1.3472
 IR Inten    --     27.3577                67.5408                 0.7047

                     25                     26                     27
                      A                      A                      A
 Frequencies --   1109.8095              1129.5209              1192.0119
 Red. masses --      1.7137                 1.9377                 1.0720
 Frc consts  --      1.2436                 1.4565                 0.8974
 IR Inten    --     11.2095                 8.3849                 0.5612

                     28                     29                     30
                      A                      A                      A
 Frequencies --   1224.1680              1249.3083              1262.7270
 Red. masses --      1.7402                 1.2459                 1.2806
 Frc consts  --      1.5365                 1.1457                 1.2030
 IR Inten    --      8.6528                 5.2989                16.7371

                     31                     32                     33
                      A                      A                      A
 Frequencies --   1321.6089              1360.9628              1383.5377
 Red. masses --      1.4199                 1.6626                 2.1909
 Frc consts  --      1.4612                 1.8143                 2.4709
 IR Inten    --      2.8210                 5.6866                 8.9917

                     34                     35                     36
                      A                      A                      A
 Frequencies --   1408.0011              1414.6077              1427.3392
 Red. masses --      1.3747                 1.3574                 1.3557
 Frc consts  --      1.6057                 1.6004                 1.6273
 IR Inten    --      7.8132                21.2004                41.6465

                     37                     38                     39
                      A                      A                      A
 Frequencies --   1457.1064              1469.5249              1488.2896
 Red. masses --      1.3163                 1.3600                 1.1022
 Frc consts  --      1.6466                 1.7304                 1.4384
 IR Inten    --     16.7862                 4.3439                 8.6715

                     40                     41                     42
                      A                      A                      A
 Frequencies --   1503.1780              1731.9085              3004.3265
 Red. masses --      1.4494                 7.0101                 1.0604
 Frc consts  --      1.9296                12.3887                 5.6390
 IR Inten    --      2.7874                 4.8439                25.0259

                     43                     44                     45
                      A                      A                      A
 Frequencies --   3020.8022              3029.0822              3034.5582
 Red. masses --      1.0827                 1.0985                 1.0367
 Frc consts  --      5.8209                 5.9386                 5.6246
 IR Inten    --     25.1539                14.7731                22.8479

                     46                     47                     48
                      A                      A                      A
 Frequencies --   3097.2499              3106.8729              3125.2801
 Red. masses --      1.1005                 1.0886                 1.1009
 Frc consts  --      6.2199                 6.1910                 6.3354
 IR Inten    --     17.1789                31.6495                17.5015

                     49                     50                     51
                      A                      A                      A
 Frequencies --   3148.7723              3174.5659              3780.2361
 Red. masses --      1.0841                 1.0962                 1.0657
 Frc consts  --      6.3329                 6.5088                 8.9726
 IR Inten    --      9.5200                23.3746                20.2928

 - Thermochemistry -
 -------------------
 Temperature   298.150 Kelvin.  Pressure   1.00000 Atm.
 Atom     1 has atomic number  6 and mass  12.00000

 Molecular mass:   126.06808 amu.
 Principal axes and moments of inertia in atomic units:
                           1         2         3
     Eigenvalues --   662.902371160.245451596.67987
           X            0.99970  -0.02293  -0.00867
           Y            0.02315   0.99938   0.02665
           Z            0.00806  -0.02684   0.99961
 This molecule is an asymmetric top.
 Rotational symmetry number  1.
 Warning -- assumption of classical behavior for rotation
           may cause significant error
 Rotational temperatures (Kelvin)      0.13066     0.07465     0.05425
 Rotational constants (GHZ):           2.72248     1.55548     1.13031
 Zero-point vibrational energy     418306.9 (Joules/Mol)
                                   99.97776 (Kcal/Mol)
 Warning -- explicit consideration of  11 degrees of freedom as
           vibrations may cause significant error
 Vibrational temperatures:    138.71   230.06   288.67   374.72   425.39
          (Kelvin)            506.69   546.34   617.08   650.36   697.62
                              733.30   911.91   997.19  1080.24  1157.97
                             1262.73  1282.09  1314.53  1355.61  1425.42
                             1449.96  1471.86  1509.12  1557.06  1596.77
                             1625.13  1715.04  1761.30  1797.47  1816.78
                             1901.50  1958.12  1990.60  2025.80  2035.30
                             2053.62  2096.45  2114.32  2141.31  2162.74
                             2491.83  4322.55  4346.26  4358.17  4366.05
                             4456.25  4470.09  4496.58  4530.38  4567.49
                             5438.91

 Zero-point correction=                           0.159325 (Hartree/Particle)
 Thermal correction to Energy=                    0.167650
 Thermal correction to Enthalpy=                  0.168594
 Thermal correction to Gibbs Free Energy=         0.126758
 Sum of electronic and zero-point Energies=           -423.028259
 Sum of electronic and thermal Energies=              -423.019934
 Sum of electronic and thermal Enthalpies=            -423.018989
 Sum of electronic and thermal Free Energies=         -423.060825

                     E (Thermal)             CV                S
                      KCal/Mol        Cal/Mol-Kelvin    Cal/Mol-Kelvin
 Total                  105.202             32.610             88.051
 Electronic               0.000              0.000              0.000
 Translational            0.889              2.981             40.409
 Rotational               0.889              2.981             28.598
 Vibrational            103.424             26.648             19.045
 Vibration     1          0.603              1.952              3.526
 Vibration     2          0.622              1.891              2.551
 Vibration     3          0.638              1.839              2.127
 Vibration     4          0.668              1.745              1.659
 Vibration     5          0.690              1.682              1.441
 Vibration     6          0.729              1.571              1.156
 Vibration     7          0.750              1.513              1.040
 Vibration     8          0.790              1.407              0.862
 Vibration     9          0.811              1.356              0.790
 Vibration    10          0.841              1.284              0.697
 Vibration    11          0.865              1.229              0.634

 Optimization completed.
    -- Stationary point found.
 Normal termination of Gaussian 09 at Tue Jan 28 01:13:37 2020.
