 Gaussian 09, Revision D.01,
 Gaussian 09:  ES64L-G09RevD.01 24-Apr-2013

 -----------------------------
 # b3lyp 6-31G(2df,p) opt Freq
 -----------------------------

 -----
 titel
 -----
 Symbolic Z-matrix:
 Charge =  0 Multiplicity = 1

 SCF Done:  E(RB3LYP) =  -423.223410025     A.U. after   14 cycles
 Optimization completed.
    -- Stationary point found.
 Normal termination of Gaussian 09 at Tue Jan 28 03:59:34 2020.

 ----------------------------------------------------------------------
 #N Geom=AllCheck Guess=TCheck SCRF=Check GenChk RB3LYP/6-31G(2df,p) Fr
 eq
 ----------------------------------------------------------------------

 Structure from the checkpoint file:  "/scratch/puck/g09_1b235ea9-f6d7-426d-85b3-4156d1be159f/Gau-90771.chk"
 -----
 titel
 -----
 Charge =  0 Multiplicity = 1

                         Standard orientation:
 ---------------------------------------------------------------------
 Center     Atomic      Atomic             Coordinates (Angstroms)
 Number     Number       Type             X           Y           Z
 ---------------------------------------------------------------------
      1          6           0       -2.134555   -1.580227   -0.199490
      2          6           0       -1.218866   -0.414995   -0.007806
      3          6           0        0.125679   -0.398677    0.098842
      4          6           0        1.034604   -1.534673    0.046618
      5          8           0        2.246280   -1.423597    0.137688
      6          6           0        0.665445    1.005086    0.337647
      7          8           0        1.772399    1.342356   -0.473950
      8          6           0       -0.540075    1.899587   -0.007127
      9          6           0       -1.777250    0.984899    0.129288
     10          1           0       -2.864545   -1.628178    0.618275
     11          1           0       -2.714907   -1.456986   -1.122376
     12          1           0       -1.613848   -2.537934   -0.248813
     13          1           0        0.580259   -2.537801   -0.087251
     14          1           0        0.935741    1.105604    1.403591
     15          1           0        2.428345    0.647314   -0.322915
     16          1           0       -0.598056    2.798642    0.609442
     17          1           0       -0.414243    2.211781   -1.048049
     18          1           0       -2.259985    1.089104    1.112122
     19          1           0       -2.558091    1.192384   -0.611756
 ---------------------------------------------------------------------

 SCF Done:  E(RB3LYP) =  -423.223410025     A.U. after    1 cycles

 The electronic state is 1-A.
 Alpha  occ. eigenvalues --  -19.13867 -19.11818 -10.27022 -10.23101 -10.22340
 Alpha  occ. eigenvalues --  -10.20411 -10.19952 -10.18950 -10.18366  -1.04284
 Alpha  occ. eigenvalues --   -1.00385  -0.86049  -0.76233  -0.73527  -0.67465
 Alpha  occ. eigenvalues --   -0.62320  -0.57796  -0.53609  -0.49966  -0.48801
 Alpha  occ. eigenvalues --   -0.46409  -0.45133  -0.42825  -0.42149  -0.40470
 Alpha  occ. eigenvalues --   -0.39356  -0.38728  -0.37289  -0.35677  -0.34815
 Alpha  occ. eigenvalues --   -0.32302  -0.26600  -0.25637  -0.24908
 Alpha virt. eigenvalues --   -0.06086   0.05668   0.07991   0.09748   0.11795
 Alpha virt. eigenvalues --    0.12572   0.13451   0.15816   0.16104   0.17058
 Alpha virt. eigenvalues --    0.17565   0.18886   0.20254   0.21414   0.23203

 Mulliken charges:
               1
     1  C   -0.499700
     2  C    0.219948
     3  C    0.123153
     4  C    0.062615
     5  O   -0.298925
     6  C    0.048099
     7  O   -0.444139
     8  C   -0.235180
     9  C   -0.302829
    10  H    0.141113
    11  H    0.143025
    12  H    0.136828
    13  H    0.077695
    14  H    0.071802
    15  H    0.294166
    16  H    0.105233
    17  H    0.123636
    18  H    0.119747
    19  H    0.113713
 Sum of Mulliken charges =   0.00000

 Dipole moment (field-independent basis, Debye):
    X=             -4.1048    Y=             -0.8317    Z=              0.5825  Tot=              4.2285
 Quadrupole moment (field-independent basis, Debye-Ang):
   XX=            -56.0349   YY=            -54.0114   ZZ=            -52.9235
   XY=              1.4163   XZ=              0.8071   YZ=              1.9928

  Exact polarizability: 106.622  -3.232  83.203   1.730   1.812  55.223
 Approx polarizability: 179.145  -9.881 110.756   3.514   0.994  87.447

                      1                      2                      3
                      A                      A                      A
 Frequencies --     92.1427               128.6828               152.9621
 Red. masses --      3.6981                 2.0673                 1.5697
 Frc consts  --      0.0185                 0.0202                 0.0216
 IR Inten    --      1.5497                 1.2441                 0.1559

                      4                      5                      6
                      A                      A                      A
 Frequencies --    178.9327               214.0942               264.8990
 Red. masses --      1.6305                 6.1700                 2.6557
 Frc consts  --      0.0308                 0.1666                 0.1098
 IR Inten    --      2.4908                 7.5895                 2.8776

                      7                      8                      9
                      A                      A                      A
 Frequencies --    298.6741               397.1958               441.6438
 Red. masses --      2.8226                 3.4078                 3.0769
 Frc consts  --      0.1484                 0.3168                 0.3536
 IR Inten    --      6.1899                11.7082                 7.6408

                     10                     11                     12
                      A                      A                      A
 Frequencies --    494.0467               533.8606               564.5561
 Red. masses --      3.6636                 1.2392                 2.6380
 Frc consts  --      0.5269                 0.2081                 0.4954
 IR Inten    --      6.9472               100.5390                22.9125

                     13                     14                     15
                      A                      A                      A
 Frequencies --    621.8918               630.1551               770.8040
 Red. masses --      2.6348                 4.4612                 2.7842
 Frc consts  --      0.6004                 1.0437                 0.9746
 IR Inten    --      8.2195                 3.0938                16.6325

                     16                     17                     18
                      A                      A                      A
 Frequencies --    854.8075               911.9455               953.1983
 Red. masses --      1.7475                 2.1938                 1.8691
 Frc consts  --      0.7523                 1.0749                 1.0005
 IR Inten    --      4.0044                 2.1749                 2.1509

                     19                     20                     21
                      A                      A                      A
 Frequencies --    975.4651              1012.3388              1027.8246
 Red. masses --      1.7101                 2.2290                 2.0227
 Frc consts  --      0.9587                 1.3459                 1.2590
 IR Inten    --      4.4579                 2.0360                10.1426

                     22                     23                     24
                      A                      A                      A
 Frequencies --   1043.4996              1084.4761              1118.9379
 Red. masses --      2.2319                 2.0342                 3.0374
 Frc consts  --      1.4319                 1.4095                 2.2406
 IR Inten    --     26.7227                 4.1222                47.0528

                     25                     26                     27
                      A                      A                      A
 Frequencies --   1165.5785              1204.1731              1236.3054
 Red. masses --      1.4148                 2.6310                 1.4032
 Frc consts  --      1.1325                 2.2477                 1.2636
 IR Inten    --      5.4537                 2.1340                 1.7574

                     28                     29                     30
                      A                      A                      A
 Frequencies --   1276.1969              1282.1945              1307.4779
 Red. masses --      1.4979                 1.3680                 1.4032
 Frc consts  --      1.4374                 1.3251                 1.4133
 IR Inten    --     54.4884                16.3444                31.2048

                     31                     32                     33
                      A                      A                      A
 Frequencies --   1350.5342              1371.6069              1405.3621
 Red. masses --      1.5343                 1.8905                 1.3349
 Frc consts  --      1.6488                 2.0955                 1.5534
 IR Inten    --     51.5357                33.9422                 6.4308

                     34                     35                     36
                      A                      A                      A
 Frequencies --   1425.7805              1435.5748              1472.8641
 Red. masses --      1.2399                 1.6232                 1.0762
 Frc consts  --      1.4851                 1.9709                 1.3756
 IR Inten    --      0.7828                70.9540                 3.3380

                     37                     38                     39
                      A                      A                      A
 Frequencies --   1475.8482              1480.2235              1494.5557
 Red. masses --      1.0506                 1.0835                 1.1007
 Frc consts  --      1.3483                 1.3988                 1.4485
 IR Inten    --      5.2532                15.2900                 3.8668

                     40                     41                     42
                      A                      A                      A
 Frequencies --   1693.9483              1743.8239              2915.3697
 Red. masses --      7.1614                 9.3885                 1.0827
 Frc consts  --     12.1073                16.8210                 5.4218
 IR Inten    --     67.5740               277.9707               104.6714

                     43                     44                     45
                      A                      A                      A
 Frequencies --   2939.3909              3006.5302              3025.4267
 Red. masses --      1.0816                 1.0674                 1.0404
 Frc consts  --      5.5058                 5.6848                 5.6107
 IR Inten    --     56.4928                21.0034                19.8949

                     46                     47                     48
                      A                      A                      A
 Frequencies --   3051.7369              3069.3464              3071.6998
 Red. masses --      1.0893                 1.0647                 1.0967
 Frc consts  --      5.9774                 5.9100                 6.0968
 IR Inten    --     16.8586                21.5870                14.4924

                     49                     50                     51
                      A                      A                      A
 Frequencies --   3119.9028              3130.9435              3741.9944
 Red. masses --      1.1047                 1.0980                 1.0653
 Frc consts  --      6.3355                 6.3418                 8.7886
 IR Inten    --     24.5437                14.9285                64.1954

 - Thermochemistry -
 -------------------
 Temperature   298.150 Kelvin.  Pressure   1.00000 Atm.
 Atom     1 has atomic number  6 and mass  12.00000

 Molecular mass:   126.06808 amu.
 Principal axes and moments of inertia in atomic units:
                           1         2         3
     Eigenvalues --   849.837021120.328771877.55237
           X            0.99722   0.07440   0.00458
           Y           -0.07445   0.99714   0.01269
           Z           -0.00362  -0.01300   0.99991
 This molecule is an asymmetric top.
 Rotational symmetry number  1.
 Warning -- assumption of classical behavior for rotation
           may cause significant error
 Rotational temperatures (Kelvin)      0.10192     0.07731     0.04613
 Rotational constants (GHZ):           2.12363     1.61090     0.96122
 Zero-point vibrational energy     416667.8 (Joules/Mol)
                                   99.58600 (Kcal/Mol)
 Warning -- explicit consideration of  12 degrees of freedom as
           vibrations may cause significant error
 Vibrational temperatures:    132.57   185.15   220.08   257.44   308.03
          (Kelvin)            381.13   429.72   571.48   635.43   710.82
                              768.11   812.27   894.76   906.65  1109.01
                             1229.88  1312.08  1371.44  1403.47  1456.53
                             1478.81  1501.36  1560.32  1609.90  1677.01
                             1732.53  1778.77  1836.16  1844.79  1881.17
                             1943.11  1973.43  2022.00  2051.38  2065.47
                             2119.12  2123.41  2129.71  2150.33  2437.21
                             2508.97  4194.56  4229.12  4325.72  4352.91
                             4390.76  4416.10  4419.49  4488.84  4504.72
                             5383.89

 Zero-point correction=                           0.158700 (Hartree/Particle)
 Thermal correction to Energy=                    0.167693
 Thermal correction to Enthalpy=                  0.168637
 Thermal correction to Gibbs Free Energy=         0.124993
 Sum of electronic and zero-point Energies=           -423.064710
 Sum of electronic and thermal Energies=              -423.055717
 Sum of electronic and thermal Enthalpies=            -423.054773
 Sum of electronic and thermal Free Energies=         -423.098417

                     E (Thermal)             CV                S
                      KCal/Mol        Cal/Mol-Kelvin    Cal/Mol-Kelvin
 Total                  105.229             33.385             91.857
 Electronic               0.000              0.000              0.000
 Translational            0.889              2.981             40.409
 Rotational               0.889              2.981             28.971
 Vibrational            103.452             27.424             22.477
 Vibration     1          0.602              1.955              3.614
 Vibration     2          0.611              1.925              2.966
 Vibration     3          0.619              1.899              2.635
 Vibration     4          0.629              1.868              2.340
 Vibration     5          0.644              1.819              2.008
 Vibration     6          0.671              1.737              1.629
 Vibration     7          0.692              1.676              1.424
 Vibration     8          0.764              1.476              0.973
 Vibration     9          0.801              1.379              0.821
 Vibration    10          0.850              1.263              0.673
 Vibration    11          0.889              1.175              0.579
 Vibration    12          0.920              1.108              0.515

 Optimization completed.
    -- Stationary point found.
 Normal termination of Gaussian 09 at Tue Jan 28 04:39:37 2020.
