 Gaussian 09, Revision D.01,
 Gaussian 09:  ES64L-G09RevD.01 24-Apr-2013

 -----------------------------
 # b3lyp 6-31G(2df,p) opt Freq
 -----------------------------

 -----
 titel
 -----
 Symbolic Z-matrix:
 Charge =  0 Multiplicity = 1

 SCF Done:  E(RB3LYP) =  -423.122920661     A.U. after   14 cycles
 Optimization completed.
    -- Stationary point found.
 Normal termination of Gaussian 09 at Tue Jan 28 09:22:45 2020.

 ----------------------------------------------------------------------
 #N Geom=AllCheck Guess=TCheck SCRF=Check GenChk RB3LYP/6-31G(2df,p) Fr
 eq
 ----------------------------------------------------------------------

 Structure from the checkpoint file:  "/scratch/puck/g09_c9c4c456-f1ce-4868-8e81-87e0fca6fe6c/Gau-82540.chk"
 -----
 titel
 -----
 Charge =  0 Multiplicity = 1

                         Standard orientation:
 ---------------------------------------------------------------------
 Center     Atomic      Atomic             Coordinates (Angstroms)
 Number     Number       Type             X           Y           Z
 ---------------------------------------------------------------------
      1          6           0        2.667057    0.241416    0.458847
      2          6           0        1.816520   -0.662163   -0.446913
      3          6           0        0.345356   -0.401778   -0.296029
      4          6           0       -0.538872   -1.031467    0.786905
      5          8           0       -1.652819   -0.158291    1.034405
      6          6           0       -1.715612    0.010844   -0.417422
      7          6           0       -0.864523   -1.281230   -0.646707
      8          6           0       -0.445492    0.855791   -0.694981
      9          8           0       -0.289822    2.043952    0.025414
     10          1           0        3.734839    0.076381    0.286618
     11          1           0        2.444400    1.295667    0.273075
     12          1           0        2.460299    0.041929    1.515476
     13          1           0        2.104820   -0.509452   -1.495370
     14          1           0        2.027845   -1.716943   -0.226634
     15          1           0       -0.189146   -1.675289    1.583222
     16          1           0       -2.708621    0.262273   -0.782770
     17          1           0       -0.980106   -2.169904   -1.250028
     18          1           0       -0.324474    1.078028   -1.758745
     19          1           0       -0.615334    1.843541    0.914394
 ---------------------------------------------------------------------

 SCF Done:  E(RB3LYP) =  -423.122920661     A.U. after    1 cycles

 The electronic state is 1-A.
 Alpha  occ. eigenvalues --  -19.14655 -19.13255 -10.24408 -10.24401 -10.23461
 Alpha  occ. eigenvalues --  -10.19965 -10.19923 -10.19067 -10.17344  -1.07102
 Alpha  occ. eigenvalues --   -1.01307  -0.86578  -0.76625  -0.71928  -0.65209
 Alpha  occ. eigenvalues --   -0.62384  -0.56960  -0.55041  -0.51123  -0.49983
 Alpha  occ. eigenvalues --   -0.46781  -0.44707  -0.43570  -0.40291  -0.39795
 Alpha  occ. eigenvalues --   -0.37699  -0.36728  -0.36394  -0.35042  -0.34719
 Alpha  occ. eigenvalues --   -0.29819  -0.26935  -0.26424  -0.23362
 Alpha virt. eigenvalues --    0.07462   0.08664   0.09939   0.11094   0.13446
 Alpha virt. eigenvalues --    0.13651   0.14519   0.15113   0.16068   0.16291
 Alpha virt. eigenvalues --    0.17201   0.18080   0.18517   0.19534   0.21091

 Mulliken charges:
               1
     1  C   -0.377768
     2  C   -0.319494
     3  C    0.262175
     4  C    0.038761
     5  O   -0.311248
     6  C    0.003874
     7  C   -0.218228
     8  C    0.120516
     9  O   -0.444599
    10  H    0.109438
    11  H    0.140971
    12  H    0.114444
    13  H    0.102941
    14  H    0.097108
    15  H    0.111940
    16  H    0.088486
    17  H    0.104264
    18  H    0.090771
    19  H    0.285647
 Sum of Mulliken charges =   0.00000

 Dipole moment (field-independent basis, Debye):
    X=              0.5573    Y=             -1.8702    Z=             -0.7675  Tot=              2.0970
 Quadrupole moment (field-independent basis, Debye-Ang):
   XX=            -53.4406   YY=            -55.5345   ZZ=            -51.4425
   XY=             -1.2154   XZ=              2.8015   YZ=              0.7468

  Exact polarizability:  81.726   0.189  71.728   1.861   0.076  67.921
 Approx polarizability: 110.101   0.579 107.764  -0.403   0.190 109.287

                      1                      2                      3
                      A                      A                      A
 Frequencies --     85.8864               137.0894               203.1698
 Red. masses --      2.5241                 3.5542                 1.3897
 Frc consts  --      0.0110                 0.0394                 0.0338
 IR Inten    --      0.0396                 1.1567                 0.5130

                      4                      5                      6
                      A                      A                      A
 Frequencies --    225.1711               281.1640               358.6079
 Red. masses --      3.9522                 2.0219                 2.5802
 Frc consts  --      0.1181                 0.0942                 0.1955
 IR Inten    --      4.5513                 0.3378                 0.3839

                      7                      8                      9
                      A                      A                      A
 Frequencies --    376.9428               521.2560               546.2589
 Red. masses --      3.5345                 1.1325                 3.8638
 Frc consts  --      0.2959                 0.1813                 0.6793
 IR Inten    --      1.6306                66.1848                 3.8031

                     10                     11                     12
                      A                      A                      A
 Frequencies --    617.8808               689.7184               761.0671
 Red. masses --      4.4571                 3.1203                 2.7960
 Frc consts  --      1.0026                 0.8746                 0.9542
 IR Inten    --      4.7074                14.3404                17.6175

                     13                     14                     15
                      A                      A                      A
 Frequencies --    784.8648               793.2281               823.5208
 Red. masses --      2.1773                 1.5293                 3.2363
 Frc consts  --      0.7902                 0.5669                 1.2932
 IR Inten    --     14.2237                12.4108                 6.4034

                     16                     17                     18
                      A                      A                      A
 Frequencies --    835.3668               895.5944               924.3161
 Red. masses --      1.3373                 2.8266                 2.1816
 Frc consts  --      0.5498                 1.3358                 1.0982
 IR Inten    --      7.2730                 6.9055                 3.7863

                     19                     20                     21
                      A                      A                      A
 Frequencies --    948.6533               958.9591               983.1739
 Red. masses --      1.7774                 5.8468                 2.4800
 Frc consts  --      0.9424                 3.1679                 1.4124
 IR Inten    --     14.9688                37.3533                 7.7890

                     22                     23                     24
                      A                      A                      A
 Frequencies --    988.6826              1031.1989              1080.8168
 Red. masses --      2.6995                 1.9491                 1.8168
 Frc consts  --      1.5547                 1.2211                 1.2504
 IR Inten    --     27.3210                 8.4493                 2.9090

                     25                     26                     27
                      A                      A                      A
 Frequencies --   1102.3144              1120.9111              1146.8397
 Red. masses --      1.9798                 2.6458                 1.7578
 Frc consts  --      1.4173                 1.9586                 1.3621
 IR Inten    --     37.9146                91.0213                 4.1643

                     28                     29                     30
                      A                      A                      A
 Frequencies --   1162.9336              1198.6580              1226.1543
 Red. masses --      1.9715                 1.4705                 1.6283
 Frc consts  --      1.5709                 1.2448                 1.4423
 IR Inten    --     13.6780                 2.3457                 5.3036

                     31                     32                     33
                      A                      A                      A
 Frequencies --   1265.2526              1283.1145              1300.6514
 Red. masses --      1.4739                 1.6618                 1.6934
 Frc consts  --      1.3902                 1.6119                 1.6879
 IR Inten    --      7.4297                 7.0003                 6.4497

                     34                     35                     36
                      A                      A                      A
 Frequencies --   1329.3823              1356.9245              1411.7952
 Red. masses --      1.6804                 1.4479                 1.3031
 Frc consts  --      1.7497                 1.5707                 1.5303
 IR Inten    --      4.4330                 5.3714                 3.4445

                     37                     38                     39
                      A                      A                      A
 Frequencies --   1424.3711              1440.3657              1485.3011
 Red. masses --      2.6656                 1.3673                 1.0661
 Frc consts  --      3.1863                 1.6713                 1.3858
 IR Inten    --      6.7277                97.1290                 2.5290

                     40                     41                     42
                      A                      A                      A
 Frequencies --   1498.1596              1510.3822              3012.4938
 Red. masses --      1.0396                 1.0774                 1.0593
 Frc consts  --      1.3747                 1.4481                 5.6641
 IR Inten    --      5.1514                 3.1738                33.4191

                     43                     44                     45
                      A                      A                      A
 Frequencies --   3038.6135              3042.7885              3086.9811
 Red. masses --      1.0436                 1.0926                 1.0866
 Frc consts  --      5.6775                 5.9603                 6.1007
 IR Inten    --     22.3984                21.8023                24.0215

                     46                     47                     48
                      A                      A                      A
 Frequencies --   3106.2040              3122.0183              3151.0242
 Red. masses --      1.1016                 1.1020                 1.0929
 Frc consts  --      6.2624                 6.3284                 6.3935
 IR Inten    --     37.5097                20.0455                33.4209

                     49                     50                     51
                      A                      A                      A
 Frequencies --   3205.5251              3223.5169              3747.8384
 Red. masses --      1.0910                 1.1020                 1.0646
 Frc consts  --      6.6052                 6.7469                 8.8101
 IR Inten    --     10.7880                 6.3877                29.9963

 - Thermochemistry -
 -------------------
 Temperature   298.150 Kelvin.  Pressure   1.00000 Atm.
 Atom     1 has atomic number  6 and mass  12.00000

 Molecular mass:   126.06808 amu.
 Principal axes and moments of inertia in atomic units:
                           1         2         3
     Eigenvalues --   679.576411148.578781422.80203
           X            0.99971  -0.00695   0.02304
           Y            0.00658   0.99985   0.01583
           Z           -0.02315  -0.01567   0.99961
 This molecule is an asymmetric top.
 Rotational symmetry number  1.
 Warning -- assumption of classical behavior for rotation
           may cause significant error
 Rotational temperatures (Kelvin)      0.12745     0.07541     0.06088
 Rotational constants (GHZ):           2.65569     1.57128     1.26844
 Zero-point vibrational energy     417814.3 (Joules/Mol)
                                   99.86002 (Kcal/Mol)
 Warning -- explicit consideration of  10 degrees of freedom as
           vibrations may cause significant error
 Vibrational temperatures:    123.57   197.24   292.32   323.97   404.53
          (Kelvin)            515.96   542.34   749.97   785.94   888.99
                              992.35  1095.00  1129.24  1141.28  1184.86
                             1201.90  1288.56  1329.88  1364.90  1379.73
                             1414.57  1422.49  1483.66  1555.05  1585.98
                             1612.74  1650.04  1673.20  1724.60  1764.16
                             1820.41  1846.11  1871.34  1912.68  1952.31
                             2031.26  2049.35  2072.36  2137.01  2155.51
                             2173.10  4334.30  4371.88  4377.89  4441.47
                             4469.13  4491.88  4533.62  4612.03  4637.92
                             5392.30

 Zero-point correction=                           0.159137 (Hartree/Particle)
 Thermal correction to Energy=                    0.167206
 Thermal correction to Enthalpy=                  0.168150
 Thermal correction to Gibbs Free Energy=         0.126563
 Sum of electronic and zero-point Energies=           -422.963784
 Sum of electronic and thermal Energies=              -422.955715
 Sum of electronic and thermal Enthalpies=            -422.954770
 Sum of electronic and thermal Free Energies=         -422.996358

                     E (Thermal)             CV                S
                      KCal/Mol        Cal/Mol-Kelvin    Cal/Mol-Kelvin
 Total                  104.923             31.631             87.528
 Electronic               0.000              0.000              0.000
 Translational            0.889              2.981             40.409
 Rotational               0.889              2.981             28.498
 Vibrational            103.146             25.670             18.622
 Vibration     1          0.601              1.959              3.752
 Vibration     2          0.614              1.916              2.844
 Vibration     3          0.639              1.835              2.104
 Vibration     4          0.650              1.803              1.917
 Vibration     5          0.681              1.708              1.527
 Vibration     6          0.733              1.558              1.128
 Vibration     7          0.747              1.519              1.051
 Vibration     8          0.876              1.203              0.607
 Vibration     9          0.901              1.148              0.552
 Vibration    10          0.978              0.994              0.420

 Optimization completed.
    -- Stationary point found.
 Normal termination of Gaussian 09 at Tue Jan 28 10:20:03 2020.
