 Gaussian 09, Revision D.01,
 Gaussian 09:  ES64L-G09RevD.01 24-Apr-2013

 -----------------------------
 # b3lyp 6-31G(2df,p) opt Freq
 -----------------------------

 -----
 titel
 -----
 Symbolic Z-matrix:
 Charge =  0 Multiplicity = 1

 SCF Done:  E(RB3LYP) =  -423.048173830     A.U. after   13 cycles
 Optimization completed.
    -- Stationary point found.
 Normal termination of Gaussian 09 at Tue Jan 28 02:54:38 2020.

 ----------------------------------------------------------------------
 #N Geom=AllCheck Guess=TCheck SCRF=Check GenChk RB3LYP/6-31G(2df,p) Fr
 eq
 ----------------------------------------------------------------------

 Structure from the checkpoint file:  "/scratch/puck/g09_a99f4092-19bd-4ec4-9403-7b85a13b4e9f/Gau-11289.chk"
 -----
 titel
 -----
 Charge =  0 Multiplicity = 1

                         Standard orientation:
 ---------------------------------------------------------------------
 Center     Atomic      Atomic             Coordinates (Angstroms)
 Number     Number       Type             X           Y           Z
 ---------------------------------------------------------------------
      1          6           0       -2.720861   -0.706856    0.309781
      2          6           0       -1.593634    0.279407    0.122034
      3          8           0       -0.995585    0.165303   -1.244749
      4          6           0        0.273269    0.286239   -0.596326
      5          6           0        0.743791    1.669439   -0.040576
      6          6           0        1.160776    0.624869    0.996694
      7          6           0        1.712608   -0.252901   -0.265243
      8          8           0        1.998209   -1.599212   -0.155626
      9          6           0       -0.214477   -0.111868    0.779815
     10          1           0       -3.135027   -0.616375    1.319642
     11          1           0       -3.519543   -0.513018   -0.412395
     12          1           0       -2.369932   -1.732360    0.162305
     13          1           0       -1.931776    1.306872    0.279712
     14          1           0        1.541015    2.177902   -0.587152
     15          1           0       -0.041775    2.361084    0.257929
     16          1           0        1.711340    0.790964    1.923112
     17          1           0        2.555714    0.205936   -0.789684
     18          1           0        1.224021   -2.061851    0.185715
     19          1           0       -0.223863   -1.177856    1.026746
 ---------------------------------------------------------------------

 SCF Done:  E(RB3LYP) =  -423.048173830     A.U. after    1 cycles

 The electronic state is 1-A.
 Alpha  occ. eigenvalues --  -19.15253 -19.13966 -10.25659 -10.25283 -10.24737
 Alpha  occ. eigenvalues --  -10.21809 -10.19105 -10.18769 -10.18561  -1.04933
 Alpha  occ. eigenvalues --   -1.03390  -0.89721  -0.76460  -0.68939  -0.66454
 Alpha  occ. eigenvalues --   -0.61165  -0.60975  -0.54752  -0.51681  -0.48550
 Alpha  occ. eigenvalues --   -0.47241  -0.44373  -0.42135  -0.41022  -0.40193
 Alpha  occ. eigenvalues --   -0.39203  -0.37791  -0.35663  -0.35505  -0.32898
 Alpha  occ. eigenvalues --   -0.31538  -0.27461  -0.24728  -0.24313
 Alpha virt. eigenvalues --    0.05849   0.06853   0.07946   0.10053   0.12072
 Alpha virt. eigenvalues --    0.12800   0.13860   0.14613   0.14673   0.16075
 Alpha virt. eigenvalues --    0.17099   0.17953   0.19363   0.20796   0.22224

 Mulliken charges:
               1
     1  C   -0.404941
     2  C    0.077680
     3  O   -0.368584
     4  C    0.368869
     5  C   -0.278048
     6  C   -0.140802
     7  C    0.087602
     8  O   -0.426872
     9  C   -0.116095
    10  H    0.123361
    11  H    0.133898
    12  H    0.121864
    13  H    0.095159
    14  H    0.096233
    15  H    0.106214
    16  H    0.086266
    17  H    0.096334
    18  H    0.288033
    19  H    0.053828
 Sum of Mulliken charges =   0.00000

 Dipole moment (field-independent basis, Debye):
    X=             -0.8843    Y=              0.4235    Z=              1.8097  Tot=              2.0582
 Quadrupole moment (field-independent basis, Debye-Ang):
   XX=            -53.6129   YY=            -51.6452   ZZ=            -56.6366
   XY=              3.3110   XZ=             -1.8825   YZ=             -1.1028

  Exact polarizability:  92.581   3.327  74.733  -1.225  -1.556  62.337
 Approx polarizability: 127.429   0.919 112.282   0.609  -1.791 105.349

                      1                      2                      3
                      A                      A                      A
 Frequencies --    145.6020               204.5206               237.9876
 Red. masses --      3.4988                 2.0314                 1.4336
 Frc consts  --      0.0437                 0.0501                 0.0478
 IR Inten    --      0.8680                 8.9408                 2.8699

                      4                      5                      6
                      A                      A                      A
 Frequencies --    281.8209               337.3769               343.0820
 Red. masses --      2.2189                 1.6936                 2.3479
 Frc consts  --      0.1038                 0.1136                 0.1628
 IR Inten    --      1.5248                34.8307                16.2743

                      7                      8                      9
                      A                      A                      A
 Frequencies --    414.7531               442.1328               513.5560
 Red. masses --      3.3764                 2.7615                 3.1997
 Frc consts  --      0.3422                 0.3181                 0.4972
 IR Inten    --      0.3607                23.2423                 3.9746

                     10                     11                     12
                      A                      A                      A
 Frequencies --    552.7194               600.5319               693.0521
 Red. masses --      3.4903                 4.1514                 3.7723
 Frc consts  --      0.6282                 0.8821                 1.0675
 IR Inten    --      9.7146                 7.9474                10.3563

                     13                     14                     15
                      A                      A                      A
 Frequencies --    757.5684               773.5924               808.2889
 Red. masses --      3.6659                 3.0003                 3.5895
 Frc consts  --      1.2396                 1.0579                 1.3817
 IR Inten    --     24.4948                23.5322                15.1703

                     16                     17                     18
                      A                      A                      A
 Frequencies --    838.2239               890.2634               933.8512
 Red. masses --      3.0990                 3.7843                 2.5303
 Frc consts  --      1.2829                 1.7671                 1.3001
 IR Inten    --      9.1710                16.7750                 4.5724

                     19                     20                     21
                      A                      A                      A
 Frequencies --    949.2579               985.0964              1020.4356
 Red. masses --      1.5477                 1.8168                 1.3290
 Frc consts  --      0.8217                 1.0388                 0.8154
 IR Inten    --      3.8529                36.6532                25.2098

                     22                     23                     24
                      A                      A                      A
 Frequencies --   1044.0505              1067.5133              1089.9383
 Red. masses --      1.7169                 1.6923                 1.7712
 Frc consts  --      1.1027                 1.1362                 1.2397
 IR Inten    --     19.0871                 4.0312                 5.4494

                     25                     26                     27
                      A                      A                      A
 Frequencies --   1102.1246              1119.8284              1151.6634
 Red. masses --      1.4318                 2.1499                 1.5580
 Frc consts  --      1.0247                 1.5885                 1.2175
 IR Inten    --      4.7105                25.7632                36.7060

                     28                     29                     30
                      A                      A                      A
 Frequencies --   1174.7412              1180.5168              1189.2568
 Red. masses --      2.2060                 2.1301                 2.0727
 Frc consts  --      1.7937                 1.7490                 1.7272
 IR Inten    --     86.6010                 7.2502                63.2586

                     31                     32                     33
                      A                      A                      A
 Frequencies --   1214.1989              1233.7246              1265.1218
 Red. masses --      1.6426                 2.7290                 1.8444
 Frc consts  --      1.4268                 2.4473                 1.7392
 IR Inten    --     20.9808                41.4909                43.4818

                     34                     35                     36
                      A                      A                      A
 Frequencies --   1289.3564              1340.4261              1389.7276
 Red. masses --      1.5879                 1.2765                 1.3355
 Frc consts  --      1.5554                 1.3513                 1.5197
 IR Inten    --     13.9829                 5.2365                 5.9358

                     37                     38                     39
                      A                      A                      A
 Frequencies --   1406.9878              1445.9364              1477.7878
 Red. masses --      1.3521                 1.1926                 1.0478
 Frc consts  --      1.5771                 1.4691                 1.3482
 IR Inten    --      9.9732                70.7703                 3.4288

                     40                     41                     42
                      A                      A                      A
 Frequencies --   1495.6273              1522.3097              3036.9731
 Red. masses --      1.0475                 1.1433                 1.0379
 Frc consts  --      1.3805                 1.5610                 5.6402
 IR Inten    --      2.7600                11.8466                 8.1080

                     43                     44                     45
                      A                      A                      A
 Frequencies --   3044.9846              3069.3612              3076.4751
 Red. masses --      1.0799                 1.0781                 1.0757
 Frc consts  --      5.8994                 5.9843                 5.9985
 IR Inten    --     50.8279                 8.2847                23.7462

                     46                     47                     48
                      A                      A                      A
 Frequencies --   3081.4757              3110.8084              3112.3832
 Red. masses --      1.0779                 1.0925                 1.1011
 Frc consts  --      6.0303                 6.2290                 6.2844
 IR Inten    --     59.0060                53.3606                15.5318

                     49                     50                     51
                      A                      A                      A
 Frequencies --   3118.4495              3155.9632              3790.0552
 Red. masses --      1.1018                 1.1057                 1.0642
 Frc consts  --      6.3132                 6.4883                 9.0064
 IR Inten    --     26.8344                25.0671                10.9177

 - Thermochemistry -
 -------------------
 Temperature   298.150 Kelvin.  Pressure   1.00000 Atm.
 Atom     1 has atomic number  6 and mass  12.00000

 Molecular mass:   126.06808 amu.
 Principal axes and moments of inertia in atomic units:
                           1         2         3
     Eigenvalues --   602.547011294.874991479.09440
           X            0.99904   0.04125  -0.01456
           Y           -0.04166   0.99871  -0.02906
           Z            0.01334   0.02964   0.99947
 This molecule is an asymmetric top.
 Rotational symmetry number  1.
 Warning -- assumption of classical behavior for rotation
           may cause significant error
 Rotational temperatures (Kelvin)      0.14375     0.06689     0.05856
 Rotational constants (GHZ):           2.99519     1.39376     1.22017
 Zero-point vibrational energy     415830.8 (Joules/Mol)
                                   99.38595 (Kcal/Mol)
 Warning -- explicit consideration of  11 degrees of freedom as
           vibrations may cause significant error
 Vibrational temperatures:    209.49   294.26   342.41   405.48   485.41
          (Kelvin)            493.62   596.74   636.13   738.89   795.24
                              864.03   997.15  1089.97  1113.03  1162.95
                             1206.02  1280.89  1343.60  1365.77  1417.33
                             1468.18  1502.15  1535.91  1568.18  1585.71
                             1611.18  1656.98  1690.19  1698.50  1711.07
                             1746.96  1775.05  1820.23  1855.09  1928.57
                             1999.51  2024.34  2080.38  2126.20  2151.87
                             2190.26  4369.52  4381.05  4416.12  4426.36
                             4433.55  4475.75  4478.02  4486.75  4540.72
                             5453.04

 Zero-point correction=                           0.158382 (Hartree/Particle)
 Thermal correction to Energy=                    0.166205
 Thermal correction to Enthalpy=                  0.167149
 Thermal correction to Gibbs Free Energy=         0.126588
 Sum of electronic and zero-point Energies=           -422.889792
 Sum of electronic and thermal Energies=              -422.881969
 Sum of electronic and thermal Enthalpies=            -422.881025
 Sum of electronic and thermal Free Energies=         -422.921586

                     E (Thermal)             CV                S
                      KCal/Mol        Cal/Mol-Kelvin    Cal/Mol-Kelvin
 Total                  104.295             31.946             85.369
 Electronic               0.000              0.000              0.000
 Translational            0.889              2.981             40.409
 Rotational               0.889              2.981             28.536
 Vibrational            102.518             25.984             16.424
 Vibration     1          0.617              1.907              2.729
 Vibration     2          0.640              1.833              2.092
 Vibration     3          0.656              1.782              1.818
 Vibration     4          0.681              1.707              1.523
 Vibration     5          0.718              1.601              1.225
 Vibration     6          0.722              1.589              1.198
 Vibration     7          0.778              1.438              0.910
 Vibration     8          0.802              1.378              0.820
 Vibration     9          0.869              1.220              0.625
 Vibration    10          0.908              1.134              0.539
 Vibration    11          0.959              1.031              0.449

 Optimization completed.
    -- Stationary point found.
 Normal termination of Gaussian 09 at Tue Jan 28 03:44:56 2020.
