 Gaussian 09, Revision D.01,
 Gaussian 09:  ES64L-G09RevD.01 24-Apr-2013

 -----------------------------
 # b3lyp 6-31G(2df,p) opt Freq
 -----------------------------

 -----
 titel
 -----
 Symbolic Z-matrix:
 Charge =  0 Multiplicity = 1

 SCF Done:  E(RB3LYP) =  -423.229312231     A.U. after   14 cycles
 Optimization completed.
    -- Stationary point found.
 Normal termination of Gaussian 09 at Tue Jan 28 02:53:16 2020.

 ----------------------------------------------------------------------
 #N Geom=AllCheck Guess=TCheck SCRF=Check GenChk RB3LYP/6-31G(2df,p) Fr
 eq
 ----------------------------------------------------------------------

 Structure from the checkpoint file:  "/scratch/puck/g09_346b8e54-9b5b-44bd-a1ff-c28d3b7c1840/Gau-105039.chk"
 -----
 titel
 -----
 Charge =  0 Multiplicity = 1

                         Standard orientation:
 ---------------------------------------------------------------------
 Center     Atomic      Atomic             Coordinates (Angstroms)
 Number     Number       Type             X           Y           Z
 ---------------------------------------------------------------------
      1          6           0       -2.921378    0.014553   -0.294018
      2          6           0       -1.410312   -0.100394   -0.416785
      3          6           0       -0.738755   -1.434987    0.028458
      4          6           0        0.325287   -0.609179    0.800680
      5          6           0       -0.534011    0.664397    0.628913
      6          6           0        0.437887    1.716633    0.098450
      7          8           0        1.555051    0.989185   -0.442742
      8          6           0        1.569202   -0.311385   -0.027640
      9          8           0        2.453590   -1.061353   -0.323962
     10          1           0       -3.254921   -0.239312    0.718821
     11          1           0       -3.263635    1.032344   -0.512666
     12          1           0       -3.426856   -0.663196   -0.990382
     13          1           0       -1.099822    0.166741   -1.433547
     14          1           0       -1.375229   -2.003659    0.712040
     15          1           0       -0.367366   -2.106882   -0.748234
     16          1           0        0.616138   -0.959229    1.792439
     17          1           0       -1.093609    1.002845    1.502576
     18          1           0        0.019398    2.330633   -0.704720
     19          1           0        0.809257    2.379238    0.888956
 ---------------------------------------------------------------------

 SCF Done:  E(RB3LYP) =  -423.229312231     A.U. after    1 cycles

 The electronic state is 1-A.
 Alpha  occ. eigenvalues --  -19.17743 -19.11793 -10.29857 -10.24752 -10.20467
 Alpha  occ. eigenvalues --  -10.20353 -10.20193 -10.19487 -10.18644  -1.09406
 Alpha  occ. eigenvalues --   -1.01592  -0.86781  -0.74721  -0.74114  -0.66990
 Alpha  occ. eigenvalues --   -0.63771  -0.57045  -0.55231  -0.50522  -0.48644
 Alpha  occ. eigenvalues --   -0.47013  -0.45454  -0.44331  -0.42245  -0.41485
 Alpha  occ. eigenvalues --   -0.39989  -0.38291  -0.35492  -0.34382  -0.34282
 Alpha  occ. eigenvalues --   -0.31679  -0.30955  -0.28852  -0.25925
 Alpha virt. eigenvalues --    0.01188   0.08355   0.08669   0.09634   0.10811
 Alpha virt. eigenvalues --    0.12891   0.13240   0.14358   0.15723   0.16221
 Alpha virt. eigenvalues --    0.17008   0.17925   0.18453   0.19320   0.21306

 Mulliken charges:
               1
     1  C   -0.415666
     2  C    0.035910
     3  C   -0.246274
     4  C   -0.177175
     5  C   -0.045782
     6  C   -0.105310
     7  O   -0.224596
     8  C    0.435469
     9  O   -0.344585
    10  H    0.114864
    11  H    0.117284
    12  H    0.122681
    13  H    0.085100
    14  H    0.106180
    15  H    0.122291
    16  H    0.104288
    17  H    0.079185
    18  H    0.120752
    19  H    0.115385
 Sum of Mulliken charges =   0.00000

 Dipole moment (field-independent basis, Debye):
    X=             -3.9091    Y=              1.4974    Z=              1.4698  Tot=              4.4367
 Quadrupole moment (field-independent basis, Debye-Ang):
   XX=            -62.5990   YY=            -52.4120   ZZ=            -51.4473
   XY=              3.0931   XZ=              3.1173   YZ=              0.0495

  Exact polarizability:  83.265  -3.095  78.236   0.110   0.374  62.754
 Approx polarizability: 111.336  -8.894 116.681  -3.012   0.382  97.915

                      1                      2                      3
                      A                      A                      A
 Frequencies --     73.5862               143.7359               197.1792
 Red. masses --      3.4826                 5.5137                 3.2311
 Frc consts  --      0.0111                 0.0671                 0.0740
 IR Inten    --      2.3552                 0.4211                 3.8553

                      4                      5                      6
                      A                      A                      A
 Frequencies --    233.0377               284.6240               302.0412
 Red. masses --      1.1073                 2.5216                 1.9324
 Frc consts  --      0.0354                 0.1204                 0.1039
 IR Inten    --      0.1338                 0.4927                 0.0534

                      7                      8                      9
                      A                      A                      A
 Frequencies --    420.7752               477.8550               593.0160
 Red. masses --      2.2890                 5.8601                 4.1788
 Frc consts  --      0.2388                 0.7884                 0.8658
 IR Inten    --      0.7577                 3.7808                 3.1171

                     10                     11                     12
                      A                      A                      A
 Frequencies --    679.1476               731.6131               744.1012
 Red. masses --      6.1355                 4.3551                 4.0479
 Frc consts  --      1.6674                 1.3735                 1.3205
 IR Inten    --      6.5035                 1.7904                 0.3219

                     13                     14                     15
                      A                      A                      A
 Frequencies --    791.7425               814.7437               875.8078
 Red. masses --      3.0977                 2.3774                 2.1019
 Frc consts  --      1.1441                 0.9298                 0.9499
 IR Inten    --      0.6506                 3.0908                 1.7449

                     16                     17                     18
                      A                      A                      A
 Frequencies --    899.9678               936.2593               982.1727
 Red. masses --      1.8545                 1.3375                 1.9506
 Frc consts  --      0.8850                 0.6908                 1.1086
 IR Inten    --      0.4280                 1.1068                 8.9047

                     19                     20                     21
                      A                      A                      A
 Frequencies --    993.6597              1000.8285              1064.1140
 Red. masses --      2.3875                 1.5483                 1.9768
 Frc consts  --      1.3889                 0.9137                 1.3188
 IR Inten    --     24.9755                12.3143                26.8481

                     22                     23                     24
                      A                      A                      A
 Frequencies --   1075.1850              1119.0550              1127.3184
 Red. masses --      3.5634                 2.2686                 2.0644
 Frc consts  --      2.4270                 1.6738                 1.5458
 IR Inten    --     65.5909                 8.4212                13.6616

                     25                     26                     27
                      A                      A                      A
 Frequencies --   1165.4628              1188.7929              1200.6183
 Red. masses --      2.7239                 1.6151                 1.8254
 Frc consts  --      2.1799                 1.3448                 1.5503
 IR Inten    --    122.1486                 9.8808                 8.3351

                     28                     29                     30
                      A                      A                      A
 Frequencies --   1221.5776              1254.2457              1260.9711
 Red. masses --      1.3821                 1.3036                 1.5249
 Frc consts  --      1.2152                 1.2082                 1.4286
 IR Inten    --      1.9556                 0.7070                 2.5172

                     31                     32                     33
                      A                      A                      A
 Frequencies --   1273.1203              1299.4436              1321.6484
 Red. masses --      1.4155                 1.4101                 1.6176
 Frc consts  --      1.3518                 1.4029                 1.6648
 IR Inten    --      2.5728                11.3301                 2.6354

                     34                     35                     36
                      A                      A                      A
 Frequencies --   1379.5856              1398.1977              1413.0975
 Red. masses --      1.5830                 1.4550                 1.2571
 Frc consts  --      1.7752                 1.6760                 1.4790
 IR Inten    --      6.3186                19.3989                 2.0629

                     37                     38                     39
                      A                      A                      A
 Frequencies --   1490.1573              1496.4008              1497.3183
 Red. masses --      1.0982                 1.0456                 1.0548
 Frc consts  --      1.4368                 1.3794                 1.3933
 IR Inten    --      2.7745                 5.4258                 2.9964

                     40                     41                     42
                      A                      A                      A
 Frequencies --   1516.3191              1875.8222              3024.0710
 Red. masses --      1.0881                12.8168                 1.0354
 Frc consts  --      1.4740                26.5712                 5.5786
 IR Inten    --      2.9099               352.1401                24.0843

                     43                     44                     45
                      A                      A                      A
 Frequencies --   3033.4958              3036.6852              3061.4245
 Red. masses --      1.0626                 1.0832                 1.0590
 Frc consts  --      5.7611                 5.8850                 5.8478
 IR Inten    --     44.0636                13.1408                28.8172

                     46                     47                     48
                      A                      A                      A
 Frequencies --   3085.5681              3090.6417              3094.2077
 Red. masses --      1.1028                 1.0994                 1.0955
 Frc consts  --      6.1859                 6.1874                 6.1798
 IR Inten    --     21.5942                27.8735                10.0905

                     49                     50                     51
                      A                      A                      A
 Frequencies --   3096.7239              3103.7739              3119.0739
 Red. masses --      1.0957                 1.0889                 1.1068
 Frc consts  --      6.1906                 6.1804                 6.3440
 IR Inten    --     30.2574                20.5143                23.4176

 - Thermochemistry -
 -------------------
 Temperature   298.150 Kelvin.  Pressure   1.00000 Atm.
 Atom     1 has atomic number  6 and mass  12.00000

 Molecular mass:   126.06808 amu.
 Principal axes and moments of inertia in atomic units:
                           1         2         3
     Eigenvalues --   571.922001336.189871678.22594
           X            0.99982   0.01487   0.01168
           Y           -0.01489   0.99989   0.00179
           Z           -0.01165  -0.00196   0.99993
 This molecule is an asymmetric top.
 Rotational symmetry number  1.
 Warning -- assumption of classical behavior for rotation
           may cause significant error
 Rotational temperatures (Kelvin)      0.15144     0.06482     0.05161
 Rotational constants (GHZ):           3.15557     1.35066     1.07539
 Zero-point vibrational energy     422042.6 (Joules/Mol)
                                  100.87060 (Kcal/Mol)
 Warning -- explicit consideration of   9 degrees of freedom as
           vibrations may cause significant error
 Vibrational temperatures:    105.87   206.80   283.70   335.29   409.51
          (Kelvin)            434.57   605.40   687.53   853.22   977.14
                             1052.63  1070.59  1139.14  1172.23  1260.09
                             1294.85  1347.07  1413.13  1429.65  1439.97
                             1531.02  1546.95  1610.07  1621.96  1676.84
                             1710.41  1727.42  1757.58  1804.58  1814.25
                             1831.73  1869.61  1901.55  1984.91  2011.69
                             2033.13  2144.00  2152.98  2154.30  2181.64
                             2698.89  4350.96  4364.52  4369.11  4404.70
                             4439.44  4446.74  4451.87  4455.49  4465.63
                             4487.65

 Zero-point correction=                           0.160748 (Hartree/Particle)
 Thermal correction to Energy=                    0.168670
 Thermal correction to Enthalpy=                  0.169615
 Thermal correction to Gibbs Free Energy=         0.128039
 Sum of electronic and zero-point Energies=           -423.068565
 Sum of electronic and thermal Energies=              -423.060642
 Sum of electronic and thermal Enthalpies=            -423.059698
 Sum of electronic and thermal Free Energies=         -423.101273

                     E (Thermal)             CV                S
                      KCal/Mol        Cal/Mol-Kelvin    Cal/Mol-Kelvin
 Total                  105.842             30.338             87.502
 Electronic               0.000              0.000              0.000
 Translational            0.889              2.981             40.409
 Rotational               0.889              2.981             28.641
 Vibrational            104.065             24.377             18.453
 Vibration     1          0.599              1.966              4.055
 Vibration     2          0.616              1.909              2.754
 Vibration     3          0.637              1.844              2.159
 Vibration     4          0.654              1.790              1.855
 Vibration     5          0.683              1.702              1.506
 Vibration     6          0.694              1.670              1.406
 Vibration     7          0.783              1.425              0.889
 Vibration     8          0.834              1.299              0.716
 Vibration     9          0.951              1.047              0.462

 Normal termination of Gaussian 09 at Tue Jan 28 03:46:21 2020.
