 Gaussian 09, Revision D.01,
 Gaussian 09:  ES64L-G09RevD.01 24-Apr-2013

 -----------------------------
 # b3lyp 6-31G(2df,p) opt Freq
 -----------------------------

 -----
 titel
 -----
 Symbolic Z-matrix:
 Charge =  0 Multiplicity = 1

 SCF Done:  E(RB3LYP) =  -423.171518989     A.U. after   14 cycles
 Optimization completed.
    -- Stationary point found.
 Normal termination of Gaussian 09 at Tue Jan 28 08:23:51 2020.

 ----------------------------------------------------------------------
 #N Geom=AllCheck Guess=TCheck SCRF=Check GenChk RB3LYP/6-31G(2df,p) Fr
 eq
 ----------------------------------------------------------------------

 Structure from the checkpoint file:  "/scratch/puck/g09_10cedbb4-93de-4bec-b6da-3592b2ea9591/Gau-81462.chk"
 -----
 titel
 -----
 Charge =  0 Multiplicity = 1

                         Standard orientation:
 ---------------------------------------------------------------------
 Center     Atomic      Atomic             Coordinates (Angstroms)
 Number     Number       Type             X           Y           Z
 ---------------------------------------------------------------------
      1          6           0       -2.068384    1.585155   -0.016697
      2          6           0       -1.287072    0.583429    0.841269
      3          6           0       -0.700330   -0.548468    0.025390
      4          8           0       -1.748467   -1.267730   -0.567031
      5          6           0        0.515475   -1.331658    0.360275
      6          6           0        1.608281   -0.486562    1.027721
      7          6           0        1.605204    0.413725   -0.239174
      8          8           0        2.312989    1.311434   -0.600846
      9          6           0        0.530225   -0.386064   -0.897976
     10          1           0       -2.499533    2.373413    0.606967
     11          1           0       -1.414071    2.059140   -0.755255
     12          1           0       -2.880176    1.087293   -0.552080
     13          1           0       -0.488907    1.101576    1.379467
     14          1           0       -1.947081    0.140488    1.596977
     15          1           0       -1.390569   -2.036745   -1.023369
     16          1           0        0.504259   -2.415994    0.356164
     17          1           0        1.393709   -0.029830    1.996889
     18          1           0        2.564447   -1.015627    1.089184
     19          1           0        0.421345   -0.590681   -1.956785
 ---------------------------------------------------------------------

 SCF Done:  E(RB3LYP) =  -423.171518989     A.U. after    1 cycles

 The electronic state is 1-A.
 Alpha  occ. eigenvalues --  -19.15990 -19.12860 -10.26985 -10.26556 -10.21592
 Alpha  occ. eigenvalues --  -10.20310 -10.20012 -10.19056 -10.17317  -1.05031
 Alpha  occ. eigenvalues --   -1.03874  -0.89901  -0.77574  -0.71839  -0.65972
 Alpha  occ. eigenvalues --   -0.63468  -0.57753  -0.53538  -0.53228  -0.46893
 Alpha  occ. eigenvalues --   -0.46052  -0.44591  -0.43183  -0.41591  -0.40300
 Alpha  occ. eigenvalues --   -0.39139  -0.37177  -0.36892  -0.35778  -0.35547
 Alpha  occ. eigenvalues --   -0.33825  -0.28308  -0.26384  -0.23909
 Alpha virt. eigenvalues --   -0.01267   0.06244   0.08797   0.09878   0.10378
 Alpha virt. eigenvalues --    0.12074   0.15155   0.15488   0.15930   0.16748
 Alpha virt. eigenvalues --    0.17512   0.17901   0.19623   0.21721   0.22431

 Mulliken charges:
               1
     1  C   -0.379671
     2  C   -0.238439
     3  C    0.463207
     4  O   -0.475309
     5  C   -0.166417
     6  C   -0.375062
     7  C    0.411184
     8  O   -0.317688
     9  C   -0.268532
    10  H    0.112276
    11  H    0.126590
    12  H    0.135663
    13  H    0.111375
    14  H    0.109605
    15  H    0.285871
    16  H    0.097814
    17  H    0.125303
    18  H    0.135511
    19  H    0.106717
 Sum of Mulliken charges =   0.00000

 Dipole moment (field-independent basis, Debye):
    X=             -0.9877    Y=             -2.8219    Z=              0.7200  Tot=              3.0752
 Quadrupole moment (field-independent basis, Debye-Ang):
   XX=            -61.0606   YY=            -51.6664   ZZ=            -51.2855
   XY=             -6.1172   XZ=              2.3423   YZ=              3.7422

  Exact polarizability:  84.918   2.880  75.503   1.699  -1.312  69.389
 Approx polarizability: 121.695  14.859 116.334  -0.319  -6.106 107.954

                      1                      2                      3
                      A                      A                      A
 Frequencies --     71.6787               118.5692               192.0655
 Red. masses --      3.7965                 2.4595                 3.3205
 Frc consts  --      0.0115                 0.0204                 0.0722
 IR Inten    --      2.0925                 2.2860                 1.2503

                      4                      5                      6
                      A                      A                      A
 Frequencies --    221.1358               240.5547               273.4671
 Red. masses --      1.3138                 1.0563                 2.3209
 Frc consts  --      0.0379                 0.0360                 0.1023
 IR Inten    --      6.6956                67.4399                 5.9580

                      7                      8                      9
                      A                      A                      A
 Frequencies --    284.8966               377.4054               451.4536
 Red. masses --      4.8273                 3.1493                 2.8774
 Frc consts  --      0.2308                 0.2643                 0.3455
 IR Inten    --     16.0263                 5.2446                 3.1001

                     10                     11                     12
                      A                      A                      A
 Frequencies --    461.4146               533.4153               547.2915
 Red. masses --      3.4124                 3.1520                 3.2421
 Frc consts  --      0.4281                 0.5284                 0.5722
 IR Inten    --      0.3883                 2.8081                 1.9818

                     13                     14                     15
                      A                      A                      A
 Frequencies --    624.1336               685.7639               787.3090
 Red. masses --      2.9100                 3.1321                 1.4966
 Frc consts  --      0.6679                 0.8678                 0.5466
 IR Inten    --      6.7514                26.0708                 8.3529

                     16                     17                     18
                      A                      A                      A
 Frequencies --    818.3989               832.5444               888.9235
 Red. masses --      2.2228                 1.7143                 3.5507
 Frc consts  --      0.8772                 0.7001                 1.6531
 IR Inten    --     41.3553                 3.5180                 3.1804

                     19                     20                     21
                      A                      A                      A
 Frequencies --    905.3772               967.3472               989.7539
 Red. masses --      2.0782                 1.3911                 2.0932
 Frc consts  --      1.0037                 0.7670                 1.2081
 IR Inten    --     27.0500                 6.8455                21.2033

                     22                     23                     24
                      A                      A                      A
 Frequencies --   1001.1485              1014.9729              1058.4031
 Red. masses --      2.1642                 2.0413                 2.1844
 Frc consts  --      1.2780                 1.2390                 1.4418
 IR Inten    --     23.3996                 7.7620                23.0228

                     25                     26                     27
                      A                      A                      A
 Frequencies --   1089.7547              1110.0776              1124.8664
 Red. masses --      1.9051                 1.7686                 1.7439
 Frc consts  --      1.3330                 1.2840                 1.3001
 IR Inten    --      4.0200                 3.6604                15.3480

                     28                     29                     30
                      A                      A                      A
 Frequencies --   1153.6297              1201.4332              1226.2116
 Red. masses --      1.5954                 1.7420                 1.8381
 Frc consts  --      1.2510                 1.4814                 1.6283
 IR Inten    --     26.2228                40.8828                61.7468

                     31                     32                     33
                      A                      A                      A
 Frequencies --   1256.8023              1298.2881              1344.7671
 Red. masses --      1.9399                 1.2882                 1.4760
 Frc consts  --      1.8054                 1.2794                 1.5727
 IR Inten    --     18.7115                 7.1284                 1.1728

                     34                     35                     36
                      A                      A                      A
 Frequencies --   1357.9450              1410.7137              1452.1003
 Red. masses --      1.7973                 1.2487                 1.6366
 Frc consts  --      1.9527                 1.4642                 2.0332
 IR Inten    --     31.8218                 2.8909                32.1757

                     37                     38                     39
                      A                      A                      A
 Frequencies --   1464.7880              1477.5043              1497.9053
 Red. masses --      1.3366                 1.1602                 1.0420
 Frc consts  --      1.6896                 1.4923                 1.3774
 IR Inten    --     38.3895                 5.9456                 3.1339

                     40                     41                     42
                      A                      A                      A
 Frequencies --   1511.7879              1875.1893              3039.4095
 Red. masses --      1.0908                12.3809                 1.0648
 Frc consts  --      1.4689                25.6502                 5.7956
 IR Inten    --      5.8389               340.8025                15.6984

                     43                     44                     45
                      A                      A                      A
 Frequencies --   3045.4140              3060.7494              3092.2576
 Red. masses --      1.0359                 1.0584                 1.0962
 Frc consts  --      5.6607                 5.8418                 6.1760
 IR Inten    --     23.4728                13.7149                 8.6779

                     46                     47                     48
                      A                      A                      A
 Frequencies --   3112.6671              3113.6142              3131.5246
 Red. masses --      1.1022                 1.1056                 1.1015
 Frc consts  --      6.2920                 6.3150                 6.3645
 IR Inten    --     39.1445                 3.4607                21.8998

                     49                     50                     51
                      A                      A                      A
 Frequencies --   3173.5082              3188.1118              3811.8337
 Red. masses --      1.0907                 1.0952                 1.0659
 Frc consts  --      6.4721                 6.5585                 9.1252
 IR Inten    --      9.8418                 5.0116                21.3549

 - Thermochemistry -
 -------------------
 Temperature   298.150 Kelvin.  Pressure   1.00000 Atm.
 Atom     1 has atomic number  6 and mass  12.00000

 Molecular mass:   126.06808 amu.
 Principal axes and moments of inertia in atomic units:
                           1         2         3
     Eigenvalues --   719.980081330.572881623.06274
           X            0.99652  -0.08243   0.01275
           Y            0.08210   0.99632   0.02482
           Z           -0.01475  -0.02369   0.99961
 This molecule is an asymmetric top.
 Rotational symmetry number  1.
 Warning -- assumption of classical behavior for rotation
           may cause significant error
 Rotational temperatures (Kelvin)      0.12030     0.06510     0.05336
 Rotational constants (GHZ):           2.50665     1.35636     1.11194
 Zero-point vibrational energy     412533.9 (Joules/Mol)
                                   98.59796 (Kcal/Mol)
 Warning -- explicit consideration of  12 degrees of freedom as
           vibrations may cause significant error
 Vibrational temperatures:    103.13   170.59   276.34   318.16   346.10
          (Kelvin)            393.46   409.90   543.00   649.54   663.87
                              767.46   787.43   897.99   986.66  1132.76
                             1177.49  1197.84  1278.96  1302.63  1391.80
                             1424.03  1440.43  1460.32  1522.80  1567.91
                             1597.15  1618.43  1659.81  1728.59  1764.24
                             1808.26  1867.94  1934.82  1953.78  2029.70
                             2089.25  2107.50  2125.80  2155.15  2175.12
                             2697.98  4373.03  4381.67  4403.73  4449.06
                             4478.43  4479.79  4505.56  4565.96  4586.98
                             5484.37

 Zero-point correction=                           0.157126 (Hartree/Particle)
 Thermal correction to Energy=                    0.166167
 Thermal correction to Enthalpy=                  0.167111
 Thermal correction to Gibbs Free Energy=         0.123492
 Sum of electronic and zero-point Energies=           -423.014393
 Sum of electronic and thermal Energies=              -423.005352
 Sum of electronic and thermal Enthalpies=            -423.004408
 Sum of electronic and thermal Free Energies=         -423.048027

                     E (Thermal)             CV                S
                      KCal/Mol        Cal/Mol-Kelvin    Cal/Mol-Kelvin
 Total                  104.271             34.395             91.804
 Electronic               0.000              0.000              0.000
 Translational            0.889              2.981             40.409
 Rotational               0.889              2.981             28.832
 Vibrational            102.494             28.434             22.563
 Vibration     1          0.598              1.968              4.107
 Vibration     2          0.609              1.934              3.124
 Vibration     3          0.634              1.851              2.208
 Vibration     4          0.648              1.809              1.950
 Vibration     5          0.658              1.778              1.799
 Vibration     6          0.676              1.722              1.574
 Vibration     7          0.683              1.702              1.504
 Vibration     8          0.748              1.518              1.050
 Vibration     9          0.810              1.358              0.791
 Vibration    10          0.819              1.336              0.762
 Vibration    11          0.888              1.176              0.580
 Vibration    12          0.903              1.146              0.550

 Normal termination of Gaussian 09 at Tue Jan 28 09:11:33 2020.
