 Gaussian 09, Revision D.01,
 Gaussian 09:  ES64L-G09RevD.01 24-Apr-2013

 -----------------------------
 # b3lyp 6-31G(2df,p) opt Freq
 -----------------------------

 -----
 titel
 -----
 Symbolic Z-matrix:
 Charge =  0 Multiplicity = 1

 SCF Done:  E(RB3LYP) =  -423.191922293     A.U. after   13 cycles
 Optimization completed.
    -- Stationary point found.
 Normal termination of Gaussian 09 at Mon Jan 27 11:28:33 2020.

 ----------------------------------------------------------------------
 #N Geom=AllCheck Guess=TCheck SCRF=Check GenChk RB3LYP/6-31G(2df,p) Fr
 eq
 ----------------------------------------------------------------------

 Structure from the checkpoint file:  "/scratch/puck/g09_bb81485b-02e0-4a88-b541-c4ae16cf931e/Gau-60845.chk"
 -----
 titel
 -----
 Charge =  0 Multiplicity = 1

                         Standard orientation:
 ---------------------------------------------------------------------
 Center     Atomic      Atomic             Coordinates (Angstroms)
 Number     Number       Type             X           Y           Z
 ---------------------------------------------------------------------
      1          6           0        1.266168    1.458696   -0.605238
      2          6           0        1.148866    0.702416    0.700164
      3          6           0        1.616418   -0.737907    0.760429
      4          8           0        1.007235   -1.395796   -0.354887
      5          6           0       -0.138139   -0.693563   -0.770668
      6          8           0       -1.358906   -1.156662   -0.207011
      7          6           0       -1.997949   -0.118104    0.543334
      8          6           0       -1.396571    1.209437    0.042957
      9          6           0       -0.002633    0.737932   -0.278642
     10          1           0        1.269270    2.541960   -0.544407
     11          1           0        1.894719    1.050053   -1.391861
     12          1           0        1.102091    1.269736    1.622836
     13          1           0        2.699220   -0.871740    0.660990
     14          1           0        1.298906   -1.197729    1.707455
     15          1           0       -0.196013   -0.841633   -1.855225
     16          1           0       -3.076727   -0.198028    0.381171
     17          1           0       -1.801153   -0.249690    1.617484
     18          1           0       -1.919443    1.562925   -0.853374
     19          1           0       -1.434456    2.000369    0.796097
 ---------------------------------------------------------------------

 SCF Done:  E(RB3LYP) =  -423.191922293     A.U. after    1 cycles

 The electronic state is 1-A.
 Alpha  occ. eigenvalues --  -19.13850 -19.13285 -10.26831 -10.22953 -10.22924
 Alpha  occ. eigenvalues --  -10.19965 -10.19716 -10.19547 -10.19325  -1.06185
 Alpha  occ. eigenvalues --   -1.00615  -0.87184  -0.75741  -0.73550  -0.66592
 Alpha  occ. eigenvalues --   -0.60721  -0.57833  -0.56757  -0.50143  -0.48970
 Alpha  occ. eigenvalues --   -0.48122  -0.46383  -0.45175  -0.41753  -0.40408
 Alpha  occ. eigenvalues --   -0.39345  -0.38173  -0.36835  -0.32295  -0.31241
 Alpha  occ. eigenvalues --   -0.29803  -0.28004  -0.26651  -0.25279
 Alpha virt. eigenvalues --    0.08311   0.09977   0.10292   0.11657   0.12843
 Alpha virt. eigenvalues --    0.14080   0.14609   0.15765   0.16448   0.17096
 Alpha virt. eigenvalues --    0.17766   0.18840   0.19284   0.20400   0.21140

 Mulliken charges:
               1
     1  C   -0.386391
     2  C   -0.094049
     3  C   -0.103841
     4  O   -0.261683
     5  C    0.202074
     6  O   -0.279920
     7  C   -0.071805
     8  C   -0.342964
     9  C    0.292786
    10  H    0.116606
    11  H    0.123024
    12  H    0.092222
    13  H    0.108557
    14  H    0.102996
    15  H    0.082919
    16  H    0.107842
    17  H    0.095578
    18  H    0.109829
    19  H    0.106220
 Sum of Mulliken charges =   0.00000

 Dipole moment (field-independent basis, Debye):
    X=              0.0516    Y=              2.7799    Z=              0.9580  Tot=              2.9408
 Quadrupole moment (field-independent basis, Debye-Ang):
   XX=            -51.7395   YY=            -56.7277   ZZ=            -50.6833
   XY=             -1.2956   XZ=              0.3028   YZ=             -0.7111

  Exact polarizability:  83.063  -0.734  69.844   0.151  -1.752  69.136
 Approx polarizability: 112.925  -0.333 101.806   1.629  -0.166 106.559

                      1                      2                      3
                      A                      A                      A
 Frequencies --    122.1071               157.1740               220.2573
 Red. masses --      5.1832                 2.3029                 2.1745
 Frc consts  --      0.0455                 0.0335                 0.0622
 IR Inten    --      1.6893                 1.1414                 2.5292

                      4                      5                      6
                      A                      A                      A
 Frequencies --    333.8512               375.4344               449.5320
 Red. masses --      2.1849                 2.2478                 4.5167
 Frc consts  --      0.1435                 0.1867                 0.5378
 IR Inten    --      0.6728                 0.3909                 2.1397

                      7                      8                      9
                      A                      A                      A
 Frequencies --    528.4077               594.1039               665.1836
 Red. masses --      5.0018                 4.0244                 2.3682
 Frc consts  --      0.8228                 0.8369                 0.6174
 IR Inten    --      5.7546                 1.1074                 2.0174

                     10                     11                     12
                      A                      A                      A
 Frequencies --    723.5620               804.3841               834.5525
 Red. masses --      4.6068                 2.9786                 2.0795
 Frc consts  --      1.4210                 1.1355                 0.8533
 IR Inten    --      7.5280                 1.2233                 4.6338

                     13                     14                     15
                      A                      A                      A
 Frequencies --    880.2033               909.7038               924.4330
 Red. masses --      2.0234                 1.7162                 3.1581
 Frc consts  --      0.9236                 0.8368                 1.5901
 IR Inten    --      7.0431                 6.0514                35.4506

                     16                     17                     18
                      A                      A                      A
 Frequencies --    928.4284               955.0622               973.6009
 Red. masses --      1.8916                 2.3612                 2.9369
 Frc consts  --      0.9607                 1.2689                 1.6402
 IR Inten    --      5.7033                15.4738                16.0322

                     19                     20                     21
                      A                      A                      A
 Frequencies --    982.2461              1038.4534              1043.8747
 Red. masses --      2.1598                 3.7001                 2.0848
 Frc consts  --      1.2277                 2.3509                 1.3385
 IR Inten    --     20.6268               171.4107                30.0102

                     22                     23                     24
                      A                      A                      A
 Frequencies --   1066.4774              1089.5351              1102.7957
 Red. masses --      1.4951                 1.8814                 2.2998
 Frc consts  --      1.0019                 1.3159                 1.6479
 IR Inten    --     44.7289                25.0688                16.8700

                     25                     26                     27
                      A                      A                      A
 Frequencies --   1121.4850              1129.4565              1183.5468
 Red. masses --      2.3237                 2.0693                 1.5582
 Frc consts  --      1.7219                 1.5553                 1.2860
 IR Inten    --      7.1206                20.6169                10.2567

                     28                     29                     30
                      A                      A                      A
 Frequencies --   1226.8431              1232.3533              1260.7182
 Red. masses --      1.1561                 1.2050                 1.6713
 Frc consts  --      1.0253                 1.0782                 1.5651
 IR Inten    --     10.3429                 5.5698                 0.4383

                     31                     32                     33
                      A                      A                      A
 Frequencies --   1297.1019              1309.1759              1344.8019
 Red. masses --      1.5310                 1.5293                 1.9252
 Frc consts  --      1.5176                 1.5443                 2.0514
 IR Inten    --      0.6405                 8.1972                 8.5820

                     34                     35                     36
                      A                      A                      A
 Frequencies --   1372.9416              1390.7176              1398.8776
 Red. masses --      1.3614                 1.3108                 1.5208
 Frc consts  --      1.5119                 1.4937                 1.7535
 IR Inten    --      2.6219                 4.9895                15.1576

                     37                     38                     39
                      A                      A                      A
 Frequencies --   1427.6178              1490.0226              1491.5575
 Red. masses --      1.4919                 1.1111                 1.6118
 Frc consts  --      1.7915                 1.4533                 2.1128
 IR Inten    --      2.9222                 3.7332                 0.7287

                     40                     41                     42
                      A                      A                      A
 Frequencies --   1522.8482              1526.7504              2993.8731
 Red. masses --      1.0964                 1.0915                 1.0700
 Frc consts  --      1.4981                 1.4990                 5.6509
 IR Inten    --      0.2583                 0.4939                42.6114

                     43                     44                     45
                      A                      A                      A
 Frequencies --   3000.9133              3038.6093              3043.9651
 Red. masses --      1.0665                 1.0663                 1.0845
 Frc consts  --      5.6587                 5.8007                 5.9205
 IR Inten    --     82.3877                21.9586                52.4698

                     46                     47                     48
                      A                      A                      A
 Frequencies --   3062.0771              3081.2419              3103.1557
 Red. masses --      1.0975                 1.0936                 1.1008
 Frc consts  --      6.0629                 6.1175                 6.2453
 IR Inten    --     46.0116                48.7612                22.1423

                     49                     50                     51
                      A                      A                      A
 Frequencies --   3119.5285              3175.5259              3207.8862
 Red. masses --      1.0547                 1.0914                 1.1150
 Frc consts  --      6.0475                 6.4845                 6.7603
 IR Inten    --     14.2381                 7.9822                 7.9132

 - Thermochemistry -
 -------------------
 Temperature   298.150 Kelvin.  Pressure   1.00000 Atm.
 Atom     1 has atomic number  6 and mass  12.00000

 Molecular mass:   126.06808 amu.
 Principal axes and moments of inertia in atomic units:
                           1         2         3
     Eigenvalues --   666.04128 947.382321275.10924
           X            0.99969  -0.02470  -0.00422
           Y            0.02460   0.99947  -0.02127
           Z            0.00475   0.02116   0.99976
 This molecule is an asymmetric top.
 Rotational symmetry number  1.
 Warning -- assumption of classical behavior for rotation
           may cause significant error
 Rotational temperatures (Kelvin)      0.13004     0.09142     0.06793
 Rotational constants (GHZ):           2.70965     1.90498     1.41536
 Zero-point vibrational energy     426211.2 (Joules/Mol)
                                  101.86693 (Kcal/Mol)
 Warning -- explicit consideration of   8 degrees of freedom as
           vibrations may cause significant error
 Vibrational temperatures:    175.68   226.14   316.90   480.34   540.17
          (Kelvin)            646.78   760.26   854.78   957.05  1041.04
                             1157.33  1200.73  1266.41  1308.86  1330.05
                             1335.80  1374.12  1400.79  1413.23  1494.10
                             1501.90  1534.42  1567.60  1586.68  1613.56
                             1625.03  1702.86  1765.15  1773.08  1813.89
                             1866.24  1883.61  1934.87  1975.35  2000.93
                             2012.67  2054.02  2143.81  2146.02  2191.04
                             2196.65  4307.51  4317.64  4371.88  4379.58
                             4405.64  4433.21  4464.74  4488.30  4568.87
                             4615.43

 Zero-point correction=                           0.162335 (Hartree/Particle)
 Thermal correction to Energy=                    0.169404
 Thermal correction to Enthalpy=                  0.170348
 Thermal correction to Gibbs Free Energy=         0.130902
 Sum of electronic and zero-point Energies=           -423.029587
 Sum of electronic and thermal Energies=              -423.022518
 Sum of electronic and thermal Enthalpies=            -423.021574
 Sum of electronic and thermal Free Energies=         -423.061020

                     E (Thermal)             CV                S
                      KCal/Mol        Cal/Mol-Kelvin    Cal/Mol-Kelvin
 Total                  106.303             28.382             83.021
 Electronic               0.000              0.000              0.000
 Translational            0.889              2.981             40.409
 Rotational               0.889              2.981             28.178
 Vibrational            104.525             22.420             14.435
 Vibration     1          0.610              1.931              3.067
 Vibration     2          0.621              1.895              2.584
 Vibration     3          0.647              1.810              1.957
 Vibration     4          0.715              1.608              1.241
 Vibration     5          0.746              1.522              1.058
 Vibration     6          0.808              1.362              0.797
 Vibration     7          0.883              1.187              0.591
 Vibration     8          0.952              1.044              0.460

 Optimization completed.
    -- Stationary point found.
 Normal termination of Gaussian 09 at Mon Jan 27 13:48:14 2020.
