 Gaussian 09, Revision D.01,
 Gaussian 09:  ES64L-G09RevD.01 24-Apr-2013

 -----------------------------
 # b3lyp 6-31G(2df,p) opt Freq
 -----------------------------

 -----
 titel
 -----
 Symbolic Z-matrix:
 Charge =  0 Multiplicity = 1

 SCF Done:  E(RB3LYP) =  -423.115813733     A.U. after   14 cycles
 Optimization completed.
    -- Stationary point found.
 Normal termination of Gaussian 09 at Tue Jan 28 12:40:01 2020.

 ----------------------------------------------------------------------
 #N Geom=AllCheck Guess=TCheck SCRF=Check GenChk RB3LYP/6-31G(2df,p) Fr
 eq
 ----------------------------------------------------------------------

 Structure from the checkpoint file:  "/scratch/puck/g09_800d1642-4996-4fde-8e41-a3c4cf88ce67/Gau-106758.chk"
 -----
 titel
 -----
 Charge =  0 Multiplicity = 1

                         Standard orientation:
 ---------------------------------------------------------------------
 Center     Atomic      Atomic             Coordinates (Angstroms)
 Number     Number       Type             X           Y           Z
 ---------------------------------------------------------------------
      1          6           0       -2.954342    0.212960   -0.459899
      2          8           0       -1.795007   -0.600623   -0.404289
      3          6           0       -0.620775    0.134419   -0.472550
      4          6           0       -0.036231    0.751979    0.768545
      5          8           0        0.602263    1.983777    0.708039
      6          6           0        0.613360   -0.503141    0.162733
      7          6           0        0.470471   -1.829997    0.892699
      8          6           0        1.869671   -0.268784   -0.492594
      9          6           0        2.938657   -0.012559   -0.986115
     10          1           0       -3.013498    0.762129   -1.410759
     11          1           0       -3.815708   -0.453574   -0.379367
     12          1           0       -2.977763    0.940209    0.363265
     13          1           0       -0.459785    0.684491   -1.401270
     14          1           0       -0.575538    0.582390    1.698770
     15          1           0        1.524541    1.831586    0.461287
     16          1           0        0.610555   -2.665913    0.201093
     17          1           0        1.217527   -1.913674    1.687441
     18          1           0       -0.526194   -1.918155    1.327292
     19          1           0        3.872953    0.176012   -1.454667
 ---------------------------------------------------------------------

 SCF Done:  E(RB3LYP) =  -423.115813733     A.U. after    1 cycles

 The electronic state is 1-A.
 Alpha  occ. eigenvalues --  -19.15365 -19.14190 -10.24013 -10.23855 -10.22957
 Alpha  occ. eigenvalues --  -10.22215 -10.19173 -10.18383 -10.18266  -1.05051
 Alpha  occ. eigenvalues --   -1.02831  -0.86327  -0.75423  -0.71710  -0.69350
 Alpha  occ. eigenvalues --   -0.62436  -0.59037  -0.54831  -0.51585  -0.50442
 Alpha  occ. eigenvalues --   -0.47077  -0.45579  -0.43261  -0.42219  -0.40811
 Alpha  occ. eigenvalues --   -0.40058  -0.38660  -0.35780  -0.33432  -0.31553
 Alpha  occ. eigenvalues --   -0.29345  -0.28167  -0.25009  -0.23347
 Alpha virt. eigenvalues --    0.03785   0.04126   0.09496   0.10708   0.11096
 Alpha virt. eigenvalues --    0.12194   0.12779   0.13520   0.15401   0.16083
 Alpha virt. eigenvalues --    0.16827   0.17158   0.18967   0.19508   0.21595

 Mulliken charges:
               1
     1  C   -0.235855
     2  O   -0.239706
     3  C    0.036890
     4  C    0.040182
     5  O   -0.427015
     6  C    0.022124
     7  C   -0.460618
     8  C    0.239610
     9  C   -0.427263
    10  H    0.113746
    11  H    0.130304
    12  H    0.117776
    13  H    0.101392
    14  H    0.106443
    15  H    0.290931
    16  H    0.131908
    17  H    0.124970
    18  H    0.135008
    19  H    0.199173
 Sum of Mulliken charges =   0.00000

 Dipole moment (field-independent basis, Debye):
    X=             -0.0398    Y=             -0.2766    Z=             -0.1803  Tot=              0.3326
 Quadrupole moment (field-independent basis, Debye-Ang):
   XX=            -44.4049   YY=            -57.7352   ZZ=            -52.5775
   XY=             -0.0694   XZ=             -1.7455   YZ=             -2.8931

  Exact polarizability: 104.611   1.210  69.372  -9.210  -2.530  65.569
 Approx polarizability: 146.488   5.710 101.235 -19.239  -1.664  98.773

                      1                      2                      3
                      A                      A                      A
 Frequencies --     77.0536               120.4454               128.3948
 Red. masses --      3.1654                 2.5942                 3.1931
 Frc consts  --      0.0111                 0.0222                 0.0310
 IR Inten    --      5.4036                 9.2715                 0.4766

                      4                      5                      6
                      A                      A                      A
 Frequencies --    161.4595               174.9798               186.1860
 Red. masses --      2.1795                 1.2713                 1.2405
 Frc consts  --      0.0335                 0.0229                 0.0253
 IR Inten    --     14.3324                11.2557                 3.3425

                      7                      8                      9
                      A                      A                      A
 Frequencies --    207.2408               242.4662               299.7607
 Red. masses --      1.5819                 2.4297                 3.4591
 Frc consts  --      0.0400                 0.0842                 0.1831
 IR Inten    --     26.7723                 9.4973                 4.6919

                     10                     11                     12
                      A                      A                      A
 Frequencies --    313.1600               387.5437               417.9316
 Red. masses --      2.3953                 3.7795                 6.0682
 Frc consts  --      0.1384                 0.3344                 0.6245
 IR Inten    --      0.7854                 0.9463                 2.4055

                     13                     14                     15
                      A                      A                      A
 Frequencies --    508.0608               549.1355               597.5894
 Red. masses --      4.6804                 4.8054                 1.2855
 Frc consts  --      0.7118                 0.8538                 0.2705
 IR Inten    --      3.8492                 5.6978                47.7195

                     16                     17                     18
                      A                      A                      A
 Frequencies --    640.0225               657.5803               690.0161
 Red. masses --      3.4772                 1.2455                 3.8490
 Frc consts  --      0.8392                 0.3173                 1.0797
 IR Inten    --      2.8794                36.4305                 8.1147

                     19                     20                     21
                      A                      A                      A
 Frequencies --    841.2619               944.5887               981.9529
 Red. masses --      4.0165                 2.3545                 2.0550
 Frc consts  --      1.6748                 1.2378                 1.1675
 IR Inten    --      9.5499                28.9501                16.0266

                     22                     23                     24
                      A                      A                      A
 Frequencies --   1027.2788              1044.7007              1076.2606
 Red. masses --      1.8387                 2.6129                 1.4976
 Frc consts  --      1.1432                 1.6802                 1.0221
 IR Inten    --     11.3855                32.9474                 0.9404

                     25                     26                     27
                      A                      A                      A
 Frequencies --   1112.3126              1155.6798              1167.5514
 Red. masses --      1.6823                 3.0576                 3.2281
 Frc consts  --      1.2263                 2.4060                 2.5927
 IR Inten    --      6.4925                89.4125               144.0488

                     28                     29                     30
                      A                      A                      A
 Frequencies --   1181.8322              1225.2800              1251.2771
 Red. masses --      1.2850                 2.0488                 2.3212
 Frc consts  --      1.0575                 1.8123                 2.1412
 IR Inten    --      4.1596                49.7161                12.5567

                     31                     32                     33
                      A                      A                      A
 Frequencies --   1274.7875              1335.9148              1377.2024
 Red. masses --      1.8473                 1.5469                 1.2140
 Frc consts  --      1.7687                 1.6265                 1.3566
 IR Inten    --      3.1729                12.3742                60.9178

                     34                     35                     36
                      A                      A                      A
 Frequencies --   1408.2427              1436.8774              1484.0545
 Red. masses --      1.3274                 1.6841                 1.1458
 Frc consts  --      1.5510                 2.0486                 1.4868
 IR Inten    --      2.5235                34.6592                 5.3273

                     37                     38                     39
                      A                      A                      A
 Frequencies --   1485.9763              1487.9096              1501.1915
 Red. masses --      1.0601                 1.1145                 1.0748
 Frc consts  --      1.3791                 1.4537                 1.4270
 IR Inten    --      1.7200                 4.9737                12.0521

                     40                     41                     42
                      A                      A                      A
 Frequencies --   1508.3108              2220.7545              2991.9549
 Red. masses --      1.0773                 6.0567                 1.0353
 Frc consts  --      1.4440                17.5989                 5.4604
 IR Inten    --      4.3358                15.0720                59.2218

                     43                     44                     45
                      A                      A                      A
 Frequencies --   3046.0959              3046.9640              3095.5360
 Red. masses --      1.1030                 1.0362                 1.0879
 Frc consts  --      6.0302                 5.6678                 6.1418
 IR Inten    --     44.3707                23.4408                13.1724

                     46                     47                     48
                      A                      A                      A
 Frequencies --   3111.5394              3124.0868              3127.1848
 Red. masses --      1.1023                 1.0985                 1.0886
 Frc consts  --      6.2880                 6.3170                 6.2720
 IR Inten    --     16.7930                29.6721                14.6641

                     49                     50                     51
                      A                      A                      A
 Frequencies --   3144.5525              3499.7495              3740.3495
 Red. masses --      1.0996                 1.1588                 1.0662
 Frc consts  --      6.4065                 8.3623                 8.7883
 IR Inten    --     13.2112                87.2073                61.4599

 - Thermochemistry -
 -------------------
 Temperature   298.150 Kelvin.  Pressure   1.00000 Atm.
 Atom     1 has atomic number  6 and mass  12.00000

 Molecular mass:   126.06808 amu.
 Principal axes and moments of inertia in atomic units:
                           1         2         3
     Eigenvalues --   722.573601547.714381833.85392
           X            0.99989  -0.01435   0.00340
           Y            0.01457   0.99686  -0.07788
           Z           -0.00227   0.07792   0.99696
 This molecule is an asymmetric top.
 Rotational symmetry number  1.
 Warning -- assumption of classical behavior for rotation
           may cause significant error
 Rotational temperatures (Kelvin)      0.11987     0.05596     0.04723
 Rotational constants (GHZ):           2.49766     1.16607     0.98412
 Zero-point vibrational energy     405643.1 (Joules/Mol)
                                   96.95104 (Kcal/Mol)
 Warning -- explicit consideration of  15 degrees of freedom as
           vibrations may cause significant error
 Vibrational temperatures:    110.86   173.29   184.73   232.30   251.76
          (Kelvin)            267.88   298.17   348.85   431.29   450.57
                              557.59   601.31   730.99   790.08   859.80
                              920.85   946.11   992.78  1210.39  1359.05
                             1412.81  1478.02  1503.09  1548.50  1600.37
                             1662.76  1679.84  1700.39  1762.90  1800.31
                             1834.13  1922.08  1981.48  2026.14  2067.34
                             2135.22  2137.99  2140.77  2159.88  2170.12
                             3195.17  4304.75  4382.65  4383.90  4453.78
                             4476.81  4494.86  4499.32  4524.30  5035.35
                             5381.52

 Zero-point correction=                           0.154501 (Hartree/Particle)
 Thermal correction to Energy=                    0.165163
 Thermal correction to Enthalpy=                  0.166107
 Thermal correction to Gibbs Free Energy=         0.119063
 Sum of electronic and zero-point Energies=           -422.961312
 Sum of electronic and thermal Energies=              -422.950651
 Sum of electronic and thermal Enthalpies=            -422.949706
 Sum of electronic and thermal Free Energies=         -422.996751

                     E (Thermal)             CV                S
                      KCal/Mol        Cal/Mol-Kelvin    Cal/Mol-Kelvin
 Total                  103.641             38.089             99.014
 Electronic               0.000              0.000              0.000
 Translational            0.889              2.981             40.409
 Rotational               0.889              2.981             29.107
 Vibrational            101.864             32.127             29.498
 Vibration     1          0.599              1.964              3.965
 Vibration     2          0.609              1.932              3.093
 Vibration     3          0.611              1.925              2.970
 Vibration     4          0.622              1.890              2.533
 Vibration     5          0.627              1.873              2.381
 Vibration     6          0.632              1.859              2.265
 Vibration     7          0.641              1.830              2.068
 Vibration     8          0.659              1.775              1.785
 Vibration     9          0.692              1.674              1.418
 Vibration    10          0.701              1.649              1.346
 Vibration    11          0.756              1.497              1.010
 Vibration    12          0.781              1.431              0.899
 Vibration    13          0.863              1.232              0.638
 Vibration    14          0.904              1.142              0.546
 Vibration    15          0.956              1.037              0.454

 Normal termination of Gaussian 09 at Tue Jan 28 13:19:57 2020.
