 Gaussian 09, Revision D.01,
 Gaussian 09:  ES64L-G09RevD.01 24-Apr-2013

 -----------------------------
 # b3lyp 6-31G(2df,p) opt Freq
 -----------------------------

 -----
 titel
 -----
 Symbolic Z-matrix:
 Charge =  0 Multiplicity = 1

 SCF Done:  E(RB3LYP) =  -423.128482280     A.U. after   13 cycles
 Optimization completed.
    -- Stationary point found.
 Normal termination of Gaussian 09 at Tue Jan 28 09:22:45 2020.

 ----------------------------------------------------------------------
 #N Geom=AllCheck Guess=TCheck SCRF=Check GenChk RB3LYP/6-31G(2df,p) Fr
 eq
 ----------------------------------------------------------------------

 Structure from the checkpoint file:  "/scratch/puck/g09_e9a694c9-650f-4f51-9d81-b78e0ddf07b2/Gau-82541.chk"
 -----
 titel
 -----
 Charge =  0 Multiplicity = 1

                         Standard orientation:
 ---------------------------------------------------------------------
 Center     Atomic      Atomic             Coordinates (Angstroms)
 Number     Number       Type             X           Y           Z
 ---------------------------------------------------------------------
      1          8           0        2.547700    0.049615    0.561676
      2          6           0        1.801574   -0.756298   -0.344536
      3          6           0        0.339542   -0.441749   -0.261550
      4          6           0       -0.621444   -1.091239    0.747865
      5          6           0       -1.800203   -0.144429    0.967866
      6          6           0       -1.667011    0.201192   -0.538824
      7          6           0       -0.899776   -1.172284   -0.735802
      8          6           0       -0.277679    0.889744   -0.662222
      9          8           0        0.045133    2.060513    0.061873
     10          1           0        2.278969    0.962931    0.405465
     11          1           0        2.156289   -0.614680   -1.378930
     12          1           0        2.003234   -1.798386   -0.072968
     13          1           0       -0.265508   -1.881411    1.396760
     14          1           0       -2.721479   -0.697789    1.167727
     15          1           0       -1.716166    0.672669    1.697741
     16          1           0       -2.519526    0.558781   -1.111828
     17          1           0       -1.026621   -2.002006   -1.414775
     18          1           0       -0.055343    1.119454   -1.708831
     19          1           0       -0.126530    1.889785    0.994468
 ---------------------------------------------------------------------

 SCF Done:  E(RB3LYP) =  -423.128482280     A.U. after    1 cycles

 The electronic state is 1-A.
 Alpha  occ. eigenvalues --  -19.14503 -19.12650 -10.23622 -10.22781 -10.20015
 Alpha  occ. eigenvalues --  -10.19996 -10.19873 -10.19477 -10.19341  -1.02834
 Alpha  occ. eigenvalues --   -1.00723  -0.93184  -0.74269  -0.71308  -0.67634
 Alpha  occ. eigenvalues --   -0.62013  -0.56761  -0.54507  -0.51774  -0.48692
 Alpha  occ. eigenvalues --   -0.47751  -0.45565  -0.45008  -0.41477  -0.40106
 Alpha  occ. eigenvalues --   -0.37992  -0.36490  -0.34638  -0.33951  -0.31801
 Alpha  occ. eigenvalues --   -0.27911  -0.26934  -0.26162  -0.25370
 Alpha virt. eigenvalues --    0.06392   0.08736   0.10524   0.10842   0.11992
 Alpha virt. eigenvalues --    0.13729   0.14548   0.15017   0.15504   0.17154
 Alpha virt. eigenvalues --    0.17512   0.18871   0.19614   0.19894   0.21437

 Mulliken charges:
               1
     1  O   -0.423143
     2  C   -0.197580
     3  C    0.296726
     4  C   -0.111021
     5  C   -0.254132
     6  C   -0.109977
     7  C   -0.157658
     8  C    0.097206
     9  O   -0.448354
    10  H    0.286495
    11  H    0.087503
    12  H    0.106196
    13  H    0.092858
    14  H    0.108071
    15  H    0.078206
    16  H    0.074494
    17  H    0.098014
    18  H    0.089520
    19  H    0.286575
 Sum of Mulliken charges =   0.00000

 Dipole moment (field-independent basis, Debye):
    X=             -1.8466    Y=             -0.9177    Z=             -0.3691  Tot=              2.0948
 Quadrupole moment (field-independent basis, Debye-Ang):
   XX=            -57.6889   YY=            -53.9307   ZZ=            -51.0828
   XY=              0.5417   XZ=             -2.4635   YZ=              2.0823

  Exact polarizability:  80.046   0.178  72.746  -1.924   0.823  69.889
 Approx polarizability: 110.066   2.758 110.507   0.891   2.037 110.383

                      1                      2                      3
                      A                      A                      A
 Frequencies --     84.5809               127.5158               209.7558
 Red. masses --      4.3922                 4.8491                 2.7279
 Frc consts  --      0.0185                 0.0465                 0.0707
 IR Inten    --      3.0366                 0.5448                20.1742

                      4                      5                      6
                      A                      A                      A
 Frequencies --    249.0779               275.1040               352.4657
 Red. masses --      1.3251                 2.2892                 2.4864
 Frc consts  --      0.0484                 0.1021                 0.1820
 IR Inten    --    108.7933                14.1485                16.9958

                      7                      8                      9
                      A                      A                      A
 Frequencies --    399.1870               473.4002               488.8275
 Red. masses --      4.2163                 1.2174                 1.9110
 Frc consts  --      0.3959                 0.1607                 0.2690
 IR Inten    --     24.2352                41.9349                 8.9437

                     10                     11                     12
                      A                      A                      A
 Frequencies --    594.6581               665.0241               713.0732
 Red. masses --      3.5712                 3.7442                 3.9957
 Frc consts  --      0.7440                 0.9756                 1.1970
 IR Inten    --      0.3642                 4.1200                 8.6450

                     13                     14                     15
                      A                      A                      A
 Frequencies --    786.0978               825.7299               838.9525
 Red. masses --      2.3834                 3.6077                 1.2428
 Frc consts  --      0.8678                 1.4493                 0.5154
 IR Inten    --     11.6495                 9.0168                 6.2020

                     16                     17                     18
                      A                      A                      A
 Frequencies --    859.7663               912.8776               954.8037
 Red. masses --      2.1435                 2.1710                 1.7609
 Frc consts  --      0.9335                 1.0659                 0.9458
 IR Inten    --      6.5646                 3.8655                 2.0485

                     19                     20                     21
                      A                      A                      A
 Frequencies --    959.3579               990.4004               991.8142
 Red. masses --      2.1778                 2.0728                 1.7197
 Frc consts  --      1.1810                 1.1979                 0.9967
 IR Inten    --     10.5980                 6.2098                 7.0823

                     22                     23                     24
                      A                      A                      A
 Frequencies --   1025.3516              1036.3427              1058.7679
 Red. masses --      1.7620                 2.5082                 3.2995
 Frc consts  --      1.0914                 1.5872                 2.1792
 IR Inten    --      8.0853                15.2495                54.2216

                     25                     26                     27
                      A                      A                      A
 Frequencies --   1086.8889              1113.7093              1130.2070
 Red. masses --      1.9122                 2.6646                 1.3842
 Frc consts  --      1.3309                 1.9473                 1.0418
 IR Inten    --     49.5169               113.5622                 3.4897

                     28                     29                     30
                      A                      A                      A
 Frequencies --   1147.3048              1180.2062              1201.9166
 Red. masses --      1.6804                 1.4007                 1.6250
 Frc consts  --      1.3032                 1.1495                 1.3831
 IR Inten    --      4.0272                 9.7296                 9.6853

                     31                     32                     33
                      A                      A                      A
 Frequencies --   1248.3203              1254.6407              1271.6752
 Red. masses --      1.3934                 1.4619                 2.0626
 Frc consts  --      1.2793                 1.3558                 1.9653
 IR Inten    --      3.9929                 5.7152                 2.7839

                     34                     35                     36
                      A                      A                      A
 Frequencies --   1284.9366              1333.2533              1372.6143
 Red. masses --      1.5850                 2.0956                 1.2352
 Frc consts  --      1.5419                 2.1947                 1.3712
 IR Inten    --      8.9315                 8.7271                 1.0931

                     37                     38                     39
                      A                      A                      A
 Frequencies --   1404.1642              1436.2150              1451.9339
 Red. masses --      1.8548                 1.2459                 2.0032
 Frc consts  --      2.1547                 1.5141                 2.4880
 IR Inten    --      9.1420               121.5416                31.9213

                     40                     41                     42
                      A                      A                      A
 Frequencies --   1506.6408              1507.5764              2965.8404
 Red. masses --      1.1123                 1.0968                 1.0710
 Frc consts  --      1.4876                 1.4688                 5.5505
 IR Inten    --      0.6230                 0.9853                70.4887

                     43                     44                     45
                      A                      A                      A
 Frequencies --   3004.7446              3062.4450              3072.3984
 Red. masses --      1.0676                 1.0912                 1.0861
 Frc consts  --      5.6790                 6.0294                 6.0406
 IR Inten    --     71.6936                29.2984                30.2760

                     46                     47                     48
                      A                      A                      A
 Frequencies --   3092.9499              3142.2339              3196.3764
 Red. masses --      1.0952                 1.0915                 1.0916
 Frc consts  --      6.1731                 6.3497                 6.5709
 IR Inten    --     22.3339                35.9986                12.8509

                     49                     50                     51
                      A                      A                      A
 Frequencies --   3232.1408              3785.9137              3808.4615
 Red. masses --      1.0979                 1.0664                 1.0654
 Frc consts  --      6.7575                 9.0058                 9.1044
 IR Inten    --      5.3253                31.8502                13.9265

 - Thermochemistry -
 -------------------
 Temperature   298.150 Kelvin.  Pressure   1.00000 Atm.
 Atom     1 has atomic number  8 and mass  15.99491

 Molecular mass:   126.06808 amu.
 Principal axes and moments of inertia in atomic units:
                           1         2         3
     Eigenvalues --   687.193551141.614351429.05200
           X            0.99974  -0.00815  -0.02123
           Y            0.00848   0.99984   0.01566
           Z            0.02110  -0.01584   0.99965
 This molecule is an asymmetric top.
 Rotational symmetry number  1.
 Warning -- assumption of classical behavior for rotation
           may cause significant error
 Rotational temperatures (Kelvin)      0.12604     0.07587     0.06061
 Rotational constants (GHZ):           2.62625     1.58087     1.26289
 Zero-point vibrational energy     419701.7 (Joules/Mol)
                                  100.31111 (Kcal/Mol)
 Warning -- explicit consideration of  10 degrees of freedom as
           vibrations may cause significant error
 Vibrational temperatures:    121.69   183.47   301.79   358.37   395.81
          (Kelvin)            507.12   574.34   681.12   703.31   855.58
                              956.82  1025.95  1131.02  1188.04  1207.06
                             1237.01  1313.43  1373.75  1380.30  1424.96
                             1427.00  1475.25  1491.06  1523.33  1563.79
                             1602.38  1626.11  1650.71  1698.05  1729.29
                             1796.05  1805.15  1829.65  1848.73  1918.25
                             1974.88  2020.28  2066.39  2089.01  2167.72
                             2169.06  4267.18  4323.15  4406.17  4420.49
                             4450.06  4520.97  4598.87  4650.32  5447.08
                             5479.52

 Zero-point correction=                           0.159856 (Hartree/Particle)
 Thermal correction to Energy=                    0.167986
 Thermal correction to Enthalpy=                  0.168930
 Thermal correction to Gibbs Free Energy=         0.127234
 Sum of electronic and zero-point Energies=           -422.968626
 Sum of electronic and thermal Energies=              -422.960496
 Sum of electronic and thermal Enthalpies=            -422.959552
 Sum of electronic and thermal Free Energies=         -423.001248

                     E (Thermal)             CV                S
                      KCal/Mol        Cal/Mol-Kelvin    Cal/Mol-Kelvin
 Total                  105.413             31.900             87.757
 Electronic               0.000              0.000              0.000
 Translational            0.889              2.981             40.409
 Rotational               0.889              2.981             28.507
 Vibrational            103.635             25.938             18.841
 Vibration     1          0.601              1.960              3.782
 Vibration     2          0.611              1.926              2.983
 Vibration     3          0.642              1.826              2.046
 Vibration     4          0.662              1.764              1.737
 Vibration     5          0.677              1.719              1.564
 Vibration     6          0.729              1.570              1.155
 Vibration     7          0.765              1.472              0.966
 Vibration     8          0.830              1.309              0.728
 Vibration     9          0.845              1.275              0.687
 Vibration    10          0.952              1.043              0.459

 Optimization completed.
    -- Stationary point found.
 Normal termination of Gaussian 09 at Tue Jan 28 10:21:43 2020.
