 Gaussian 09, Revision D.01,
 Gaussian 09:  ES64L-G09RevD.01 24-Apr-2013

 -----------------------------
 # b3lyp 6-31G(2df,p) opt Freq
 -----------------------------

 -----
 titel
 -----
 Symbolic Z-matrix:
 Charge =  0 Multiplicity = 1

 SCF Done:  E(RB3LYP) =  -423.184429393     A.U. after   15 cycles
 SCF Done:  E(RB3LYP) =  -423.184429551     A.U. after    6 cycles
 SCF Done:  E(RB3LYP) =  -423.184429600     A.U. after    6 cycles
 Optimization completed.
    -- Stationary point found.
 Normal termination of Gaussian 09 at Mon Jan 27 14:30:40 2020.

 ----------------------------------------------------------------------
 #N Geom=AllCheck Guess=TCheck SCRF=Check GenChk RB3LYP/6-31G(2df,p) Fr
 eq
 ----------------------------------------------------------------------

 Structure from the checkpoint file:  "/scratch/puck/g09_b4fa74db-9928-41b8-a13c-b79c1158b748/Gau-171095.chk"
 -----
 titel
 -----
 Charge =  0 Multiplicity = 1

                         Standard orientation:
 ---------------------------------------------------------------------
 Center     Atomic      Atomic             Coordinates (Angstroms)
 Number     Number       Type             X           Y           Z
 ---------------------------------------------------------------------
      1          6           0        0.297522    1.890840   -0.820659
      2          6           0       -0.302803    0.757027    0.008470
      3          6           0       -1.571093    1.212784    0.734742
      4          6           0        0.727950    0.191116    1.019836
      5          6           0        1.936158   -0.343513    0.406285
      6          6           0        2.929600   -0.791286   -0.100893
      7          8           0       -0.635524   -0.254983   -0.999851
      8          6           0       -1.159516   -1.433861   -0.655516
      9          8           0       -1.435010   -1.825548    0.447722
     10          1           0       -0.428007    2.245031   -1.557516
     11          1           0        0.569470    2.727966   -0.171140
     12          1           0        1.192683    1.549376   -1.344579
     13          1           0       -2.313905    1.557983    0.010014
     14          1           0       -2.002766    0.404159    1.324899
     15          1           0       -1.332888    2.048495    1.399864
     16          1           0        0.991241    1.008011    1.703472
     17          1           0        0.243290   -0.584843    1.617799
     18          1           0        3.808655   -1.190045   -0.543191
     19          1           0       -1.310393   -2.020536   -1.576181
 ---------------------------------------------------------------------

 SCF Done:  E(RB3LYP) =  -423.184429600     A.U. after    1 cycles

 The electronic state is 1-A.
 Alpha  occ. eigenvalues --  -19.18653 -19.13343 -10.30925 -10.26580 -10.21055
 Alpha  occ. eigenvalues --  -10.18383 -10.18376 -10.18262 -10.17293  -1.10186
 Alpha  occ. eigenvalues --   -1.02185  -0.83047  -0.76216  -0.70421  -0.69729
 Alpha  occ. eigenvalues --   -0.65640  -0.55164  -0.53321  -0.50836  -0.47859
 Alpha  occ. eigenvalues --   -0.47756  -0.46042  -0.44095  -0.43778  -0.40181
 Alpha  occ. eigenvalues --   -0.39553  -0.38702  -0.36682  -0.36464  -0.34404
 Alpha  occ. eigenvalues --   -0.30678  -0.27882  -0.26693  -0.26296
 Alpha virt. eigenvalues --    0.00812   0.04629   0.05629   0.08959   0.09985
 Alpha virt. eigenvalues --    0.12738   0.13716   0.14881   0.15115   0.15628
 Alpha virt. eigenvalues --    0.17427   0.18460   0.19521   0.20767   0.21263

 Mulliken charges:
               1
     1  C   -0.407860
     2  C    0.351273
     3  C   -0.430429
     4  C   -0.390804
     5  C    0.310266
     6  C   -0.448692
     7  O   -0.246052
     8  C    0.196846
     9  O   -0.316561
    10  H    0.124010
    11  H    0.117630
    12  H    0.142247
    13  H    0.122528
    14  H    0.152893
    15  H    0.118885
    16  H    0.130233
    17  H    0.165380
    18  H    0.196895
    19  H    0.111310
 Sum of Mulliken charges =   0.00000

 Dipole moment (field-independent basis, Debye):
    X=              0.2776    Y=              1.8282    Z=             -0.6714  Tot=              1.9672
 Quadrupole moment (field-independent basis, Debye-Ang):
   XX=            -52.1957   YY=            -53.6634   ZZ=            -52.4712
   XY=             -3.3548   XZ=              0.5220   YZ=              4.4751

  Exact polarizability:  86.024  -5.047  77.130  -6.661   3.959  68.228
 Approx polarizability: 122.181  -8.275 108.612 -17.706   3.859 110.994

                      1                      2                      3
                      A                      A                      A
 Frequencies --     54.9917               122.5709               143.2386
 Red. masses --      5.2833                 4.6971                 3.4262
 Frc consts  --      0.0094                 0.0416                 0.0414
 IR Inten    --      0.4592                 2.2838                 0.0864

                      4                      5                      6
                      A                      A                      A
 Frequencies --    208.2854               215.6227               243.3301
 Red. masses --      1.1744                 2.9200                 1.7325
 Frc consts  --      0.0300                 0.0800                 0.0604
 IR Inten    --      0.7103                 4.1722                 5.9889

                      7                      8                      9
                      A                      A                      A
 Frequencies --    262.6803               297.4557               344.5296
 Red. masses --      1.3012                 3.8913                 3.3130
 Frc consts  --      0.0529                 0.2029                 0.2317
 IR Inten    --      1.8606                 3.4369                 7.5552

                     10                     11                     12
                      A                      A                      A
 Frequencies --    361.4684               391.1344               411.8885
 Red. masses --      2.2272                 2.6186                 3.3609
 Frc consts  --      0.1715                 0.2360                 0.3359
 IR Inten    --      4.8878                 0.4597                 3.2951

                     13                     14                     15
                      A                      A                      A
 Frequencies --    427.1987               578.1934               618.4224
 Red. masses --      3.3380                 3.9322                 1.2075
 Frc consts  --      0.3589                 0.7745                 0.2721
 IR Inten    --      4.1445                 9.2105                42.1108

                     16                     17                     18
                      A                      A                      A
 Frequencies --    643.4589               711.7415               819.5760
 Red. masses --      1.2497                 4.1004                 6.3399
 Frc consts  --      0.3049                 1.2238                 2.5091
 IR Inten    --     37.1601                 9.2969                15.0712

                     19                     20                     21
                      A                      A                      A
 Frequencies --    849.7340               885.7969               941.2174
 Red. masses --      2.8007                 1.9625                 1.5022
 Frc consts  --      1.1915                 0.9072                 0.7841
 IR Inten    --      9.7185                 0.6357                 0.0646

                     22                     23                     24
                      A                      A                      A
 Frequencies --    960.2080              1010.6909              1032.6822
 Red. masses --      2.3737                 2.0524                 1.4077
 Frc consts  --      1.2895                 1.2352                 0.8845
 IR Inten    --      1.5278                 0.6778                 0.7373

                     25                     26                     27
                      A                      A                      A
 Frequencies --   1047.3680              1155.2935              1205.5547
 Red. masses --      1.6469                 1.7135                 2.3380
 Frc consts  --      1.0644                 1.3474                 2.0020
 IR Inten    --      0.6848                87.0904                32.1285

                     28                     29                     30
                      A                      A                      A
 Frequencies --   1220.2540              1246.5309              1300.6585
 Red. masses --      4.7009                 2.4335                 1.6796
 Frc consts  --      4.1241                 2.2279                 1.6741
 IR Inten    --    275.0250                41.4473                14.0001

                     31                     32                     33
                      A                      A                      A
 Frequencies --   1352.9811              1398.4115              1413.4172
 Red. masses --      1.5146                 1.2894                 1.1711
 Frc consts  --      1.6336                 1.4856                 1.3784
 IR Inten    --      7.2304                11.7842                 5.9006

                     34                     35                     36
                      A                      A                      A
 Frequencies --   1422.4064              1464.6858              1479.5661
 Red. masses --      1.2047                 1.0843                 1.0639
 Frc consts  --      1.4360                 1.3706                 1.3722
 IR Inten    --      7.4764                 6.9326                 8.4200

                     37                     38                     39
                      A                      A                      A
 Frequencies --   1489.6758              1493.5627              1516.4047
 Red. masses --      1.0478                 1.0580                 1.0524
 Frc consts  --      1.3700                 1.3905                 1.4258
 IR Inten    --      2.8996                 0.4417                 9.0425

                     40                     41                     42
                      A                      A                      A
 Frequencies --   1807.0879              2238.8455              3017.5772
 Red. masses --      9.5108                 5.9319                 1.0891
 Frc consts  --     18.2989                17.5183                 5.8429
 IR Inten    --    246.4829                 1.3519                70.2651

                     43                     44                     45
                      A                      A                      A
 Frequencies --   3034.9149              3046.6072              3052.6498
 Red. masses --      1.0658                 1.0364                 1.0374
 Frc consts  --      5.7837                 5.6675                 5.6958
 IR Inten    --      8.0420                 6.8531                23.7861

                     46                     47                     48
                      A                      A                      A
 Frequencies --   3102.0075              3113.8018              3123.9303
 Red. masses --      1.0929                 1.1016                 1.1015
 Frc consts  --      6.1961                 6.2932                 6.3335
 IR Inten    --      0.9065                 5.5768                29.9184

                     49                     50                     51
                      A                      A                      A
 Frequencies --   3137.7983              3154.6893              3506.1045
 Red. masses --      1.1020                 1.0999                 1.1622
 Frc consts  --      6.3927                 6.4494                 8.4175
 IR Inten    --     12.0624                 5.9612                65.4685

 - Thermochemistry -
 -------------------
 Temperature   298.150 Kelvin.  Pressure   1.00000 Atm.
 Atom     1 has atomic number  6 and mass  12.00000

 Molecular mass:   126.06808 amu.
 Principal axes and moments of inertia in atomic units:
                           1         2         3
     Eigenvalues --   905.513521222.874351629.88819
           X            0.99782  -0.06364  -0.01768
           Y            0.06396   0.99778   0.01844
           Z            0.01647  -0.01953   0.99967
 This molecule is an asymmetric top.
 Rotational symmetry number  1.
 Warning -- assumption of classical behavior for rotation
           may cause significant error
 Rotational temperatures (Kelvin)      0.09565     0.07083     0.05314
 Rotational constants (GHZ):           1.99306     1.47582     1.10728
 Zero-point vibrational energy     407202.3 (Joules/Mol)
                                   97.32368 (Kcal/Mol)
 Warning -- explicit consideration of  15 degrees of freedom as
           vibrations may cause significant error
 Vibrational temperatures:     79.12   176.35   206.09   299.68   310.23
          (Kelvin)            350.10   377.94   427.97   495.70   520.07
                              562.75   592.61   614.64   831.89   889.77
                              925.79  1024.04  1179.19  1222.58  1274.46
                             1354.20  1381.52  1454.16  1485.80  1506.93
                             1662.21  1734.52  1755.67  1793.48  1871.36
                             1946.64  2012.00  2033.59  2046.52  2107.35
                             2128.76  2143.31  2148.90  2181.77  2599.99
                             3221.20  4341.62  4366.56  4383.38  4392.08
                             4463.09  4480.06  4494.63  4514.59  4538.89
                             5044.50

 Zero-point correction=                           0.155095 (Hartree/Particle)
 Thermal correction to Energy=                    0.165274
 Thermal correction to Enthalpy=                  0.166218
 Thermal correction to Gibbs Free Energy=         0.120257
 Sum of electronic and zero-point Energies=           -423.029334
 Sum of electronic and thermal Energies=              -423.019156
 Sum of electronic and thermal Enthalpies=            -423.018212
 Sum of electronic and thermal Free Energies=         -423.064172

                     E (Thermal)             CV                S
                      KCal/Mol        Cal/Mol-Kelvin    Cal/Mol-Kelvin
 Total                  103.711             37.339             96.732
 Electronic               0.000              0.000              0.000
 Translational            0.889              2.981             40.409
 Rotational               0.889              2.981             28.980
 Vibrational            101.933             31.377             27.344
 Vibration     1          0.596              1.976              4.629
 Vibration     2          0.610              1.930              3.059
 Vibration     3          0.616              1.910              2.760
 Vibration     4          0.642              1.828              2.059
 Vibration     5          0.645              1.817              1.996
 Vibration     6          0.659              1.774              1.778
 Vibration     7          0.670              1.741              1.644
 Vibration     8          0.691              1.678              1.431
 Vibration     9          0.723              1.586              1.191
 Vibration    10          0.736              1.552              1.116
 Vibration    11          0.759              1.489              0.996
 Vibration    12          0.776              1.444              0.920
 Vibration    13          0.789              1.411              0.868
 Vibration    14          0.935              1.078              0.489
 Vibration    15          0.978              0.993              0.419

 Optimization completed.
    -- Stationary point found.
 Normal termination of Gaussian 09 at Mon Jan 27 15:09:45 2020.
