 Gaussian 09, Revision D.01,
 Gaussian 09:  ES64L-G09RevD.01 24-Apr-2013

 -----------------------------
 # b3lyp 6-31G(2df,p) opt Freq
 -----------------------------

 -----
 titel
 -----
 Symbolic Z-matrix:
 Charge =  0 Multiplicity = 1

 SCF Done:  E(RB3LYP) =  -423.115390173     A.U. after   14 cycles
 Optimization completed.
    -- Stationary point found.
 Normal termination of Gaussian 09 at Tue Jan 28 12:39:59 2020.

 ----------------------------------------------------------------------
 #N Geom=AllCheck Guess=TCheck SCRF=Check GenChk RB3LYP/6-31G(2df,p) Fr
 eq
 ----------------------------------------------------------------------

 Structure from the checkpoint file:  "/scratch/puck/g09_1807f6b7-1dd7-45df-898e-1c1edddc6741/Gau-106756.chk"
 -----
 titel
 -----
 Charge =  0 Multiplicity = 1

                         Standard orientation:
 ---------------------------------------------------------------------
 Center     Atomic      Atomic             Coordinates (Angstroms)
 Number     Number       Type             X           Y           Z
 ---------------------------------------------------------------------
      1          6           0        2.295209   -1.301420    0.403031
      2          8           0        1.162631   -1.339093   -0.448258
      3          6           0        0.000182   -0.921858    0.174836
      4          6           0       -1.093767   -0.398018   -0.698178
      5          6           0       -2.543247   -0.766075   -0.476440
      6          6           0       -0.377152    0.566508    0.242559
      7          8           0       -1.145192    0.976450    1.345031
      8          6           0        0.519024    1.552134   -0.295622
      9          6           0        1.279750    2.396023   -0.693281
     10          1           0        2.157735   -1.951317    1.280391
     11          1           0        3.143649   -1.667370   -0.179169
     12          1           0        2.505864   -0.280149    0.745136
     13          1           0       -0.290543   -1.487086    1.064040
     14          1           0       -0.789915   -0.279053   -1.734070
     15          1           0       -2.758444   -1.745230   -0.917029
     16          1           0       -2.782508   -0.803157    0.587817
     17          1           0       -3.207762   -0.031440   -0.941827
     18          1           0       -0.536371    1.241053    2.043720
     19          1           0        1.938792    3.141139   -1.064630
 ---------------------------------------------------------------------

 SCF Done:  E(RB3LYP) =  -423.115390173     A.U. after    1 cycles

 The electronic state is 1-A.
 Alpha  occ. eigenvalues --  -19.15190 -19.14974 -10.25685 -10.23659 -10.22532
 Alpha  occ. eigenvalues --  -10.19649 -10.18280 -10.17728 -10.17565  -1.04868
 Alpha  occ. eigenvalues --   -1.03380  -0.85489  -0.75109  -0.71441  -0.68753
 Alpha  occ. eigenvalues --   -0.62009  -0.57872  -0.55837  -0.50860  -0.50422
 Alpha  occ. eigenvalues --   -0.47666  -0.45122  -0.43664  -0.41391  -0.40581
 Alpha  occ. eigenvalues --   -0.39422  -0.36094  -0.35172  -0.33730  -0.31620
 Alpha  occ. eigenvalues --   -0.28703  -0.27386  -0.26794  -0.22338
 Alpha virt. eigenvalues --    0.03307   0.04696   0.08871   0.10155   0.12512
 Alpha virt. eigenvalues --    0.12692   0.13378   0.14041   0.15738   0.16406
 Alpha virt. eigenvalues --    0.16920   0.17636   0.18300   0.19827   0.22292

 Mulliken charges:
               1
     1  C   -0.240322
     2  O   -0.231719
     3  C    0.041166
     4  C   -0.102987
     5  C   -0.415182
     6  C    0.120790
     7  O   -0.443720
     8  C    0.321810
     9  C   -0.471810
    10  H    0.104856
    11  H    0.129927
    12  H    0.119446
    13  H    0.089062
    14  H    0.114527
    15  H    0.120397
    16  H    0.135506
    17  H    0.125780
    18  H    0.286565
    19  H    0.195907
 Sum of Mulliken charges =   0.00000

 Dipole moment (field-independent basis, Debye):
    X=              1.0953    Y=             -0.1220    Z=              1.1757  Tot=              1.6114
 Quadrupole moment (field-independent basis, Debye-Ang):
   XX=            -50.7565   YY=            -52.4661   ZZ=            -50.2987
   XY=              3.4156   XZ=              2.4533   YZ=             -1.6598

  Exact polarizability:  89.104  11.868  84.714  -1.798  -5.584  65.862
 Approx polarizability: 120.923  22.978 124.734  -8.228  -9.364 101.363

                      1                      2                      3
                      A                      A                      A
 Frequencies --     99.1496               125.3217               137.0520
 Red. masses --      3.3725                 2.9858                 2.7412
 Frc consts  --      0.0195                 0.0276                 0.0303
 IR Inten    --      0.8814                 1.5070                 3.8544

                      4                      5                      6
                      A                      A                      A
 Frequencies --    169.9064               183.1964               191.1326
 Red. masses --      1.3100                 2.1594                 1.2629
 Frc consts  --      0.0223                 0.0427                 0.0272
 IR Inten    --      1.2435                 0.2912                 1.1981

                      7                      8                      9
                      A                      A                      A
 Frequencies --    233.5829               283.1368               306.6830
 Red. masses --      2.5442                 1.4577                 2.0540
 Frc consts  --      0.0818                 0.0689                 0.1138
 IR Inten    --      1.7003                41.1332                52.8588

                     10                     11                     12
                      A                      A                      A
 Frequencies --    309.8355               402.0333               454.7261
 Red. masses --      4.9344                 3.8817                 4.5089
 Frc consts  --      0.2791                 0.3697                 0.5493
 IR Inten    --     11.3496                 1.0116                 9.2925

                     13                     14                     15
                      A                      A                      A
 Frequencies --    492.2979               552.1078               573.2663
 Red. masses --      4.3553                 4.0616                 1.2865
 Frc consts  --      0.6219                 0.7295                 0.2491
 IR Inten    --      1.8722                20.1595                42.7324

                     16                     17                     18
                      A                      A                      A
 Frequencies --    660.4681               679.0288               684.6991
 Red. masses --      4.3698                 1.2763                 5.1145
 Frc consts  --      1.1231                 0.3467                 1.4127
 IR Inten    --     11.4375                32.7474                 3.7096

                     19                     20                     21
                      A                      A                      A
 Frequencies --    806.6956               896.3202               991.6091
 Red. masses --      4.0246                 1.7190                 1.9357
 Frc consts  --      1.5431                 0.8137                 1.1214
 IR Inten    --     10.8832                 4.8351                18.3487

                     22                     23                     24
                      A                      A                      A
 Frequencies --   1021.9323              1034.1850              1073.6817
 Red. masses --      2.5146                 1.5455                 2.7184
 Frc consts  --      1.5473                 0.9739                 1.8463
 IR Inten    --     39.3159                19.5377                10.4524

                     25                     26                     27
                      A                      A                      A
 Frequencies --   1132.5044              1143.4186              1168.8963
 Red. masses --      1.9213                 2.3487                 2.1906
 Frc consts  --      1.4519                 1.8092                 1.7635
 IR Inten    --     12.2941                45.7316                94.3627

                     28                     29                     30
                      A                      A                      A
 Frequencies --   1182.6023              1227.0637              1235.1969
 Red. masses --      1.3287                 1.8675                 2.0599
 Frc consts  --      1.0949                 1.6567                 1.8517
 IR Inten    --      6.4384                54.4939                37.6388

                     31                     32                     33
                      A                      A                      A
 Frequencies --   1253.6454              1327.6910              1339.3577
 Red. masses --      2.3709                 1.3283                 1.3752
 Frc consts  --      2.1954                 1.3795                 1.4535
 IR Inten    --     23.1495                21.0978                25.9955

                     34                     35                     36
                      A                      A                      A
 Frequencies --   1413.6174              1450.0431              1486.0938
 Red. masses --      1.2483                 1.8236                 1.1771
 Frc consts  --      1.4697                 2.2592                 1.5316
 IR Inten    --      0.4401                23.3055                 2.0883

                     37                     38                     39
                      A                      A                      A
 Frequencies --   1488.2097              1495.7727              1502.5197
 Red. masses --      1.0476                 1.1423                 1.0872
 Frc consts  --      1.3670                 1.5058                 1.4460
 IR Inten    --      4.2916                 7.5668                 4.1200

                     40                     41                     42
                      A                      A                      A
 Frequencies --   1505.4883              2225.1335              2988.7234
 Red. masses --      1.1411                 6.0354                 1.0398
 Frc consts  --      1.5238                17.6063                 5.4722
 IR Inten    --      3.9260                 8.2369                58.5427

                     43                     44                     45
                      A                      A                      A
 Frequencies --   3040.9607              3054.0057              3073.4772
 Red. masses --      1.0374                 1.0978                 1.0866
 Frc consts  --      5.6519                 6.0325                 6.0478
 IR Inten    --     33.1493                41.4548                22.5408

                     46                     47                     48
                      A                      A                      A
 Frequencies --   3101.5439              3124.5864              3133.6018
 Red. masses --      1.1014                 1.0990                 1.0978
 Frc consts  --      6.2422                 6.3217                 6.3514
 IR Inten    --     20.3219                25.9661                 7.8899

                     49                     50                     51
                      A                      A                      A
 Frequencies --   3164.2428              3501.4456              3799.7809
 Red. masses --      1.0884                 1.1594                 1.0663
 Frc consts  --      6.4208                 8.3748                 9.0704
 IR Inten    --      6.7270                78.3033                23.4556

 - Thermochemistry -
 -------------------
 Temperature   298.150 Kelvin.  Pressure   1.00000 Atm.
 Atom     1 has atomic number  6 and mass  12.00000

 Molecular mass:   126.06808 amu.
 Principal axes and moments of inertia in atomic units:
                           1         2         3
     Eigenvalues --   975.885261208.771681726.22496
           X            0.99843   0.04876   0.02742
           Y           -0.04819   0.99861  -0.02113
           Z           -0.02841   0.01977   0.99940
 This molecule is an asymmetric top.
 Rotational symmetry number  1.
 Warning -- assumption of classical behavior for rotation
           may cause significant error
 Rotational temperatures (Kelvin)      0.08875     0.07165     0.05018
 Rotational constants (GHZ):           1.84934     1.49304     1.04548
 Zero-point vibrational energy     406261.8 (Joules/Mol)
                                   97.09890 (Kcal/Mol)
 Warning -- explicit consideration of  15 degrees of freedom as
           vibrations may cause significant error
 Vibrational temperatures:    142.65   180.31   197.19   244.46   263.58
          (Kelvin)            275.00   336.07   407.37   441.25   445.78
                              578.44   654.25   708.31   794.36   824.80
                              950.27   976.97   985.13  1160.65  1289.60
                             1426.70  1470.33  1487.96  1544.79  1629.42
                             1645.12  1681.78  1701.50  1765.47  1777.17
                             1803.71  1910.25  1927.03  2033.88  2086.29
                             2138.15  2141.20  2152.08  2161.79  2166.06
                             3201.47  4300.10  4375.26  4394.03  4422.04
                             4462.42  4495.58  4508.55  4552.63  5037.79
                             5467.03

 Zero-point correction=                           0.154737 (Hartree/Particle)
 Thermal correction to Energy=                    0.165177
 Thermal correction to Enthalpy=                  0.166121
 Thermal correction to Gibbs Free Energy=         0.119803
 Sum of electronic and zero-point Energies=           -422.960653
 Sum of electronic and thermal Energies=              -422.950213
 Sum of electronic and thermal Enthalpies=            -422.949269
 Sum of electronic and thermal Free Energies=         -422.995587

                     E (Thermal)             CV                S
                      KCal/Mol        Cal/Mol-Kelvin    Cal/Mol-Kelvin
 Total                  103.650             37.958             97.485
 Electronic               0.000              0.000              0.000
 Translational            0.889              2.981             40.409
 Rotational               0.889              2.981             29.100
 Vibrational            101.873             31.997             27.976
 Vibration     1          0.604              1.950              3.471
 Vibration     2          0.610              1.928              3.017
 Vibration     3          0.614              1.916              2.845
 Vibration     4          0.625              1.880              2.437
 Vibration     5          0.631              1.863              2.296
 Vibration     6          0.634              1.852              2.217
 Vibration     7          0.654              1.790              1.851
 Vibration     8          0.682              1.705              1.515
 Vibration     9          0.697              1.661              1.380
 Vibration    10          0.699              1.655              1.363
 Vibration    11          0.768              1.466              0.955
 Vibration    12          0.813              1.350              0.782
 Vibration    13          0.848              1.267              0.678
 Vibration    14          0.907              1.135              0.540
 Vibration    15          0.930              1.089              0.498

 Normal termination of Gaussian 09 at Tue Jan 28 13:20:21 2020.
