 Gaussian 09, Revision D.01,
 Gaussian 09:  ES64L-G09RevD.01 24-Apr-2013

 -----------------------------
 # b3lyp 6-31G(2df,p) opt Freq
 -----------------------------

 -----
 titel
 -----
 Symbolic Z-matrix:
 Charge =  0 Multiplicity = 1

 SCF Done:  E(RB3LYP) =  -423.151820807     A.U. after   14 cycles
 Optimization completed.
    -- Stationary point found.
 Normal termination of Gaussian 09 at Tue Jan 28 14:03:17 2020.

 ----------------------------------------------------------------------
 #N Geom=AllCheck Guess=TCheck SCRF=Check GenChk RB3LYP/6-31G(2df,p) Fr
 eq
 ----------------------------------------------------------------------

 Structure from the checkpoint file:  "/scratch/puck/g09_69d075e6-69b5-4edd-812f-95b8c9898d70/Gau-143684.chk"
 -----
 titel
 -----
 Charge =  0 Multiplicity = 1

                         Standard orientation:
 ---------------------------------------------------------------------
 Center     Atomic      Atomic             Coordinates (Angstroms)
 Number     Number       Type             X           Y           Z
 ---------------------------------------------------------------------
      1          8           0        3.020546    0.098975   -0.131951
      2          6           0        1.904516   -0.664721    0.295115
      3          6           0        0.597250   -0.286644   -0.420343
      4          6           0       -0.535313   -1.237177   -0.003435
      5          6           0       -1.913219   -1.090747   -0.592583
      6          6           0       -1.604005   -0.447376    0.737840
      7          6           0       -1.171517    0.999834    0.693960
      8          8           0       -1.082739    1.556293   -0.627568
      9          6           0        0.123016    1.103764   -0.001541
     10          1           0        2.954073    0.978613    0.250116
     11          1           0        2.149277   -1.705845    0.060440
     12          1           0        1.766111   -0.603723    1.386372
     13          1           0        0.787666   -0.315501   -1.499424
     14          1           0       -0.244983   -2.224567    0.343007
     15          1           0       -2.052865   -0.433363   -1.441597
     16          1           0       -2.545720   -1.971916   -0.579942
     17          1           0       -2.073693   -0.812386    1.643151
     18          1           0       -1.495265    1.692207    1.465983
     19          1           0        0.848575    1.892729    0.193968
 ---------------------------------------------------------------------

 SCF Done:  E(RB3LYP) =  -423.151820806     A.U. after    1 cycles

 The electronic state is 1-A.
 Alpha  occ. eigenvalues --  -19.15092 -19.13958 -10.23835 -10.23562 -10.23203
 Alpha  occ. eigenvalues --  -10.19411 -10.19387 -10.19212 -10.18483  -1.07298
 Alpha  occ. eigenvalues --   -1.02045  -0.87033  -0.76885  -0.68850  -0.65843
 Alpha  occ. eigenvalues --   -0.60555  -0.56848  -0.56162  -0.53385  -0.51183
 Alpha  occ. eigenvalues --   -0.46982  -0.44982  -0.44243  -0.41834  -0.39850
 Alpha  occ. eigenvalues --   -0.38932  -0.37842  -0.35260  -0.33029  -0.31832
 Alpha  occ. eigenvalues --   -0.29745  -0.27216  -0.26678  -0.25730
 Alpha virt. eigenvalues --    0.06086   0.07832   0.08897   0.10350   0.13389
 Alpha virt. eigenvalues --    0.13775   0.14466   0.15425   0.16008   0.16141
 Alpha virt. eigenvalues --    0.17548   0.18636   0.20677   0.21281   0.23745

 Mulliken charges:
               1
     1  O   -0.422585
     2  C   -0.085736
     3  C   -0.051632
     4  C   -0.049943
     5  C   -0.305007
     6  C   -0.060026
     7  C    0.024880
     8  O   -0.259651
     9  C    0.033927
    10  H    0.286178
    11  H    0.114044
    12  H    0.091313
    13  H    0.097988
    14  H    0.082857
    15  H    0.137396
    16  H    0.108011
    17  H    0.085042
    18  H    0.095190
    19  H    0.077754
 Sum of Mulliken charges =   0.00000

 Dipole moment (field-independent basis, Debye):
    X=             -0.2989    Y=             -0.4279    Z=              2.1035  Tot=              2.1673
 Quadrupole moment (field-independent basis, Debye-Ang):
   XX=            -58.4036   YY=            -51.2283   ZZ=            -52.7298
   XY=              4.7798   XZ=              0.1558   YZ=              2.5647

  Exact polarizability:  83.218   3.355  73.777  -2.035   2.350  63.706
 Approx polarizability: 114.367   1.511 107.373  -3.898   1.137 102.850

                      1                      2                      3
                      A                      A                      A
 Frequencies --     88.7539               145.1988               196.3559
 Red. masses --      2.8824                 3.0741                 2.8060
 Frc consts  --      0.0134                 0.0382                 0.0637
 IR Inten    --      4.1569                 9.8408                 2.6726

                      4                      5                      6
                      A                      A                      A
 Frequencies --    254.6773               302.7227               335.3901
 Red. masses --      1.2040                 4.0523                 3.2413
 Frc consts  --      0.0460                 0.2188                 0.2148
 IR Inten    --    114.7842                 4.1100                 2.3154

                      7                      8                      9
                      A                      A                      A
 Frequencies --    389.7985               512.9707               539.8734
 Red. masses --      5.1876                 3.3438                 3.6023
 Frc consts  --      0.4644                 0.5184                 0.6186
 IR Inten    --      1.2966                 9.4997                 4.4947

                     10                     11                     12
                      A                      A                      A
 Frequencies --    694.0942               706.1152               782.0468
 Red. masses --      3.8804                 3.3178                 2.5065
 Frc consts  --      1.1015                 0.9747                 0.9032
 IR Inten    --      2.1696                 3.6387                 2.7906

                     13                     14                     15
                      A                      A                      A
 Frequencies --    795.4194               845.4075               862.8395
 Red. masses --      1.7951                 1.9183                 2.9251
 Frc consts  --      0.6692                 0.8078                 1.2831
 IR Inten    --      1.8814                20.7291                13.1631

                     16                     17                     18
                      A                      A                      A
 Frequencies --    884.0381               895.8449               980.6131
 Red. masses --      2.2575                 2.2042                 3.0544
 Frc consts  --      1.0395                 1.0422                 1.7305
 IR Inten    --     18.4329                 8.1633                12.9994

                     19                     20                     21
                      A                      A                      A
 Frequencies --    988.9794              1018.6123              1043.1740
 Red. masses --      1.9417                 2.2341                 1.8559
 Frc consts  --      1.1189                 1.3657                 1.1899
 IR Inten    --      2.9391                 7.0247                21.2781

                     22                     23                     24
                      A                      A                      A
 Frequencies --   1058.2129              1077.0074              1079.1777
 Red. masses --      1.5427                 1.9378                 2.9721
 Frc consts  --      1.0178                 1.3244                 2.0394
 IR Inten    --      3.7687                 2.6652                97.1734

                     25                     26                     27
                      A                      A                      A
 Frequencies --   1086.9205              1105.4266              1114.7062
 Red. masses --      1.3200                 1.2877                 1.4223
 Frc consts  --      0.9188                 0.9271                 1.0412
 IR Inten    --     14.2763                 3.9243                 4.9587

                     28                     29                     30
                      A                      A                      A
 Frequencies --   1144.8448              1195.9088              1204.2547
 Red. masses --      1.6892                 1.4230                 1.4417
 Frc consts  --      1.3044                 1.1991                 1.2318
 IR Inten    --      0.3864                 3.3038                 9.0857

                     31                     32                     33
                      A                      A                      A
 Frequencies --   1256.9404              1265.0010              1304.4211
 Red. masses --      1.4424                 1.3896                 1.2688
 Frc consts  --      1.3427                 1.3102                 1.2720
 IR Inten    --      5.5955                 3.4820                 0.4387

                     34                     35                     36
                      A                      A                      A
 Frequencies --   1327.0254              1353.0550              1392.3023
 Red. masses --      1.5797                 2.0169                 1.3511
 Frc consts  --      1.6390                 2.1755                 1.5432
 IR Inten    --      4.8802                 5.4817                 6.1848

                     37                     38                     39
                      A                      A                      A
 Frequencies --   1395.4477              1413.9265              1421.6219
 Red. masses --      1.5606                 1.2626                 2.6812
 Frc consts  --      1.7905                 1.4872                 3.1926
 IR Inten    --      1.5027                43.7063                13.9591

                     40                     41                     42
                      A                      A                      A
 Frequencies --   1481.1812              1502.3097              2980.4481
 Red. masses --      1.2834                 1.0862                 1.0691
 Frc consts  --      1.6589                 1.4443                 5.5952
 IR Inten    --      2.2045                 1.4226                42.2815

                     43                     44                     45
                      A                      A                      A
 Frequencies --   3048.3965              3074.0613              3109.9503
 Red. masses --      1.0828                 1.0949                 1.0886
 Frc consts  --      5.9282                 6.0959                 6.2034
 IR Inten    --     18.0905                29.8639                41.3584

                     46                     47                     48
                      A                      A                      A
 Frequencies --   3139.2218              3149.7708              3154.0655
 Red. masses --      1.0566                 1.0879                 1.0915
 Frc consts  --      6.1348                 6.3594                 6.3978
 IR Inten    --     16.4104                18.6293                24.3324

                     49                     50                     51
                      A                      A                      A
 Frequencies --   3186.4732              3235.2097              3834.7125
 Red. masses --      1.0928                 1.1149                 1.0663
 Frc consts  --      6.5376                 6.8754                 9.2382
 IR Inten    --     17.2143                 3.1982                16.3282

 - Thermochemistry -
 -------------------
 Temperature   298.150 Kelvin.  Pressure   1.00000 Atm.
 Atom     1 has atomic number  8 and mass  15.99491

 Molecular mass:   126.06808 amu.
 Principal axes and moments of inertia in atomic units:
                           1         2         3
     Eigenvalues --   590.086991359.873361679.05804
           X            0.99972   0.02342   0.00385
           Y           -0.02351   0.99941   0.02507
           Z           -0.00326  -0.02515   0.99968
 This molecule is an asymmetric top.
 Rotational symmetry number  1.
 Warning -- assumption of classical behavior for rotation
           may cause significant error
 Rotational temperatures (Kelvin)      0.14678     0.06369     0.05158
 Rotational constants (GHZ):           3.05843     1.32714     1.07485
 Zero-point vibrational energy     420815.9 (Joules/Mol)
                                  100.57742 (Kcal/Mol)
 Warning -- explicit consideration of   9 degrees of freedom as
           vibrations may cause significant error
 Vibrational temperatures:    127.70   208.91   282.51   366.42   435.55
          (Kelvin)            482.55   560.83   738.05   776.76   998.65
                             1015.94  1125.19  1144.43  1216.35  1241.43
                             1271.93  1288.92  1410.88  1422.92  1465.55
                             1500.89  1522.53  1549.57  1552.69  1563.83
                             1590.46  1603.81  1647.17  1720.64  1732.65
                             1808.45  1820.05  1876.77  1909.29  1946.74
                             2003.21  2007.74  2034.32  2045.39  2131.09
                             2161.49  4288.19  4385.96  4422.88  4474.52
                             4516.63  4531.81  4537.99  4584.62  4654.74
                             5517.29

 Zero-point correction=                           0.160280 (Hartree/Particle)
 Thermal correction to Energy=                    0.168173
 Thermal correction to Enthalpy=                  0.169117
 Thermal correction to Gibbs Free Energy=         0.127775
 Sum of electronic and zero-point Energies=           -422.991540
 Sum of electronic and thermal Energies=              -422.983648
 Sum of electronic and thermal Enthalpies=            -422.982704
 Sum of electronic and thermal Free Energies=         -423.024046

                     E (Thermal)             CV                S
                      KCal/Mol        Cal/Mol-Kelvin    Cal/Mol-Kelvin
 Total                  105.530             30.926             87.012
 Electronic               0.000              0.000              0.000
 Translational            0.889              2.981             40.409
 Rotational               0.889              2.981             28.690
 Vibrational            103.753             24.965             17.913
 Vibration     1          0.602              1.957              3.687
 Vibration     2          0.617              1.908              2.734
 Vibration     3          0.636              1.845              2.167
 Vibration     4          0.665              1.755              1.698
 Vibration     5          0.694              1.669              1.402
 Vibration     6          0.717              1.605              1.234
 Vibration     7          0.758              1.492              1.001
 Vibration     8          0.868              1.221              0.626
 Vibration     9          0.895              1.162              0.566

 Optimization completed.
    -- Stationary point found.
 Normal termination of Gaussian 09 at Tue Jan 28 14:52:27 2020.
 Normal termination of Gaussian 09 at Tue Jan 28 13:59:00 2020.
