 Gaussian 09, Revision D.01,
 Gaussian 09:  ES64L-G09RevD.01 24-Apr-2013

 -----------------------------
 # b3lyp 6-31G(2df,p) opt Freq
 -----------------------------

 -----
 titel
 -----
 Symbolic Z-matrix:
 Charge =  0 Multiplicity = 1

 SCF Done:  E(RB3LYP) =  -423.140055358     A.U. after   13 cycles
 Optimization completed.
    -- Stationary point found.
 Normal termination of Gaussian 09 at Tue Jan 28 09:15:42 2020.

 ----------------------------------------------------------------------
 #N Geom=AllCheck Guess=TCheck SCRF=Check GenChk RB3LYP/6-31G(2df,p) Fr
 eq
 ----------------------------------------------------------------------

 Structure from the checkpoint file:  "/scratch/puck/g09_f97204c8-7a91-4b76-a96c-6195c203b95e/Gau-14484.chk"
 -----
 titel
 -----
 Charge =  0 Multiplicity = 1

                         Standard orientation:
 ---------------------------------------------------------------------
 Center     Atomic      Atomic             Coordinates (Angstroms)
 Number     Number       Type             X           Y           Z
 ---------------------------------------------------------------------
      1          6           0        2.576141    0.481350   -0.209323
      2          8           0        1.793953   -0.687296   -0.006655
      3          6           0        0.449571   -0.437732    0.073828
      4          6           0       -0.636412   -1.225269    0.760633
      5          6           0       -1.512855   -1.190408   -0.493795
      6          6           0       -0.558761   -0.084856   -1.061508
      7          8           0       -1.037664    1.225729   -0.801348
      8          6           0       -1.151689    1.347145    0.626151
      9          6           0       -0.304428    0.216047    1.194007
     10          1           0        2.452987    1.191813    0.619434
     11          1           0        3.618595    0.159963   -0.258373
     12          1           0        2.311597    0.987864   -1.147032
     13          1           0       -0.537138   -2.042398    1.465018
     14          1           0       -1.439883   -2.122010   -1.061606
     15          1           0       -2.564727   -0.905014   -0.394830
     16          1           0       -0.256032   -0.152380   -2.105446
     17          1           0       -0.775471    2.333170    0.922496
     18          1           0       -2.207121    1.282961    0.925823
     19          1           0        0.177486    0.320906    2.158582
 ---------------------------------------------------------------------

 SCF Done:  E(RB3LYP) =  -423.140055358     A.U. after    1 cycles

 The electronic state is 1-A.
 Alpha  occ. eigenvalues --  -19.15351 -19.13340 -10.23344 -10.23075 -10.22769
 Alpha  occ. eigenvalues --  -10.22627 -10.19497 -10.19241 -10.18291  -1.05150
 Alpha  occ. eigenvalues --   -1.03024  -0.88319  -0.75128  -0.70413  -0.66562
 Alpha  occ. eigenvalues --   -0.62854  -0.57153  -0.53504  -0.53149  -0.47527
 Alpha  occ. eigenvalues --   -0.47123  -0.44921  -0.44042  -0.42080  -0.41009
 Alpha  occ. eigenvalues --   -0.39230  -0.37932  -0.37548  -0.34008  -0.31468
 Alpha  occ. eigenvalues --   -0.29583  -0.27319  -0.25862  -0.22329
 Alpha virt. eigenvalues --    0.08933   0.09629   0.10603   0.12059   0.13440
 Alpha virt. eigenvalues --    0.14115   0.14423   0.15130   0.15954   0.17112
 Alpha virt. eigenvalues --    0.17262   0.18305   0.18679   0.19711   0.20615

 Mulliken charges:
               1
     1  C   -0.260319
     2  O   -0.286984
     3  C    0.434422
     4  C   -0.159397
     5  C   -0.249511
     6  C    0.001630
     7  O   -0.265511
     8  C   -0.103167
     9  C   -0.160036
    10  H    0.112458
    11  H    0.128394
    12  H    0.122549
    13  H    0.093270
    14  H    0.106450
    15  H    0.099079
    16  H    0.087768
    17  H    0.104703
    18  H    0.098276
    19  H    0.095925
 Sum of Mulliken charges =   0.00000

 Dipole moment (field-independent basis, Debye):
    X=              0.4562    Y=              0.0533    Z=              0.8865  Tot=              0.9984
 Quadrupole moment (field-independent basis, Debye-Ang):
   XX=            -52.1092   YY=            -54.2850   ZZ=            -51.4969
   XY=              4.0955   XZ=             -1.5704   YZ=              2.5038

  Exact polarizability:  80.090   3.449  73.241  -1.150   3.144  69.165
 Approx polarizability: 108.246   1.686 109.285  -2.768   2.896 105.104

                      1                      2                      3
                      A                      A                      A
 Frequencies --     87.2617               145.7258               168.4488
 Red. masses --      2.6088                 3.0704                 1.1264
 Frc consts  --      0.0117                 0.0384                 0.0188
 IR Inten    --      2.8996                 2.8405                 0.1671

                      4                      5                      6
                      A                      A                      A
 Frequencies --    239.0657               332.6540               367.6606
 Red. masses --      2.3914                 2.9860                 3.6089
 Frc consts  --      0.0805                 0.1947                 0.2874
 IR Inten    --      4.0521                 3.3186                 2.3459

                      7                      8                      9
                      A                      A                      A
 Frequencies --    429.5530               488.8735               586.0526
 Red. masses --      3.1273                 2.6103                 4.0051
 Frc consts  --      0.3400                 0.3676                 0.8105
 IR Inten    --      2.9893                 1.2240                12.0284

                     10                     11                     12
                      A                      A                      A
 Frequencies --    670.5059               718.5302               753.0609
 Red. masses --      4.2685                 4.1128                 3.3969
 Frc consts  --      1.1307                 1.2511                 1.1350
 IR Inten    --      9.0672                 2.5218                 3.7302

                     13                     14                     15
                      A                      A                      A
 Frequencies --    825.1045               862.1752               915.2294
 Red. masses --      2.1544                 2.1936                 2.5478
 Frc consts  --      0.8641                 0.9607                 1.2574
 IR Inten    --     13.5179                 0.9419                10.9804

                     16                     17                     18
                      A                      A                      A
 Frequencies --    933.4316               952.0190               996.6984
 Red. masses --      2.1303                 2.4533                 1.8409
 Frc consts  --      1.0936                 1.3100                 1.0775
 IR Inten    --      3.2546                 9.5379                 8.4180

                     19                     20                     21
                      A                      A                      A
 Frequencies --   1002.1707              1027.6561              1044.6053
 Red. masses --      2.0197                 1.8254                 3.8192
 Frc consts  --      1.1952                 1.1358                 2.4554
 IR Inten    --     16.4635                 6.9018                61.4258

                     22                     23                     24
                      A                      A                      A
 Frequencies --   1073.0244              1088.7529              1113.1516
 Red. masses --      2.6624                 2.5017                 2.7535
 Frc consts  --      1.8061                 1.7472                 2.0102
 IR Inten    --     30.9778                15.6136                 0.3571

                     25                     26                     27
                      A                      A                      A
 Frequencies --   1150.3432              1160.8489              1173.3771
 Red. masses --      1.5728                 1.6682                 1.7806
 Frc consts  --      1.2263                 1.3245                 1.4444
 IR Inten    --      9.4980                24.3544                14.6113

                     28                     29                     30
                      A                      A                      A
 Frequencies --   1178.5663              1216.9884              1220.4970
 Red. masses --      1.2849                 1.5595                 1.1782
 Frc consts  --      1.0515                 1.3609                 1.0341
 IR Inten    --      2.3597                 8.5829                 5.8563

                     31                     32                     33
                      A                      A                      A
 Frequencies --   1238.5920              1274.1907              1301.5814
 Red. masses --      2.0191                 1.4614                 1.9236
 Frc consts  --      1.8250                 1.3979                 1.9200
 IR Inten    --     24.1713                12.6584                31.4550

                     34                     35                     36
                      A                      A                      A
 Frequencies --   1327.3289              1374.2260              1436.5565
 Red. masses --      1.4341                 1.5070                 1.8622
 Frc consts  --      1.4886                 1.6768                 2.2642
 IR Inten    --      8.2414                28.4465                77.8930

                     37                     38                     39
                      A                      A                      A
 Frequencies --   1484.3781              1487.5945              1502.5306
 Red. masses --      1.1173                 1.0706                 1.1631
 Frc consts  --      1.4504                 1.3959                 1.5471
 IR Inten    --      3.4854                 3.5364                35.0115

                     40                     41                     42
                      A                      A                      A
 Frequencies --   1507.2981              1527.3642              2999.2966
 Red. masses --      1.4236                 1.0972                 1.0461
 Frc consts  --      1.9056                 1.5081                 5.5447
 IR Inten    --     11.7008                 2.2425                57.7737

                     43                     44                     45
                      A                      A                      A
 Frequencies --   2999.9014              3048.8167              3051.3186
 Red. masses --      1.0530                 1.0637                 1.0921
 Frc consts  --      5.5831                 5.8252                 5.9910
 IR Inten    --     55.2450                19.8401                63.3436

                     46                     47                     48
                      A                      A                      A
 Frequencies --   3056.1851              3103.3796              3125.8040
 Red. masses --      1.1041                 1.1082                 1.0994
 Frc consts  --      6.0761                 6.2882                 6.3290
 IR Inten    --     41.4403                19.9470                29.3988

                     49                     50                     51
                      A                      A                      A
 Frequencies --   3132.9940              3185.3433              3196.6390
 Red. masses --      1.0907                 1.0917                 1.0920
 Frc consts  --      6.3075                 6.5262                 6.5742
 IR Inten    --     28.2657                 9.5216                10.6613

 - Thermochemistry -
 -------------------
 Temperature   298.150 Kelvin.  Pressure   1.00000 Atm.
 Atom     1 has atomic number  6 and mass  12.00000

 Molecular mass:   126.06808 amu.
 Principal axes and moments of inertia in atomic units:
                           1         2         3
     Eigenvalues --   660.930081126.580781274.22417
           X            0.99817   0.05990  -0.00865
           Y           -0.05899   0.99483   0.08271
           Z            0.01356  -0.08205   0.99654
 This molecule is an asymmetric top.
 Rotational symmetry number  1.
 Warning -- assumption of classical behavior for rotation
           may cause significant error
 Rotational temperatures (Kelvin)      0.13105     0.07688     0.06797
 Rotational constants (GHZ):           2.73061     1.60196     1.41635
 Zero-point vibrational energy     420387.8 (Joules/Mol)
                                  100.47509 (Kcal/Mol)
 Warning -- explicit consideration of   9 degrees of freedom as
           vibrations may cause significant error
 Vibrational temperatures:    125.55   209.67   242.36   343.96   478.61
          (Kelvin)            528.98   618.03   703.38   843.20   964.71
                             1033.80  1083.49  1187.14  1240.48  1316.81
                             1343.00  1369.74  1434.02  1441.90  1478.57
                             1502.95  1543.84  1566.47  1601.57  1655.09
                             1670.20  1688.23  1695.69  1750.97  1756.02
                             1782.06  1833.27  1872.68  1909.73  1977.20
                             2066.88  2135.69  2140.31  2161.80  2168.66
                             2197.53  4315.31  4316.18  4386.56  4390.16
                             4397.16  4465.07  4497.33  4507.67  4582.99
                             4599.24

 Zero-point correction=                           0.160117 (Hartree/Particle)
 Thermal correction to Energy=                    0.167889
 Thermal correction to Enthalpy=                  0.168834
 Thermal correction to Gibbs Free Energy=         0.127766
 Sum of electronic and zero-point Energies=           -422.979938
 Sum of electronic and thermal Energies=              -422.972166
 Sum of electronic and thermal Enthalpies=            -422.971222
 Sum of electronic and thermal Free Energies=         -423.012289

                     E (Thermal)             CV                S
                      KCal/Mol        Cal/Mol-Kelvin    Cal/Mol-Kelvin
 Total                  105.352             30.129             86.434
 Electronic               0.000              0.000              0.000
 Translational            0.889              2.981             40.409
 Rotational               0.889              2.981             28.341
 Vibrational            103.575             24.167             17.684
 Vibration     1          0.601              1.958              3.721
 Vibration     2          0.617              1.907              2.727
 Vibration     3          0.625              1.881              2.453
 Vibration     4          0.657              1.781              1.810
 Vibration     5          0.715              1.610              1.247
 Vibration     6          0.740              1.539              1.090
 Vibration     7          0.791              1.406              0.860
 Vibration     8          0.845              1.275              0.687
 Vibration     9          0.943              1.062              0.474

 Optimization completed.
    -- Stationary point found.
 Normal termination of Gaussian 09 at Tue Jan 28 10:04:20 2020.
