 Gaussian 09, Revision D.01,
 Gaussian 09:  ES64L-G09RevD.01 24-Apr-2013

 -----------------------------
 # b3lyp 6-31G(2df,p) opt Freq
 -----------------------------

 -----
 titel
 -----
 Symbolic Z-matrix:
 Charge =  0 Multiplicity = 1

 SCF Done:  E(RB3LYP) =  -423.198712401     A.U. after   13 cycles
 Optimization completed.
    -- Stationary point found.
 Normal termination of Gaussian 09 at Mon Jan 27 22:02:38 2020.

 ----------------------------------------------------------------------
 #N Geom=AllCheck Guess=TCheck SCRF=Check GenChk RB3LYP/6-31G(2df,p) Fr
 eq
 ----------------------------------------------------------------------

 Structure from the checkpoint file:  "/scratch/puck/g09_8ead7a4c-2433-4549-b564-f28756d57f61/Gau-182167.chk"
 -----
 titel
 -----
 Charge =  0 Multiplicity = 1

                         Standard orientation:
 ---------------------------------------------------------------------
 Center     Atomic      Atomic             Coordinates (Angstroms)
 Number     Number       Type             X           Y           Z
 ---------------------------------------------------------------------
      1          6           0        2.622741    0.202995   -0.411244
      2          6           0        1.252546   -0.253279   -0.036385
      3          6           0        0.524175   -1.267789   -0.500799
      4          6           0       -0.851465   -1.176298    0.148540
      5          8           0       -0.577269   -0.514572    1.368779
      6          6           0        0.359575    0.490773    0.959874
      7          6           0       -0.486297    1.564553    0.245641
      8          6           0       -1.236157    0.902973   -0.934462
      9          8           0       -1.751932   -0.394674   -0.623678
     10          1           0        2.609416    1.227600   -0.804271
     11          1           0        3.287601    0.214740    0.461587
     12          1           0        3.068166   -0.443620   -1.171561
     13          1           0        0.784264   -1.970077   -1.281929
     14          1           0       -1.368966   -2.114734    0.351230
     15          1           0        0.878201    0.875438    1.842246
     16          1           0       -1.194432    1.966606    0.976342
     17          1           0        0.121628    2.395892   -0.130122
     18          1           0       -2.100068    1.503127   -1.231905
     19          1           0       -0.562912    0.835430   -1.799409
 ---------------------------------------------------------------------

 SCF Done:  E(RB3LYP) =  -423.198712401     A.U. after    1 cycles

 The electronic state is 1-A.
 Alpha  occ. eigenvalues --  -19.13475 -19.13429 -10.27119 -10.23596 -10.22616
 Alpha  occ. eigenvalues --  -10.19529 -10.19372 -10.18648 -10.17741  -1.07062
 Alpha  occ. eigenvalues --   -0.99526  -0.81233  -0.77924  -0.71484  -0.66789
 Alpha  occ. eigenvalues --   -0.65539  -0.55663  -0.54023  -0.51645  -0.48056
 Alpha  occ. eigenvalues --   -0.45771  -0.45090  -0.42583  -0.42169  -0.40690
 Alpha  occ. eigenvalues --   -0.40213  -0.38756  -0.38140  -0.34233  -0.33263
 Alpha  occ. eigenvalues --   -0.30801  -0.26457  -0.25161  -0.24454
 Alpha virt. eigenvalues --    0.00703   0.08304   0.11456   0.12422   0.13311
 Alpha virt. eigenvalues --    0.13759   0.15083   0.15552   0.15685   0.16996
 Alpha virt. eigenvalues --    0.17764   0.19068   0.20128   0.20460   0.22516

 Mulliken charges:
               1
     1  C   -0.506827
     2  C    0.326246
     3  C   -0.224767
     4  C    0.143915
     5  O   -0.241801
     6  C   -0.018822
     7  C   -0.224749
     8  C   -0.071768
     9  O   -0.264580
    10  H    0.131809
    11  H    0.133471
    12  H    0.131728
    13  H    0.103725
    14  H    0.088447
    15  H    0.077380
    16  H    0.115941
    17  H    0.095545
    18  H    0.109131
    19  H    0.095977
 Sum of Mulliken charges =   0.00000

 Dipole moment (field-independent basis, Debye):
    X=              2.1555    Y=              1.1825    Z=             -0.9615  Tot=              2.6398
 Quadrupole moment (field-independent basis, Debye-Ang):
   XX=            -53.9036   YY=            -49.5803   ZZ=            -54.9816
   XY=             -0.5427   XZ=             -0.0890   YZ=              1.2828

  Exact polarizability:  81.190   4.408  77.964   0.654   4.290  64.982
 Approx polarizability: 114.735  14.613 120.005   3.496   8.798 100.663

                      1                      2                      3
                      A                      A                      A
 Frequencies --    145.3167               169.0596               239.0087
 Red. masses --      2.3520                 1.1530                 2.5756
 Frc consts  --      0.0293                 0.0194                 0.0867
 IR Inten    --      0.1923                 0.0279                 1.6061

                      4                      5                      6
                      A                      A                      A
 Frequencies --    283.7494               330.0776               446.6921
 Red. masses --      2.2849                 2.6158                 4.4740
 Frc consts  --      0.1084                 0.1679                 0.5260
 IR Inten    --      2.2525                 0.9503                 2.6637

                      7                      8                      9
                      A                      A                      A
 Frequencies --    454.9315               496.2038               588.3518
 Red. masses --      3.4996                 3.7350                 4.0412
 Frc consts  --      0.4267                 0.5418                 0.8242
 IR Inten    --      1.2382                10.7279                 2.2878

                     10                     11                     12
                      A                      A                      A
 Frequencies --    642.6117               677.7415               801.5071
 Red. masses --      5.2249                 2.4369                 2.2079
 Frc consts  --      1.2712                 0.6595                 0.8357
 IR Inten    --      3.5458                 4.2348                12.2232

                     13                     14                     15
                      A                      A                      A
 Frequencies --    833.2919               839.3435               874.5049
 Red. masses --      1.7585                 3.5713                 3.1847
 Frc consts  --      0.7194                 1.4824                 1.4350
 IR Inten    --      1.9114                 8.7637                 9.3232

                     16                     17                     18
                      A                      A                      A
 Frequencies --    900.6849               911.7987               948.9892
 Red. masses --      2.6938                 2.7971                 2.1255
 Frc consts  --      1.2875                 1.3701                 1.1278
 IR Inten    --      7.1979                31.2064                42.7024

                     19                     20                     21
                      A                      A                      A
 Frequencies --    977.1103              1016.5616              1031.5075
 Red. masses --      3.0457                 1.5815                 2.9120
 Frc consts  --      1.7133                 0.9629                 1.8255
 IR Inten    --    100.5594                 5.2866                 2.4465

                     22                     23                     24
                      A                      A                      A
 Frequencies --   1046.5847              1055.9520              1092.3000
 Red. masses --      3.4873                 1.6704                 1.8057
 Frc consts  --      2.2505                 1.0974                 1.2694
 IR Inten    --     21.8218                 1.8415                 5.3447

                     25                     26                     27
                      A                      A                      A
 Frequencies --   1119.8797              1198.2628              1222.0559
 Red. masses --      5.9605                 2.1424                 1.2593
 Frc consts  --      4.4043                 1.8124                 1.1080
 IR Inten    --     90.1257                14.5669                 5.6820

                     28                     29                     30
                      A                      A                      A
 Frequencies --   1260.1871              1268.7597              1308.6223
 Red. masses --      1.5403                 1.3641                 1.2728
 Frc consts  --      1.4412                 1.2937                 1.2842
 IR Inten    --     23.4804                 0.8347                 2.9913

                     31                     32                     33
                      A                      A                      A
 Frequencies --   1323.2015              1352.0425              1366.1684
 Red. masses --      1.6964                 1.3867                 1.5536
 Frc consts  --      1.7500                 1.4935                 1.7084
 IR Inten    --      7.1365                18.3949                 4.0516

                     34                     35                     36
                      A                      A                      A
 Frequencies --   1374.3149              1414.3966              1416.4208
 Red. masses --      1.2458                 1.2791                 1.2858
 Frc consts  --      1.3864                 1.5077                 1.5198
 IR Inten    --      4.1602                 5.3046                 5.8025

                     37                     38                     39
                      A                      A                      A
 Frequencies --   1471.5754              1479.9383              1486.5288
 Red. masses --      1.0874                 1.0485                 1.0605
 Frc consts  --      1.3874                 1.3530                 1.3808
 IR Inten    --      1.8532                 7.2373                 7.7295

                     40                     41                     42
                      A                      A                      A
 Frequencies --   1504.8658              1712.5295              3012.9640
 Red. masses --      1.0831                 7.2687                 1.0688
 Frc consts  --      1.4451                12.5598                 5.7166
 IR Inten    --      2.7174                11.0594                40.6081

                     43                     44                     45
                      A                      A                      A
 Frequencies --   3019.1383              3039.8608              3064.9756
 Red. masses --      1.0384                 1.0611                 1.0982
 Frc consts  --      5.5768                 5.7771                 6.0782
 IR Inten    --     21.9120                23.5777                15.6640

                     46                     47                     48
                      A                      A                      A
 Frequencies --   3076.3250              3084.8911              3097.2468
 Red. masses --      1.0877                 1.0959                 1.1016
 Frc consts  --      6.0647                 6.1446                 6.2264
 IR Inten    --     47.4424                26.3779                37.6115

                     49                     50                     51
                      A                      A                      A
 Frequencies --   3114.9203              3115.1189              3219.9832
 Red. masses --      1.0987                 1.0908                 1.0966
 Frc consts  --      6.2808                 6.2366                 6.6991
 IR Inten    --     18.5194                38.4754                 5.6835

 - Thermochemistry -
 -------------------
 Temperature   298.150 Kelvin.  Pressure   1.00000 Atm.
 Atom     1 has atomic number  6 and mass  12.00000

 Molecular mass:   126.06808 amu.
 Principal axes and moments of inertia in atomic units:
                           1         2         3
     Eigenvalues --   665.272501085.307891201.59536
           X            0.99991  -0.00636  -0.01172
           Y            0.00678   0.99932   0.03625
           Z            0.01148  -0.03633   0.99927
 This molecule is an asymmetric top.
 Rotational symmetry number  1.
 Warning -- assumption of classical behavior for rotation
           may cause significant error
 Rotational temperatures (Kelvin)      0.13019     0.07981     0.07208
 Rotational constants (GHZ):           2.71278     1.66288     1.50195
 Zero-point vibrational energy     424250.0 (Joules/Mol)
                                  101.39817 (Kcal/Mol)
 Warning -- explicit consideration of   9 degrees of freedom as
           vibrations may cause significant error
 Vibrational temperatures:    209.08   243.24   343.88   408.25   474.91
          (Kelvin)            642.69   654.54   713.93   846.51   924.57
                              975.12  1153.19  1198.92  1207.63  1258.22
                             1295.88  1311.87  1365.38  1405.84  1462.60
                             1484.11  1505.80  1519.28  1571.57  1611.26
                             1724.03  1758.26  1813.13  1825.46  1882.81
                             1903.79  1945.29  1965.61  1977.33  2035.00
                             2037.91  2117.27  2129.30  2138.78  2165.16
                             2463.94  4334.98  4343.86  4373.68  4409.81
                             4426.14  4438.46  4456.24  4481.67  4481.96
                             4632.83

 Zero-point correction=                           0.161588 (Hartree/Particle)
 Thermal correction to Energy=                    0.168973
 Thermal correction to Enthalpy=                  0.169917
 Thermal correction to Gibbs Free Energy=         0.130073
 Sum of electronic and zero-point Energies=           -423.037124
 Sum of electronic and thermal Energies=              -423.029740
 Sum of electronic and thermal Enthalpies=            -423.028795
 Sum of electronic and thermal Free Energies=         -423.068640

                     E (Thermal)             CV                S
                      KCal/Mol        Cal/Mol-Kelvin    Cal/Mol-Kelvin
 Total                  106.032             29.715             83.859
 Electronic               0.000              0.000              0.000
 Translational            0.889              2.981             40.409
 Rotational               0.889              2.981             28.252
 Vibrational            104.255             23.753             15.198
 Vibration     1          0.617              1.908              2.733
 Vibration     2          0.625              1.881              2.446
 Vibration     3          0.657              1.781              1.810
 Vibration     4          0.682              1.704              1.511
 Vibration     5          0.713              1.615              1.260
 Vibration     6          0.806              1.368              0.806
 Vibration     7          0.813              1.350              0.781
 Vibration     8          0.852              1.258              0.668
 Vibration     9          0.946              1.057              0.470

 Optimization completed.
    -- Stationary point found.
 Normal termination of Gaussian 09 at Mon Jan 27 22:51:55 2020.
