 Gaussian 09, Revision D.01,
 Gaussian 09:  ES64L-G09RevD.01 24-Apr-2013

 -----------------------------
 # b3lyp 6-31G(2df,p) opt Freq
 -----------------------------

 -----
 titel
 -----
 Symbolic Z-matrix:
 Charge =  0 Multiplicity = 1

 SCF Done:  E(RB3LYP) =  -423.120549470     A.U. after   14 cycles
 Optimization completed.
    -- Stationary point found.
 Normal termination of Gaussian 09 at Tue Jan 28 01:53:23 2020.

 ----------------------------------------------------------------------
 #N Geom=AllCheck Guess=TCheck SCRF=Check GenChk RB3LYP/6-31G(2df,p) Fr
 eq
 ----------------------------------------------------------------------

 Structure from the checkpoint file:  "/scratch/puck/g09_a36ad4be-a089-4c90-b5fe-0340de39e0d9/Gau-38011.chk"
 -----
 titel
 -----
 Charge =  0 Multiplicity = 1

                         Standard orientation:
 ---------------------------------------------------------------------
 Center     Atomic      Atomic             Coordinates (Angstroms)
 Number     Number       Type             X           Y           Z
 ---------------------------------------------------------------------
      1          6           0        0.881447    1.994227    0.438318
      2          6           0        0.532006    0.829786   -0.474775
      3          6           0        1.654651   -0.181879   -0.796813
      4          8           0        2.052401   -0.804996    0.430740
      5          6           0        0.881366   -1.302353   -0.239078
      6          6           0       -0.263000   -0.375980    0.109771
      7          6           0       -1.200434   -0.412857    1.286915
      8          6           0       -1.715892   -0.621274   -0.120212
      9          8           0       -2.415300    0.403167   -0.766053
     10          1           0        1.409917    1.636940    1.326108
     11          1           0        1.521257    2.718357   -0.077877
     12          1           0       -0.021918    2.522256    0.760761
     13          1           0        0.044510    1.176038   -1.391377
     14          1           0        2.382733   -0.158605   -1.599694
     15          1           0        0.863393   -2.355594   -0.495798
     16          1           0       -1.166998   -1.260001    1.964790
     17          1           0       -1.431753    0.539169    1.755006
     18          1           0       -2.020659   -1.631106   -0.399922
     19          1           0       -3.298154    0.449151   -0.384250
 ---------------------------------------------------------------------

 SCF Done:  E(RB3LYP) =  -423.120549470     A.U. after    1 cycles

 The electronic state is 1-A.
 Alpha  occ. eigenvalues --  -19.14684 -19.14515 -10.23744 -10.23331 -10.23037
 Alpha  occ. eigenvalues --  -10.19640 -10.19081 -10.18370 -10.16786  -1.07058
 Alpha  occ. eigenvalues --   -1.03100  -0.85684  -0.77614  -0.70215  -0.62740
 Alpha  occ. eigenvalues --   -0.60854  -0.59316  -0.52808  -0.52071  -0.51623
 Alpha  occ. eigenvalues --   -0.46371  -0.43684  -0.42639  -0.41217  -0.39212
 Alpha  occ. eigenvalues --   -0.37904  -0.37729  -0.35614  -0.32516  -0.32195
 Alpha  occ. eigenvalues --   -0.29380  -0.27257  -0.25949  -0.24593
 Alpha virt. eigenvalues --    0.07435   0.09126   0.10006   0.11132   0.12262
 Alpha virt. eigenvalues --    0.12676   0.14291   0.14866   0.16175   0.17153
 Alpha virt. eigenvalues --    0.17220   0.18290   0.20298   0.20911   0.21554

 Mulliken charges:
               1
     1  C   -0.409176
     2  C   -0.092583
     3  C    0.021901
     4  O   -0.247301
     5  C   -0.085691
     6  C    0.342937
     7  C   -0.390522
     8  C    0.013451
     9  O   -0.418164
    10  H    0.132482
    11  H    0.111883
    12  H    0.115833
    13  H    0.095997
    14  H    0.100780
    15  H    0.102323
    16  H    0.114543
    17  H    0.117117
    18  H    0.084299
    19  H    0.289890
 Sum of Mulliken charges =   0.00000

 Dipole moment (field-independent basis, Debye):
    X=             -1.9754    Y=             -0.3339    Z=             -0.3722  Tot=              2.0377
 Quadrupole moment (field-independent basis, Debye-Ang):
   XX=            -50.7199   YY=            -50.7666   ZZ=            -53.9557
   XY=              2.1657   XZ=             -5.5813   YZ=              1.2210

  Exact polarizability:  83.387   2.008  76.451  -4.792  -1.213  66.565
 Approx polarizability: 116.718   1.659 108.399  -2.547  -5.440 104.085

                      1                      2                      3
                      A                      A                      A
 Frequencies --    101.9920               149.2113               195.0492
 Red. masses --      3.5202                 4.4797                 2.8485
 Frc consts  --      0.0216                 0.0588                 0.0638
 IR Inten    --      0.7607                 4.9832                 2.4255

                      4                      5                      6
                      A                      A                      A
 Frequencies --    228.1030               240.3800               288.9228
 Red. masses --      3.1232                 1.0636                 1.2786
 Frc consts  --      0.0957                 0.0362                 0.0629
 IR Inten    --      5.6946                 0.1283                90.8660

                      7                      8                      9
                      A                      A                      A
 Frequencies --    325.0248               385.3776               451.2543
 Red. masses --      2.8723                 3.1578                 2.4458
 Frc consts  --      0.1788                 0.2763                 0.2934
 IR Inten    --      8.4336                 4.8180                 3.6589

                     10                     11                     12
                      A                      A                      A
 Frequencies --    554.1537               588.7473               605.7289
 Red. masses --      3.4895                 3.4307                 3.8920
 Frc consts  --      0.6314                 0.7006                 0.8414
 IR Inten    --      9.0904                 7.7923                 3.4412

                     13                     14                     15
                      A                      A                      A
 Frequencies --    744.3303               825.3144               841.3285
 Red. masses --      3.3484                 2.7192                 2.1914
 Frc consts  --      1.0930                 1.0913                 0.9139
 IR Inten    --      0.6215                 4.7548                 3.4484

                     16                     17                     18
                      A                      A                      A
 Frequencies --    853.4801               858.8796               888.6842
 Red. masses --      2.2727                 1.5777                 1.9975
 Frc consts  --      0.9754                 0.6857                 0.9295
 IR Inten    --      6.9327                28.1211                 2.9277

                     19                     20                     21
                      A                      A                      A
 Frequencies --    949.5260               964.9258               998.6775
 Red. masses --      2.6751                 2.0881                 2.3540
 Frc consts  --      1.4210                 1.1455                 1.3833
 IR Inten    --     12.7292                36.3488                 1.1891

                     22                     23                     24
                      A                      A                      A
 Frequencies --   1036.1620              1041.9337              1060.9948
 Red. masses --      1.3603                 1.4104                 1.5661
 Frc consts  --      0.8605                 0.9021                 1.0387
 IR Inten    --      3.7707                 2.0692                 4.6278

                     25                     26                     27
                      A                      A                      A
 Frequencies --   1083.9018              1103.6964              1132.9833
 Red. masses --      1.5896                 1.7232                 2.3652
 Frc consts  --      1.1003                 1.2368                 1.7888
 IR Inten    --     14.6397                 5.2670                 0.1455

                     28                     29                     30
                      A                      A                      A
 Frequencies --   1168.2764              1195.5833              1224.4122
 Red. masses --      2.5305                 1.9473                 1.4890
 Frc consts  --      2.0349                 1.6400                 1.3152
 IR Inten    --     34.5688                15.3050                 9.1103

                     31                     32                     33
                      A                      A                      A
 Frequencies --   1225.2986              1257.6015              1298.3979
 Red. masses --      1.6343                 1.4902                 1.2910
 Frc consts  --      1.4456                 1.3886                 1.2823
 IR Inten    --      8.6377                 9.9819                62.4735

                     34                     35                     36
                      A                      A                      A
 Frequencies --   1333.2999              1364.9555              1380.1169
 Red. masses --      1.8517                 1.6458                 2.5124
 Frc consts  --      1.9395                 1.8066                 2.8195
 IR Inten    --      4.9851                 2.5021                15.2823

                     37                     38                     39
                      A                      A                      A
 Frequencies --   1403.6184              1428.0592              1489.7214
 Red. masses --      1.3887                 1.2939                 1.5516
 Frc consts  --      1.6120                 1.5547                 2.0289
 IR Inten    --      3.5450                11.9241                20.3028

                     40                     41                     42
                      A                      A                      A
 Frequencies --   1496.0189              1503.0970              3034.2289
 Red. masses --      1.2311                 1.1149                 1.0359
 Frc consts  --      1.6234                 1.4841                 5.6188
 IR Inten    --      2.8644                 1.4551                25.9926

                     43                     44                     45
                      A                      A                      A
 Frequencies --   3067.6476              3084.4605              3096.2241
 Red. masses --      1.0843                 1.0868                 1.1005
 Frc consts  --      6.0119                 6.0919                 6.2160
 IR Inten    --      9.8599                38.5117                24.2227

                     46                     47                     48
                      A                      A                      A
 Frequencies --   3122.0094              3122.1414              3174.3681
 Red. masses --      1.0577                 1.0968                 1.0873
 Frc consts  --      6.0742                 6.2993                 6.4553
 IR Inten    --      7.7295                19.5356                16.3277

                     49                     50                     51
                      A                      A                      A
 Frequencies --   3189.3953              3210.6602              3805.7598
 Red. masses --      1.1011                 1.1166                 1.0663
 Frc consts  --      6.5995                 6.7817                 9.0990
 IR Inten    --     27.9016                 7.4601                23.5041

 - Thermochemistry -
 -------------------
 Temperature   298.150 Kelvin.  Pressure   1.00000 Atm.
 Atom     1 has atomic number  6 and mass  12.00000

 Molecular mass:   126.06808 amu.
 Principal axes and moments of inertia in atomic units:
                           1         2         3
     Eigenvalues --   665.106101281.222801517.23748
           X            0.99904   0.03841  -0.02105
           Y           -0.03760   0.99858   0.03764
           Z            0.02246  -0.03681   0.99907
 This molecule is an asymmetric top.
 Rotational symmetry number  1.
 Warning -- assumption of classical behavior for rotation
           may cause significant error
 Rotational temperatures (Kelvin)      0.13023     0.06760     0.05709
 Rotational constants (GHZ):           2.71346     1.40861     1.18949
 Zero-point vibrational energy     413753.1 (Joules/Mol)
                                   98.88936 (Kcal/Mol)
 Warning -- explicit consideration of  12 degrees of freedom as
           vibrations may cause significant error
 Vibrational temperatures:    146.74   214.68   280.63   328.19   345.85
          (Kelvin)            415.69   467.64   554.47   649.25   797.30
                              847.08   871.51  1070.92  1187.44  1210.48
                             1227.97  1235.73  1278.62  1366.15  1388.31
                             1436.87  1490.80  1499.11  1526.53  1559.49
                             1587.97  1630.11  1680.89  1720.18  1761.65
                             1762.93  1809.41  1868.10  1918.32  1963.86
                             1985.68  2019.49  2054.66  2143.37  2152.43
                             2162.62  4365.57  4413.66  4437.85  4454.77
                             4491.87  4492.06  4567.20  4588.82  4619.42
                             5475.63

 Zero-point correction=                           0.157590 (Hartree/Particle)
 Thermal correction to Energy=                    0.166160
 Thermal correction to Enthalpy=                  0.167104
 Thermal correction to Gibbs Free Energy=         0.124704
 Sum of electronic and zero-point Energies=           -422.962959
 Sum of electronic and thermal Energies=              -422.954390
 Sum of electronic and thermal Enthalpies=            -422.953445
 Sum of electronic and thermal Free Energies=         -422.995845

                     E (Thermal)             CV                S
                      KCal/Mol        Cal/Mol-Kelvin    Cal/Mol-Kelvin
 Total                  104.267             33.174             89.238
 Electronic               0.000              0.000              0.000
 Translational            0.889              2.981             40.409
 Rotational               0.889              2.981             28.649
 Vibrational            102.489             27.212             20.181
 Vibration     1          0.604              1.948              3.416
 Vibration     2          0.618              1.904              2.682
 Vibration     3          0.636              1.847              2.179
 Vibration     4          0.651              1.798              1.894
 Vibration     5          0.657              1.779              1.800
 Vibration     6          0.685              1.694              1.480
 Vibration     7          0.709              1.625              1.285
 Vibration     8          0.754              1.501              1.018
 Vibration     9          0.810              1.358              0.792
 Vibration    10          0.910              1.131              0.536
 Vibration    11          0.946              1.056              0.469
 Vibration    12          0.964              1.020              0.440

 Optimization completed.
    -- Stationary point found.
 Normal termination of Gaussian 09 at Tue Jan 28 02:43:11 2020.
