 Gaussian 09, Revision D.01,
 Gaussian 09:  ES64L-G09RevD.01 24-Apr-2013

 -----------------------------
 # b3lyp 6-31G(2df,p) opt Freq
 -----------------------------

 -----
 titel
 -----
 Symbolic Z-matrix:
 Charge =  0 Multiplicity = 1

 SCF Done:  E(RB3LYP) =  -423.152727320     A.U. after   13 cycles
 Optimization completed.
    -- Stationary point found.
 Normal termination of Gaussian 09 at Mon Jan 27 18:24:15 2020.

 ----------------------------------------------------------------------
 #N Geom=AllCheck Guess=TCheck SCRF=Check GenChk RB3LYP/6-31G(2df,p) Fr
 eq
 ----------------------------------------------------------------------

 Structure from the checkpoint file:  "/scratch/puck/g09_81a32529-06db-40f7-86c3-ef33b02dace5/Gau-18268.chk"
 -----
 titel
 -----
 Charge =  0 Multiplicity = 1

                         Standard orientation:
 ---------------------------------------------------------------------
 Center     Atomic      Atomic             Coordinates (Angstroms)
 Number     Number       Type             X           Y           Z
 ---------------------------------------------------------------------
      1          6           0        1.451257   -1.744433    0.220190
      2          6           0        0.350863   -0.769344   -0.055426
      3          8           0       -0.202169   -0.753013   -1.377122
      4          6           0       -0.839912    0.498488   -0.986109
      5          6           0       -1.909267   -0.000043   -0.000017
      6          6           0       -0.839911   -0.498524    0.986099
      7          8           0       -0.202236    0.753005    1.377127
      8          6           0        0.350823    0.769364    0.055441
      9          6           0        1.451178    1.744497   -0.220176
     10          1           0        2.271491   -1.619606   -0.492843
     11          1           0        1.838114   -1.592541    1.232281
     12          1           0        1.084901   -2.773559    0.143183
     13          1           0       -1.095355    1.146360   -1.822663
     14          1           0       -2.526529    0.777459    0.454174
     15          1           0       -2.526482   -0.777574   -0.454223
     16          1           0       -1.095344   -1.146407    1.822648
     17          1           0        1.838285    1.592354   -1.232135
     18          1           0        1.084714    2.773613   -0.143553
     19          1           0        2.271252    1.619938    0.493085
 ---------------------------------------------------------------------

 SCF Done:  E(RB3LYP) =  -423.152727320     A.U. after    1 cycles

 The electronic state is 1-A.
 Alpha  occ. eigenvalues --  -19.13654 -19.13654 -10.23837 -10.23817 -10.23434
 Alpha  occ. eigenvalues --  -10.23433 -10.18473 -10.18473 -10.18215  -1.07937
 Alpha  occ. eigenvalues --   -1.01780  -0.76820  -0.75883  -0.75427  -0.65940
 Alpha  occ. eigenvalues --   -0.65204  -0.57505  -0.50427  -0.50214  -0.49048
 Alpha  occ. eigenvalues --   -0.47166  -0.43693  -0.41778  -0.40800  -0.40389
 Alpha  occ. eigenvalues --   -0.39885  -0.37494  -0.37350  -0.35988  -0.33836
 Alpha  occ. eigenvalues --   -0.30680  -0.29814  -0.25088  -0.23879
 Alpha virt. eigenvalues --    0.08436   0.09407   0.10877   0.12210   0.12875
 Alpha virt. eigenvalues --    0.13410   0.15059   0.15810   0.15926   0.16605
 Alpha virt. eigenvalues --    0.17050   0.17574   0.18330   0.19108   0.21629

 Mulliken charges:
               1
     1  C   -0.524032
     2  C    0.378169
     3  O   -0.330624
     4  C   -0.004768
     5  C   -0.216211
     6  C   -0.004771
     7  O   -0.330624
     8  C    0.378169
     9  C   -0.524033
    10  H    0.130932
    11  H    0.135793
    12  H    0.133005
    13  H    0.080752
    14  H    0.108880
    15  H    0.108880
    16  H    0.080752
    17  H    0.135795
    18  H    0.133000
    19  H    0.130935
 Sum of Mulliken charges =   0.00000

 Dipole moment (field-independent basis, Debye):
    X=              0.2655    Y=              0.0000    Z=              0.0000  Tot=              0.2655
 Quadrupole moment (field-independent basis, Debye-Ang):
   XX=            -49.8161   YY=            -51.4885   ZZ=            -57.1284
   XY=              0.0001   XZ=              0.0002   YZ=             -5.1896

  Exact polarizability:  79.511   0.000  75.207   0.000  -4.059  68.067
 Approx polarizability: 108.037   0.000 108.239   0.000  -0.905 110.726

                      1                      2                      3
                      A                      A                      A
 Frequencies --    177.5073               193.4765               202.4966
 Red. masses --      2.5318                 1.0515                 1.0238
 Frc consts  --      0.0470                 0.0232                 0.0247
 IR Inten    --      0.2138                 0.3156                 0.0273

                      4                      5                      6
                      A                      A                      A
 Frequencies --    247.9094               269.8400               302.3809
 Red. masses --      2.9412                 2.6152                 2.4980
 Frc consts  --      0.1065                 0.1122                 0.1346
 IR Inten    --      0.5349                 2.7088                 1.4711

                      7                      8                      9
                      A                      A                      A
 Frequencies --    477.9284               524.3010               524.4022
 Red. masses --      1.9345                 4.2091                 5.0230
 Frc consts  --      0.2603                 0.6817                 0.8138
 IR Inten    --      0.5677                 7.8267                12.6157

                     10                     11                     12
                      A                      A                      A
 Frequencies --    632.5361               651.3295               715.1073
 Red. masses --      4.0143                 3.6273                 4.8972
 Frc consts  --      0.9463                 0.9066                 1.4755
 IR Inten    --      0.0463                 0.6387                 2.7895

                     13                     14                     15
                      A                      A                      A
 Frequencies --    775.7923               793.8906               856.9548
 Red. masses --      3.3898                 3.2912                 2.3186
 Frc consts  --      1.2020                 1.2221                 1.0032
 IR Inten    --      0.2941                11.5712                12.8919

                     16                     17                     18
                      A                      A                      A
 Frequencies --    866.3645               896.1816               921.8556
 Red. masses --      3.2569                 2.2020                 2.2608
 Frc consts  --      1.4403                 1.0420                 1.1320
 IR Inten    --      4.1273                 4.4559                31.2258

                     19                     20                     21
                      A                      A                      A
 Frequencies --    930.5498               944.7947               976.0107
 Red. masses --      2.5794                 3.1950                 3.0249
 Frc consts  --      1.3160                 1.6803                 1.6977
 IR Inten    --     29.0017                23.9357                 6.1638

                     22                     23                     24
                      A                      A                      A
 Frequencies --    998.7265              1097.5216              1108.6748
 Red. masses --      1.5525                 1.3421                 2.0474
 Frc consts  --      0.9124                 0.9525                 1.4827
 IR Inten    --      9.9361                 1.3706                24.9169

                     25                     26                     27
                      A                      A                      A
 Frequencies --   1123.2684              1130.6958              1148.6056
 Red. masses --      1.8187                 1.8333                 2.1205
 Frc consts  --      1.3520                 1.3810                 1.6483
 IR Inten    --      4.7473                 3.0855                 2.4255

                     28                     29                     30
                      A                      A                      A
 Frequencies --   1176.1506              1229.5157              1257.3500
 Red. masses --      2.1504                 1.7060                 1.6368
 Frc consts  --      1.7527                 1.5195                 1.5246
 IR Inten    --     43.5465                 7.8933                22.8259

                     31                     32                     33
                      A                      A                      A
 Frequencies --   1279.6791              1308.0563              1322.5757
 Red. masses --      1.6567                 1.5674                 2.7492
 Frc consts  --      1.5984                 1.5801                 2.8334
 IR Inten    --     11.6537                 0.6587                 8.1992

                     34                     35                     36
                      A                      A                      A
 Frequencies --   1378.9928              1410.1019              1424.5428
 Red. masses --      1.7621                 1.5470                 2.2302
 Frc consts  --      1.9743                 1.8124                 2.6666
 IR Inten    --      0.4355                10.7144                13.6749

                     37                     38                     39
                      A                      A                      A
 Frequencies --   1461.9237              1478.0892              1478.9968
 Red. masses --      1.1260                 1.0673                 1.0450
 Frc consts  --      1.4179                 1.3739                 1.3468
 IR Inten    --      4.9959                 3.1634                 5.0858

                     40                     41                     42
                      A                      A                      A
 Frequencies --   1491.9357              1496.7888              3037.8061
 Red. masses --      1.0527                 1.0725                 1.0351
 Frc consts  --      1.3806                 1.4157                 5.6278
 IR Inten    --      4.9582                 3.7274                18.6845

                     43                     44                     45
                      A                      A                      A
 Frequencies --   3039.0128              3077.6882              3106.2252
 Red. masses --      1.0351                 1.0573                 1.1008
 Frc consts  --      5.6324                 5.9008                 6.2576
 IR Inten    --     14.2079                17.0373                14.0221

                     46                     47                     48
                      A                      A                      A
 Frequencies --   3107.4075              3117.7742              3118.9652
 Red. masses --      1.1007                 1.1013                 1.1013
 Frc consts  --      6.2620                 6.3076                 6.3124
 IR Inten    --     12.9983                 1.7153                19.1249

                     49                     50                     51
                      A                      A                      A
 Frequencies --   3139.3661              3142.3306              3143.3386
 Red. masses --      1.1009                 1.0976                 1.0941
 Frc consts  --      6.3924                 6.3855                 6.3692
 IR Inten    --     26.5363                43.2968                 7.1825

 - Thermochemistry -
 -------------------
 Temperature   298.150 Kelvin.  Pressure   1.00000 Atm.
 Atom     1 has atomic number  6 and mass  12.00000

 Molecular mass:   126.06808 amu.
 Principal axes and moments of inertia in atomic units:
                           1         2         3
     Eigenvalues --   846.57206 875.950861043.87461
           X            1.00000   0.00002   0.00000
           Y           -0.00002   0.99011  -0.14032
           Z           -0.00001   0.14032   0.99011
 This molecule is an asymmetric top.
 Rotational symmetry number  1.
 Warning -- assumption of classical behavior for rotation
           may cause significant error
 Rotational temperatures (Kelvin)      0.10231     0.09888     0.08297
 Rotational constants (GHZ):           2.13182     2.06032     1.72889
 Zero-point vibrational energy     416980.6 (Joules/Mol)
                                   99.66076 (Kcal/Mol)
 Warning -- explicit consideration of   9 degrees of freedom as
           vibrations may cause significant error
 Vibrational temperatures:    255.39   278.37   291.35   356.69   388.24
          (Kelvin)            435.06   687.63   754.35   754.50   910.08
                              937.12  1028.88  1116.19  1142.23  1232.97
                             1246.50  1289.40  1326.34  1338.85  1359.35
                             1404.26  1436.94  1579.09  1595.13  1616.13
                             1626.82  1652.59  1692.22  1769.00  1809.04
                             1841.17  1882.00  1902.89  1984.06  2028.82
                             2049.60  2103.38  2126.64  2127.94  2146.56
                             2153.54  4370.72  4372.46  4428.10  4469.16
                             4470.86  4485.78  4487.49  4516.84  4521.11
                             4522.56

 Zero-point correction=                           0.158820 (Hartree/Particle)
 Thermal correction to Energy=                    0.166590
 Thermal correction to Enthalpy=                  0.167534
 Thermal correction to Gibbs Free Energy=         0.127150
 Sum of electronic and zero-point Energies=           -422.993908
 Sum of electronic and thermal Energies=              -422.986138
 Sum of electronic and thermal Enthalpies=            -422.985193
 Sum of electronic and thermal Free Energies=         -423.025577

                     E (Thermal)             CV                S
                      KCal/Mol        Cal/Mol-Kelvin    Cal/Mol-Kelvin
 Total                  104.537             31.226             84.995
 Electronic               0.000              0.000              0.000
 Translational            0.889              2.981             40.409
 Rotational               0.889              2.981             28.139
 Vibrational            102.759             25.265             16.447
 Vibration     1          0.628              1.870              2.354
 Vibration     2          0.635              1.849              2.194
 Vibration     3          0.639              1.836              2.110
 Vibration     4          0.662              1.766              1.745
 Vibration     5          0.674              1.729              1.597
 Vibration     6          0.694              1.669              1.404
 Vibration     7          0.834              1.299              0.716
 Vibration     8          0.879              1.196              0.600
 Vibration     9          0.879              1.196              0.600

 Normal termination of Gaussian 09 at Mon Jan 27 20:14:28 2020.
