 Gaussian 09, Revision D.01,
 Gaussian 09:  ES64L-G09RevD.01 24-Apr-2013

 -----------------------------
 # b3lyp 6-31G(2df,p) opt Freq
 -----------------------------

 -----
 titel
 -----
 Symbolic Z-matrix:
 Charge =  0 Multiplicity = 1

 SCF Done:  E(RB3LYP) =  -423.176713337     A.U. after   15 cycles
 Optimization completed.
    -- Stationary point found.
 Normal termination of Gaussian 09 at Tue Jan 28 08:09:05 2020.

 ----------------------------------------------------------------------
 #N Geom=AllCheck Guess=TCheck SCRF=Check GenChk RB3LYP/6-31G(2df,p) Fr
 eq
 ----------------------------------------------------------------------

 Structure from the checkpoint file:  "/scratch/puck/g09_d553352b-31df-45c7-a4ab-1a4d38e10ed2/Gau-127989.chk"
 -----
 titel
 -----
 Charge =  0 Multiplicity = 1

                         Standard orientation:
 ---------------------------------------------------------------------
 Center     Atomic      Atomic             Coordinates (Angstroms)
 Number     Number       Type             X           Y           Z
 ---------------------------------------------------------------------
      1          6           0       -3.586499   -0.997335   -0.198703
      2          6           0       -2.331175   -0.297213    0.033916
      3          6           0       -1.290645    0.277242    0.228558
      4          6           0       -0.045370    1.009309    0.450059
      5          6           0       -0.041895    2.394764   -0.224585
      6          6           0        1.207294    0.201041    0.071201
      7          8           0        2.248232    0.748180   -0.221231
      8          6           0        1.153412   -1.316871    0.118018
      9          8           0        2.413533   -1.876045   -0.103743
     10          1           0       -4.242065   -0.423836   -0.862951
     11          1           0       -3.415628   -1.974074   -0.664260
     12          1           0       -4.127812   -1.165963    0.738528
     13          1           0        0.070612    1.162602    1.536391
     14          1           0       -0.181940    2.293937   -1.303904
     15          1           0       -0.854617    3.006557    0.172491
     16          1           0        0.912008    2.893070   -0.045006
     17          1           0        0.741420   -1.624940    1.092300
     18          1           0        0.419109   -1.646483   -0.634618
     19          1           0        2.994055   -1.123563   -0.299958
 ---------------------------------------------------------------------

 SCF Done:  E(RB3LYP) =  -423.176713337     A.U. after    1 cycles

 The electronic state is 1-A.
 Alpha  occ. eigenvalues --  -19.15182 -19.12834 -10.28341 -10.23553 -10.23030
 Alpha  occ. eigenvalues --  -10.21214 -10.18768 -10.18701 -10.18063  -1.06719
 Alpha  occ. eigenvalues --   -1.01082  -0.82384  -0.77575  -0.72272  -0.70023
 Alpha  occ. eigenvalues --   -0.64749  -0.55828  -0.52849  -0.49693  -0.47650
 Alpha  occ. eigenvalues --   -0.46625  -0.45392  -0.43490  -0.43423  -0.42366
 Alpha  occ. eigenvalues --   -0.40956  -0.38663  -0.38291  -0.36634  -0.34151
 Alpha  occ. eigenvalues --   -0.28877  -0.26861  -0.26173  -0.24909
 Alpha virt. eigenvalues --   -0.02629   0.04271   0.04745   0.09535   0.10514
 Alpha virt. eigenvalues --    0.12608   0.13073   0.14229   0.16007   0.16318
 Alpha virt. eigenvalues --    0.17036   0.17259   0.18987   0.20388   0.21112

 Mulliken charges:
               1
     1  C   -0.498785
     2  C    0.052488
     3  C    0.079215
     4  C   -0.269567
     5  C   -0.382341
     6  C    0.367433
     7  O   -0.324934
     8  C   -0.136187
     9  O   -0.423675
    10  H    0.153058
    11  H    0.152963
    12  H    0.152024
    13  H    0.139158
    14  H    0.131514
    15  H    0.125031
    16  H    0.141084
    17  H    0.120426
    18  H    0.127904
    19  H    0.293190
 Sum of Mulliken charges =   0.00000

 Dipole moment (field-independent basis, Debye):
    X=             -3.1444    Y=              0.6643    Z=              0.4970  Tot=              3.2520
 Quadrupole moment (field-independent basis, Debye-Ang):
   XX=            -53.3527   YY=            -55.9313   ZZ=            -51.8027
   XY=              4.7327   XZ=              1.5007   YZ=              0.8732

  Exact polarizability: 105.009  12.062  81.027   0.914   0.740  56.747
 Approx polarizability: 150.713  26.701 113.132   1.725   2.412  87.718

                      1                      2                      3
                      A                      A                      A
 Frequencies --     20.5883                27.0548                77.3925
 Red. masses --      4.8063                 1.0186                 3.9639
 Frc consts  --      0.0012                 0.0004                 0.0140
 IR Inten    --      0.7767                 0.0166                 0.5573

                      4                      5                      6
                      A                      A                      A
 Frequencies --    110.7265               144.6880               207.5536
 Red. masses --      2.8735                 2.8366                 1.2886
 Frc consts  --      0.0208                 0.0350                 0.0327
 IR Inten    --      2.1709                 6.8919                 0.9374

                      7                      8                      9
                      A                      A                      A
 Frequencies --    214.0398               288.3571               308.0586
 Red. masses --      2.5668                 3.2119                 3.3715
 Frc consts  --      0.0693                 0.1574                 0.1885
 IR Inten    --      1.1263                 2.9668                 1.1899

                     10                     11                     12
                      A                      A                      A
 Frequencies --    328.8450               395.4673               402.7183
 Red. masses --      3.9928                 5.1866                 1.4917
 Frc consts  --      0.2544                 0.4779                 0.1425
 IR Inten    --     25.5705                 8.7314                31.5532

                     13                     14                     15
                      A                      A                      A
 Frequencies --    451.5650               484.3753               541.9922
 Red. masses --      3.7847                 2.5153                 4.7010
 Frc consts  --      0.4547                 0.3477                 0.8136
 IR Inten    --     14.4697                27.4616                 4.4173

                     16                     17                     18
                      A                      A                      A
 Frequencies --    657.7814               744.1362               838.9604
 Red. masses --      2.7760                 3.3659                 3.5519
 Frc consts  --      0.7077                 1.0981                 1.4730
 IR Inten    --      4.6762                 0.5913                 1.1494

                     19                     20                     21
                      A                      A                      A
 Frequencies --    944.5896               970.3175              1048.8365
 Red. masses --      1.3984                 3.6072                 1.5559
 Frc consts  --      0.7351                 2.0010                 1.0084
 IR Inten    --      1.0178                23.7768                22.6299

                     22                     23                     24
                      A                      A                      A
 Frequencies --   1052.9926              1059.6397              1082.7777
 Red. masses --      1.4059                 1.8358                 2.0037
 Frc consts  --      0.9184                 1.2145                 1.3841
 IR Inten    --      0.1160                59.0916                 0.4780

                     25                     26                     27
                      A                      A                      A
 Frequencies --   1125.2588              1165.9790              1186.6807
 Red. masses --      3.9750                 2.3319                 2.0062
 Frc consts  --      2.9655                 1.8678                 1.6645
 IR Inten    --    115.5168                 4.3656                 1.3129

                     28                     29                     30
                      A                      A                      A
 Frequencies --   1236.2417              1282.9523              1306.0048
 Red. masses --      1.1722                 1.3813                 1.6769
 Frc consts  --      1.0555                 1.3396                 1.6852
 IR Inten    --      1.1128                 1.7798                52.8832

                     31                     32                     33
                      A                      A                      A
 Frequencies --   1315.7592              1403.8408              1415.2133
 Red. masses --      1.6577                 1.2023                 1.2458
 Frc consts  --      1.6909                 1.3961                 1.4701
 IR Inten    --     42.5595                 3.7467                 4.9484

                     34                     35                     36
                      A                      A                      A
 Frequencies --   1449.0573              1477.1432              1478.0388
 Red. masses --      1.3121                 1.0412                 1.0396
 Frc consts  --      1.6233                 1.3385                 1.3381
 IR Inten    --     75.4923                 7.4421                 7.0194

                     37                     38                     39
                      A                      A                      A
 Frequencies --   1480.5636              1490.3391              1497.5881
 Red. masses --      1.0829                 1.0455                 1.0512
 Frc consts  --      1.3986                 1.3682                 1.3890
 IR Inten    --     15.3340                 5.8911                 1.9347

                     40                     41                     42
                      A                      A                      A
 Frequencies --   1792.4496              2369.1869              2971.2335
 Red. masses --     11.3516                11.8459                 1.0791
 Frc consts  --     21.4883                39.1758                 5.6130
 IR Inten    --    143.6003                 3.5069                13.1953

                     43                     44                     45
                      A                      A                      A
 Frequencies --   2985.2639              3001.7027              3029.6375
 Red. masses --      1.0580                 1.0999                 1.0348
 Frc consts  --      5.5551                 5.8389                 5.5959
 IR Inten    --     31.7915                20.6617                26.8158

                     46                     47                     48
                      A                      A                      A
 Frequencies --   3058.1126              3091.6232              3092.0689
 Red. masses --      1.0340                 1.1002                 1.1003
 Frc consts  --      5.6973                 6.1960                 6.1979
 IR Inten    --     17.0852                 8.0162                 8.2730

                     49                     50                     51
                      A                      A                      A
 Frequencies --   3132.5710              3149.3655              3688.5667
 Red. masses --      1.1027                 1.1029                 1.0644
 Frc consts  --      6.3756                 6.4454                 8.5326
 IR Inten    --     15.6747                 9.9083                58.1126

 - Thermochemistry -
 -------------------
 Temperature   298.150 Kelvin.  Pressure   1.00000 Atm.
 Atom     1 has atomic number  6 and mass  12.00000

 Molecular mass:   126.06808 amu.
 Principal axes and moments of inertia in atomic units:
                           1         2         3
     Eigenvalues --   823.225571850.414992581.60719
           X            0.99963   0.02669   0.00541
           Y           -0.02668   0.99964  -0.00172
           Z           -0.00545   0.00157   0.99998
 This molecule is an asymmetric top.
 Rotational symmetry number  1.
 Warning -- assumption of classical behavior for rotation
           may cause significant error
 Rotational temperatures (Kelvin)      0.10521     0.04681     0.03355
 Rotational constants (GHZ):           2.19228     0.97532     0.69908
 Zero-point vibrational energy     407184.3 (Joules/Mol)
                                   97.31938 (Kcal/Mol)
 Warning -- explicit consideration of  15 degrees of freedom as
           vibrations may cause significant error
 Vibrational temperatures:     29.62    38.93   111.35   159.31   208.17
          (Kelvin)            298.62   307.96   414.88   443.23   473.13
                              568.99   579.42   649.70   696.91   779.80
                              946.40  1070.64  1207.08  1359.05  1396.07
                             1509.04  1515.02  1524.58  1557.87  1618.99
                             1677.58  1707.37  1778.67  1845.88  1879.05
                             1893.08  2019.81  2036.17  2084.87  2125.28
                             2126.57  2130.20  2144.26  2154.69  2578.93
                             3408.73  4274.94  4295.12  4318.78  4358.97
                             4399.94  4448.15  4448.79  4507.07  4531.23
                             5307.02

 Zero-point correction=                           0.155088 (Hartree/Particle)
 Thermal correction to Energy=                    0.166134
 Thermal correction to Enthalpy=                  0.167079
 Thermal correction to Gibbs Free Energy=         0.116431
 Sum of electronic and zero-point Energies=           -423.021625
 Sum of electronic and thermal Energies=              -423.010579
 Sum of electronic and thermal Enthalpies=            -423.009635
 Sum of electronic and thermal Free Energies=         -423.060282

                     E (Thermal)             CV                S
                      KCal/Mol        Cal/Mol-Kelvin    Cal/Mol-Kelvin
 Total                  104.251             37.516            106.597
 Electronic               0.000              0.000              0.000
 Translational            0.889              2.981             40.409
 Rotational               0.889              2.981             29.754
 Vibrational            102.473             31.554             36.434
 Vibration     1          0.593              1.986              6.577
 Vibration     2          0.593              1.984              6.034
 Vibration     3          0.599              1.964              3.956
 Vibration     4          0.607              1.941              3.256
 Vibration     5          0.616              1.908              2.741
 Vibration     6          0.641              1.829              2.065
 Vibration     7          0.644              1.820              2.009
 Vibration     8          0.685              1.695              1.484
 Vibration     9          0.698              1.658              1.373
 Vibration    10          0.712              1.618              1.266
 Vibration    11          0.762              1.480              0.979
 Vibration    12          0.768              1.464              0.953
 Vibration    13          0.810              1.357              0.791
 Vibration    14          0.840              1.285              0.698
 Vibration    15          0.897              1.157              0.561

 Normal termination of Gaussian 09 at Tue Jan 28 08:43:26 2020.
