 Gaussian 09, Revision D.01,
 Gaussian 09:  ES64L-G09RevD.01 24-Apr-2013

 -----------------------------
 # b3lyp 6-31G(2df,p) opt Freq
 -----------------------------

 -----
 titel
 -----
 Symbolic Z-matrix:
 Charge =  0 Multiplicity = 1

 SCF Done:  E(RB3LYP) =  -423.100060576     A.U. after   13 cycles
 Optimization completed.
    -- Stationary point found.
 Normal termination of Gaussian 09 at Tue Jan 28 12:47:59 2020.

 ----------------------------------------------------------------------
 #N Geom=AllCheck Guess=TCheck SCRF=Check GenChk RB3LYP/6-31G(2df,p) Fr
 eq
 ----------------------------------------------------------------------

 Structure from the checkpoint file:  "/scratch/puck/g09_dc5c1b2d-c0a5-4f6b-adf4-2c0f73da10f2/Gau-10608.chk"
 -----
 titel
 -----
 Charge =  0 Multiplicity = 1

                         Standard orientation:
 ---------------------------------------------------------------------
 Center     Atomic      Atomic             Coordinates (Angstroms)
 Number     Number       Type             X           Y           Z
 ---------------------------------------------------------------------
      1          6           0        3.018109   -0.660018    0.015201
      2          8           0        2.153622    0.368184   -0.427708
      3          6           0        0.807751    0.027441   -0.316825
      4          6           0       -0.088723    1.219533   -0.235218
      5          6           0        0.159016    0.333643    1.010922
      6          6           0       -1.326313   -0.069515    0.990171
      7          8           0       -1.673476   -1.251908    0.217804
      8          6           0       -2.051399   -0.442223   -0.928194
      9          6           0       -1.588056    0.847742   -0.219495
     10          1           0        2.879534   -1.582604   -0.567959
     11          1           0        4.040401   -0.301833   -0.125602
     12          1           0        2.860537   -0.895985    1.077165
     13          1           0        0.527007   -0.875313   -0.858145
     14          1           0        0.311563    2.201318   -0.454967
     15          1           0        0.759116    0.534153    1.890284
     16          1           0       -1.867862   -0.011361    1.937298
     17          1           0       -1.525196   -0.738758   -1.842727
     18          1           0       -3.133377   -0.490209   -1.102180
     19          1           0       -2.275210    1.690754   -0.173300
 ---------------------------------------------------------------------

 SCF Done:  E(RB3LYP) =  -423.100060576     A.U. after    1 cycles

 The electronic state is 1-A.
 Alpha  occ. eigenvalues --  -19.14605 -19.13060 -10.23590 -10.23518 -10.22869
 Alpha  occ. eigenvalues --  -10.22445 -10.19620 -10.19548 -10.18894  -1.04360
 Alpha  occ. eigenvalues --   -1.03301  -0.87801  -0.73545  -0.70419  -0.66771
 Alpha  occ. eigenvalues --   -0.61195  -0.57663  -0.53346  -0.51746  -0.49754
 Alpha  occ. eigenvalues --   -0.46892  -0.45375  -0.44500  -0.43947  -0.42308
 Alpha  occ. eigenvalues --   -0.40029  -0.36559  -0.34959  -0.32806  -0.30746
 Alpha  occ. eigenvalues --   -0.29366  -0.26088  -0.24680  -0.23932
 Alpha virt. eigenvalues --    0.06313   0.08717   0.09887   0.10865   0.12000
 Alpha virt. eigenvalues --    0.13279   0.14753   0.15905   0.16050   0.16879
 Alpha virt. eigenvalues --    0.17155   0.18210   0.19409   0.19915   0.21635

 Mulliken charges:
               1
     1  C   -0.240031
     2  O   -0.256152
     3  C    0.109656
     4  C   -0.120331
     5  C   -0.109288
     6  C    0.098980
     7  O   -0.302702
     8  C   -0.108293
     9  C   -0.083028
    10  H    0.110587
    11  H    0.127065
    12  H    0.109922
    13  H    0.102834
    14  H    0.099943
    15  H    0.089236
    16  H    0.080703
    17  H    0.104787
    18  H    0.102666
    19  H    0.083445
 Sum of Mulliken charges =   0.00000

 Dipole moment (field-independent basis, Debye):
    X=             -0.0387    Y=              0.7879    Z=              0.2250  Tot=              0.8203
 Quadrupole moment (field-independent basis, Debye-Ang):
   XX=            -50.1733   YY=            -55.3458   ZZ=            -51.4155
   XY=             -5.6952   XZ=              2.3223   YZ=              1.5021

  Exact polarizability:  90.080  -1.930  65.603   2.574   1.214  69.057
 Approx polarizability: 111.888  -0.529 102.842   2.367  -1.850 107.511

                      1                      2                      3
                      A                      A                      A
 Frequencies --     95.3626               152.9325               176.4405
 Red. masses --      2.7266                 3.3421                 1.3037
 Frc consts  --      0.0146                 0.0461                 0.0239
 IR Inten    --      3.6658                 3.9609                 0.1532

                      4                      5                      6
                      A                      A                      A
 Frequencies --    210.4664               250.2500               383.9048
 Red. masses --      2.9746                 2.6117                 4.4432
 Frc consts  --      0.0776                 0.0964                 0.3858
 IR Inten    --      2.7616                 1.4567                 3.3030

                      7                      8                      9
                      A                      A                      A
 Frequencies --    429.1323               440.8836               561.9444
 Red. masses --      2.4527                 3.3178                 4.6619
 Frc consts  --      0.2661                 0.3800                 0.8674
 IR Inten    --      1.0816                 0.1187                11.7981

                     10                     11                     12
                      A                      A                      A
 Frequencies --    694.0941               785.0663               797.2062
 Red. masses --      4.1112                 2.5403                 2.1431
 Frc consts  --      1.1669                 0.9224                 0.8025
 IR Inten    --      4.6599                 1.1944                 0.8271

                     13                     14                     15
                      A                      A                      A
 Frequencies --    844.3075               862.4788               882.6308
 Red. masses --      2.5082                 1.4766                 2.4162
 Frc consts  --      1.0534                 0.6472                 1.1090
 IR Inten    --      4.3573                15.1907                 7.4884

                     16                     17                     18
                      A                      A                      A
 Frequencies --    928.3276               965.5073               976.5020
 Red. masses --      3.3946                 2.5335                 2.1061
 Frc consts  --      1.7236                 1.3915                 1.1832
 IR Inten    --     51.2990                10.3938                 6.0998

                     19                     20                     21
                      A                      A                      A
 Frequencies --    985.2585               999.7036              1025.7964
 Red. masses --      4.2919                 1.5433                 2.8111
 Frc consts  --      2.4547                 0.9087                 1.7428
 IR Inten    --     72.4564                 1.4769                13.5805

                     22                     23                     24
                      A                      A                      A
 Frequencies --   1056.7836              1072.8697              1100.4973
 Red. masses --      2.0644                 2.1986                 1.4401
 Frc consts  --      1.3584                 1.4911                 1.0276
 IR Inten    --     14.9809                 8.3742                 4.6556

                     25                     26                     27
                      A                      A                      A
 Frequencies --   1146.3883              1158.6589              1166.2021
 Red. masses --      1.7130                 1.6657                 1.7414
 Frc consts  --      1.3264                 1.3175                 1.3954
 IR Inten    --     23.0633                15.4015                34.1793

                     28                     29                     30
                      A                      A                      A
 Frequencies --   1183.8426              1193.0304              1216.5927
 Red. masses --      1.2938                 1.7017                 1.8006
 Frc consts  --      1.0684                 1.4271                 1.5702
 IR Inten    --      4.4839                38.8931                 1.5523

                     31                     32                     33
                      A                      A                      A
 Frequencies --   1238.9016              1258.3464              1283.3941
 Red. masses --      2.0015                 1.6473                 1.4935
 Frc consts  --      1.8100                 1.5368                 1.4494
 IR Inten    --     52.8609                 2.5900                22.6024

                     34                     35                     36
                      A                      A                      A
 Frequencies --   1295.7927              1330.7671              1350.1441
 Red. masses --      1.6089                 1.4202                 1.4434
 Frc consts  --      1.5916                 1.4819                 1.5502
 IR Inten    --      1.1945                14.3523                 3.2425

                     37                     38                     39
                      A                      A                      A
 Frequencies --   1419.7050              1484.1038              1486.1022
 Red. masses --      2.0281                 1.1696                 1.0806
 Frc consts  --      2.4085                 1.5178                 1.4061
 IR Inten    --     44.7612                 1.6082                 5.1546

                     40                     41                     42
                      A                      A                      A
 Frequencies --   1508.8178              1520.5859              2986.7508
 Red. masses --      1.0643                 1.0980                 1.0359
 Frc consts  --      1.4275                 1.4958                 5.4444
 IR Inten    --      6.3141                 0.5473                55.5145

                     43                     44                     45
                      A                      A                      A
 Frequencies --   3017.5462              3038.0020              3064.3827
 Red. masses --      1.0559                 1.1030                 1.1101
 Frc consts  --      5.6649                 5.9979                 6.1417
 IR Inten    --     72.4128                48.1846                36.2476

                     46                     47                     48
                      A                      A                      A
 Frequencies --   3080.1742              3108.4758              3120.5234
 Red. masses --      1.0892                 1.0867                 1.0979
 Frc consts  --      6.0885                 6.1868                 6.2988
 IR Inten    --     47.7071                19.9226                30.5592

                     49                     50                     51
                      A                      A                      A
 Frequencies --   3128.1857              3182.8830              3195.8150
 Red. masses --      1.0899                 1.0901                 1.0952
 Frc consts  --      6.2837                 6.5069                 6.5903
 IR Inten    --     30.5399                13.4922                 9.9360

 - Thermochemistry -
 -------------------
 Temperature   298.150 Kelvin.  Pressure   1.00000 Atm.
 Atom     1 has atomic number  6 and mass  12.00000

 Molecular mass:   126.06808 amu.
 Principal axes and moments of inertia in atomic units:
                           1         2         3
     Eigenvalues --   465.792581601.128771676.04773
           X            0.99951  -0.02910   0.01131
           Y            0.02776   0.99418   0.10411
           Z           -0.01427  -0.10374   0.99450
 This molecule is an asymmetric top.
 Rotational symmetry number  1.
 Warning -- assumption of classical behavior for rotation
           may cause significant error
 Rotational temperatures (Kelvin)      0.18595     0.05410     0.05168
 Rotational constants (GHZ):           3.87456     1.12717     1.07678
 Zero-point vibrational energy     417750.7 (Joules/Mol)
                                   99.84481 (Kcal/Mol)
 Warning -- explicit consideration of   9 degrees of freedom as
           vibrations may cause significant error
 Vibrational temperatures:    137.21   220.04   253.86   302.81   360.05
          (Kelvin)            552.35   617.42   634.33   808.51   998.65
                             1129.53  1147.00  1214.77  1240.91  1269.91
                             1335.65  1389.15  1404.97  1417.57  1438.35
                             1475.89  1520.47  1543.62  1583.37  1649.40
                             1667.05  1677.90  1703.28  1716.50  1750.40
                             1782.50  1810.48  1846.52  1864.35  1914.67
                             1942.55  2042.64  2135.29  2138.17  2170.85
                             2187.78  4297.26  4341.57  4371.00  4408.96
                             4431.68  4472.40  4489.73  4500.76  4579.45
                             4598.06

 Zero-point correction=                           0.159113 (Hartree/Particle)
 Thermal correction to Energy=                    0.167010
 Thermal correction to Enthalpy=                  0.167955
 Thermal correction to Gibbs Free Energy=         0.126559
 Sum of electronic and zero-point Energies=           -422.940948
 Sum of electronic and thermal Energies=              -422.933050
 Sum of electronic and thermal Enthalpies=            -422.932106
 Sum of electronic and thermal Free Energies=         -422.973502

                     E (Thermal)             CV                S
                      KCal/Mol        Cal/Mol-Kelvin    Cal/Mol-Kelvin
 Total                  104.801             30.454             87.124
 Electronic               0.000              0.000              0.000
 Translational            0.889              2.981             40.409
 Rotational               0.889              2.981             28.615
 Vibrational            103.023             24.492             18.101
 Vibration     1          0.603              1.953              3.547
 Vibration     2          0.619              1.899              2.635
 Vibration     3          0.628              1.871              2.366
 Vibration     4          0.643              1.825              2.040
 Vibration     5          0.663              1.762              1.729
 Vibration     6          0.753              1.505              1.024
 Vibration     7          0.790              1.407              0.861
 Vibration     8          0.801              1.381              0.824
 Vibration     9          0.918              1.114              0.520

 Optimization completed.
    -- Stationary point found.
 Normal termination of Gaussian 09 at Tue Jan 28 14:44:46 2020.
