 Gaussian 09, Revision D.01,
 Gaussian 09:  ES64L-G09RevD.01 24-Apr-2013

 -----------------------------
 # b3lyp 6-31G(2df,p) opt Freq
 -----------------------------

 -----
 titel
 -----
 Symbolic Z-matrix:
 Charge =  0 Multiplicity = 1

 SCF Done:  E(RB3LYP) =  -423.172217630     A.U. after   13 cycles
 Optimization completed.
    -- Stationary point found.
 Normal termination of Gaussian 09 at Tue Jan 28 00:05:54 2020.

 ----------------------------------------------------------------------
 #N Geom=AllCheck Guess=TCheck SCRF=Check GenChk RB3LYP/6-31G(2df,p) Fr
 eq
 ----------------------------------------------------------------------

 Structure from the checkpoint file:  "/scratch/puck/g09_e6d0297f-78e8-4081-998f-b6e27ddf45f6/Gau-21168.chk"
 -----
 titel
 -----
 Charge =  0 Multiplicity = 1

                         Standard orientation:
 ---------------------------------------------------------------------
 Center     Atomic      Atomic             Coordinates (Angstroms)
 Number     Number       Type             X           Y           Z
 ---------------------------------------------------------------------
      1          6           0        2.519296   -0.373667    0.288332
      2          6           0        1.260003    0.028598   -0.490941
      3          6           0        0.899962    1.502874   -0.396551
      4          6           0       -0.375565    1.707078   -0.058571
      5          6           0       -1.076779    0.413767    0.192581
      6          8           0       -2.393249    0.250986   -0.221625
      7          6           0       -0.550253   -0.403385    1.368337
      8          6           0       -0.033564   -0.653450   -0.033653
      9          8           0       -0.456107   -1.802327   -0.712631
     10          1           0        2.716215   -1.445764    0.181526
     11          1           0        3.398687    0.163105   -0.081924
     12          1           0        2.416708   -0.151184    1.355097
     13          1           0        1.414632   -0.242170   -1.545973
     14          1           0        1.633744    2.281563   -0.575155
     15          1           0       -0.866457    2.666558    0.053477
     16          1           0       -2.404668   -0.529946   -0.791070
     17          1           0        0.085203    0.066392    2.111530
     18          1           0       -1.242118   -1.151288    1.744468
     19          1           0       -0.215691   -2.577427   -0.195122
 ---------------------------------------------------------------------

 SCF Done:  E(RB3LYP) =  -423.172217630     A.U. after    1 cycles

 The electronic state is 1-A.
 Alpha  occ. eigenvalues --  -19.15734 -19.13534 -10.23510 -10.23273 -10.19291
 Alpha  occ. eigenvalues --  -10.18259 -10.18012 -10.17947 -10.17919  -1.04668
 Alpha  occ. eigenvalues --   -1.01676  -0.87027  -0.77513  -0.73640  -0.64984
 Alpha  occ. eigenvalues --   -0.61365  -0.56992  -0.54133  -0.53379  -0.47372
 Alpha  occ. eigenvalues --   -0.47238  -0.43836  -0.42273  -0.40894  -0.39767
 Alpha  occ. eigenvalues --   -0.38281  -0.37559  -0.35867  -0.35649  -0.33786
 Alpha  occ. eigenvalues --   -0.29449  -0.26459  -0.26166  -0.22294
 Alpha virt. eigenvalues --    0.01506   0.06090   0.10356   0.11315   0.12644
 Alpha virt. eigenvalues --    0.13670   0.14299   0.15246   0.16197   0.17231
 Alpha virt. eigenvalues --    0.17539   0.19968   0.21048   0.22153   0.24415

 Mulliken charges:
               1
     1  C   -0.400933
     2  C   -0.094923
     3  C   -0.079639
     4  C   -0.150668
     5  C    0.363974
     6  O   -0.484891
     7  C   -0.402989
     8  C    0.289167
     9  O   -0.478475
    10  H    0.110809
    11  H    0.115398
    12  H    0.118634
    13  H    0.092297
    14  H    0.095464
    15  H    0.104198
    16  H    0.290567
    17  H    0.112498
    18  H    0.110068
    19  H    0.289443
 Sum of Mulliken charges =   0.00000

 Dipole moment (field-independent basis, Debye):
    X=              1.7604    Y=             -1.3522    Z=              0.5309  Tot=              2.2824
 Quadrupole moment (field-independent basis, Debye-Ang):
   XX=            -56.0214   YY=            -47.7553   ZZ=            -54.0263
   XY=              2.3923   XZ=              0.0274   YZ=             -1.3528

  Exact polarizability:  86.850  -0.526  77.703  -3.758  -1.520  62.898
 Approx polarizability: 128.514  -3.671 112.172  -7.617   0.385  99.112

                      1                      2                      3
                      A                      A                      A
 Frequencies --    130.2697               189.6938               216.5654
 Red. masses --      3.4846                 3.6319                 2.5488
 Frc consts  --      0.0348                 0.0770                 0.0704
 IR Inten    --      1.3906                16.1938                 0.9771

                      4                      5                      6
                      A                      A                      A
 Frequencies --    221.7712               237.3601               279.4032
 Red. masses --      1.2924                 1.1818                 1.4417
 Frc consts  --      0.0374                 0.0392                 0.0663
 IR Inten    --      5.1930                13.0022                60.9790

                      7                      8                      9
                      A                      A                      A
 Frequencies --    319.7252               327.7524               421.2357
 Red. masses --      1.9284                 2.7462                 2.6919
 Frc consts  --      0.1161                 0.1738                 0.2814
 IR Inten    --     26.8715                16.7503                 5.3223

                     10                     11                     12
                      A                      A                      A
 Frequencies --    449.7578               503.7492               576.5884
 Red. masses --      2.5659                 3.7988                 3.4441
 Frc consts  --      0.3058                 0.5680                 0.6746
 IR Inten    --     10.4263                 2.5457                 2.6093

                     13                     14                     15
                      A                      A                      A
 Frequencies --    596.0586               697.2206               737.0875
 Red. masses --      2.9659                 3.9993                 2.7435
 Frc consts  --      0.6209                 1.1455                 0.8782
 IR Inten    --     17.9230                 1.1736                 4.1926

                     16                     17                     18
                      A                      A                      A
 Frequencies --    762.7571               824.8805               862.3464
 Red. masses --      1.9869                 3.2398                 2.2951
 Frc consts  --      0.6811                 1.2988                 1.0056
 IR Inten    --     29.6826                 6.9162                23.3156

                     19                     20                     21
                      A                      A                      A
 Frequencies --    913.7747               922.7524               941.9988
 Red. masses --      1.4641                 2.2432                 1.6421
 Frc consts  --      0.7203                 1.1253                 0.8585
 IR Inten    --      3.5942                10.6345                 4.8660

                     22                     23                     24
                      A                      A                      A
 Frequencies --    968.4800              1017.6038              1040.5596
 Red. masses --      1.4340                 1.6196                 1.4269
 Frc consts  --      0.7925                 0.9881                 0.9103
 IR Inten    --      2.9182                 1.7670                10.7528

                     25                     26                     27
                      A                      A                      A
 Frequencies --   1077.8808              1093.0281              1110.3468
 Red. masses --      1.8357                 1.5664                 1.8958
 Frc consts  --      1.2566                 1.1026                 1.3771
 IR Inten    --     13.7814                 4.9332                19.8107

                     28                     29                     30
                      A                      A                      A
 Frequencies --   1161.1525              1190.6530              1230.1362
 Red. masses --      1.6940                 2.3719                 2.3850
 Frc consts  --      1.3457                 1.9811                 2.1264
 IR Inten    --      6.3959                95.2300                88.8004

                     31                     32                     33
                      A                      A                      A
 Frequencies --   1293.1066              1316.9207              1326.5963
 Red. masses --      1.4381                 2.5181                 1.3924
 Frc consts  --      1.4168                 2.5730                 1.4438
 IR Inten    --     30.4847                 8.8204                20.1503

                     34                     35                     36
                      A                      A                      A
 Frequencies --   1357.8467              1388.0044              1406.5785
 Red. masses --      1.6278                 1.8044                 1.3045
 Frc consts  --      1.7683                 2.0482                 1.5207
 IR Inten    --     56.5430                19.1131                 1.0942

                     37                     38                     39
                      A                      A                      A
 Frequencies --   1419.1511              1464.4898              1496.6904
 Red. masses --      1.9400                 1.5819                 1.0553
 Frc consts  --      2.3021                 1.9990                 1.3928
 IR Inten    --      2.6696                22.1596                 2.9657

                     40                     41                     42
                      A                      A                      A
 Frequencies --   1499.7451              1662.8625              2997.7066
 Red. masses --      1.0490                 6.8142                 1.0818
 Frc consts  --      1.3902                11.1014                 5.7276
 IR Inten    --      5.4734                 2.9670                20.0674

                     43                     44                     45
                      A                      A                      A
 Frequencies --   3031.9425              3098.2234              3105.9028
 Red. masses --      1.0347                 1.1014                 1.1013
 Frc consts  --      5.6043                 6.2289                 6.2594
 IR Inten    --     30.4536                24.2974                26.6645

                     46                     47                     48
                      A                      A                      A
 Frequencies --   3119.1497              3183.9468              3212.0559
 Red. masses --      1.0531                 1.0859                 1.1027
 Frc consts  --      6.0367                 6.4857                 6.7031
 IR Inten    --     10.3615                 6.5022                18.4527

                     49                     50                     51
                      A                      A                      A
 Frequencies --   3215.8842              3756.3219              3810.3489
 Red. masses --      1.1179                 1.0658                 1.0666
 Frc consts  --      6.8119                 8.8602                 9.1242
 IR Inten    --      6.7421                37.8935                26.1104

 - Thermochemistry -
 -------------------
 Temperature   298.150 Kelvin.  Pressure   1.00000 Atm.
 Atom     1 has atomic number  6 and mass  12.00000

 Molecular mass:   126.06808 amu.
 Principal axes and moments of inertia in atomic units:
                           1         2         3
     Eigenvalues --   711.604411096.486701447.92530
           X            0.99998   0.00517   0.00187
           Y           -0.00513   0.99973  -0.02250
           Z           -0.00199   0.02249   0.99975
 This molecule is an asymmetric top.
 Rotational symmetry number  1.
 Warning -- assumption of classical behavior for rotation
           may cause significant error
 Rotational temperatures (Kelvin)      0.12172     0.07899     0.05982
 Rotational constants (GHZ):           2.53616     1.64593     1.24643
 Zero-point vibrational energy     413824.6 (Joules/Mol)
                                   98.90644 (Kcal/Mol)
 Warning -- explicit consideration of  13 degrees of freedom as
           vibrations may cause significant error
 Vibrational temperatures:    187.43   272.93   311.59   319.08   341.51
          (Kelvin)            402.00   460.01   471.56   606.06   647.10
                              724.78   829.58   857.59  1003.14  1060.50
                             1097.44  1186.82  1240.72  1314.72  1327.63
                             1355.32  1393.42  1464.10  1497.13  1550.83
                             1572.62  1597.54  1670.64  1713.08  1769.89
                             1860.49  1894.75  1908.67  1953.64  1997.03
                             2023.75  2041.84  2107.07  2153.40  2157.80
                             2392.49  4313.03  4362.28  4457.65  4468.70
                             4487.76  4580.98  4621.43  4626.93  5404.50
                             5482.24

 Zero-point correction=                           0.157617 (Hartree/Particle)
 Thermal correction to Energy=                    0.166511
 Thermal correction to Enthalpy=                  0.167456
 Thermal correction to Gibbs Free Energy=         0.124892
 Sum of electronic and zero-point Energies=           -423.014600
 Sum of electronic and thermal Energies=              -423.005706
 Sum of electronic and thermal Enthalpies=            -423.004762
 Sum of electronic and thermal Free Energies=         -423.047326

                     E (Thermal)             CV                S
                      KCal/Mol        Cal/Mol-Kelvin    Cal/Mol-Kelvin
 Total                  104.488             34.864             89.583
 Electronic               0.000              0.000              0.000
 Translational            0.889              2.981             40.409
 Rotational               0.889              2.981             28.515
 Vibrational            102.710             28.902             20.660
 Vibration     1          0.612              1.923              2.942
 Vibration     2          0.633              1.854              2.231
 Vibration     3          0.645              1.816              1.988
 Vibration     4          0.648              1.808              1.945
 Vibration     5          0.656              1.783              1.823
 Vibration     6          0.680              1.712              1.537
 Vibration     7          0.706              1.636              1.312
 Vibration     8          0.711              1.620              1.271
 Vibration     9          0.784              1.424              0.888
 Vibration    10          0.809              1.361              0.797
 Vibration    11          0.859              1.242              0.649
 Vibration    12          0.933              1.082              0.492
 Vibration    13          0.954              1.040              0.456

 Optimization completed.
    -- Stationary point found.
 Normal termination of Gaussian 09 at Tue Jan 28 00:56:50 2020.
