 Gaussian 09, Revision D.01,
 Gaussian 09:  ES64L-G09RevD.01 24-Apr-2013

 -----------------------------
 # b3lyp 6-31G(2df,p) opt Freq
 -----------------------------

 -----
 titel
 -----
 Symbolic Z-matrix:
 Charge =  0 Multiplicity = 1

 SCF Done:  E(RB3LYP) =  -423.234593614     A.U. after   14 cycles
 Optimization completed.
    -- Stationary point found.
 Normal termination of Gaussian 09 at Tue Jan 28 03:55:12 2020.

 ----------------------------------------------------------------------
 #N Geom=AllCheck Guess=TCheck SCRF=Check GenChk RB3LYP/6-31G(2df,p) Fr
 eq
 ----------------------------------------------------------------------

 Structure from the checkpoint file:  "/scratch/puck/g09_3cc807a4-4224-42e6-bddd-b3c1a44ec664/Gau-43617.chk"
 -----
 titel
 -----
 Charge =  0 Multiplicity = 1

                         Standard orientation:
 ---------------------------------------------------------------------
 Center     Atomic      Atomic             Coordinates (Angstroms)
 Number     Number       Type             X           Y           Z
 ---------------------------------------------------------------------
      1          6           0        2.940390    0.291495    0.137890
      2          6           0        1.485898    0.074175   -0.290395
      3          6           0        0.982273   -1.329494    0.078906
      4          6           0       -0.456583   -1.578302   -0.408269
      5          6           0       -1.425538   -0.507120    0.060932
      6          8           0       -2.534641   -0.729330    0.476286
      7          6           0       -0.899216    0.952309   -0.038299
      8          8           0       -1.635174    1.842633   -0.382143
      9          6           0        0.561546    1.146033    0.326174
     10          1           0        3.602441   -0.444428   -0.329434
     11          1           0        3.292704    1.288302   -0.145217
     12          1           0        3.047291    0.196149    1.224732
     13          1           0        1.433036    0.174210   -1.384466
     14          1           0        1.644884   -2.089683   -0.348448
     15          1           0        1.029348   -1.454771    1.169321
     16          1           0       -0.468971   -1.551767   -1.508756
     17          1           0       -0.842110   -2.554965   -0.103902
     18          1           0        0.856950    2.161787    0.047963
     19          1           0        0.630326    1.074172    1.423435
 ---------------------------------------------------------------------

 SCF Done:  E(RB3LYP) =  -423.234593614     A.U. after    1 cycles

 The electronic state is 1-A.
 Alpha  occ. eigenvalues --  -19.14635 -19.14621 -10.27770 -10.27748 -10.21356
 Alpha  occ. eigenvalues --  -10.20580 -10.20509 -10.20308 -10.19109  -1.06556
 Alpha  occ. eigenvalues --   -1.04164  -0.84949  -0.77174  -0.73886  -0.67596
 Alpha  occ. eigenvalues --   -0.62223  -0.59246  -0.52234  -0.48201  -0.47582
 Alpha  occ. eigenvalues --   -0.46018  -0.45746  -0.44858  -0.42311  -0.41855
 Alpha  occ. eigenvalues --   -0.39876  -0.39719  -0.38071  -0.36601  -0.35289
 Alpha  occ. eigenvalues --   -0.34228  -0.33911  -0.28978  -0.23164
 Alpha virt. eigenvalues --   -0.06889   0.01416   0.08316   0.09362   0.10779
 Alpha virt. eigenvalues --    0.12935   0.13747   0.14439   0.15195   0.16381
 Alpha virt. eigenvalues --    0.16590   0.17184   0.19157   0.20681   0.23336

 Mulliken charges:
               1
     1  C   -0.404363
     2  C    0.019842
     3  C   -0.207442
     4  C   -0.326812
     5  C    0.316451
     6  O   -0.280389
     7  C    0.298778
     8  O   -0.278808
     9  C   -0.309824
    10  H    0.118539
    11  H    0.121589
    12  H    0.119066
    13  H    0.085525
    14  H    0.108502
    15  H    0.107857
    16  H    0.131526
    17  H    0.128218
    18  H    0.125129
    19  H    0.126617
 Sum of Mulliken charges =   0.00000

 Dipole moment (field-independent basis, Debye):
    X=              4.4959    Y=             -1.5647    Z=             -0.2285  Tot=              4.7659
 Quadrupole moment (field-independent basis, Debye-Ang):
   XX=            -63.3097   YY=            -55.5586   ZZ=            -51.4544
   XY=              2.3376   XZ=              0.9494   YZ=              2.3108

  Exact polarizability:  89.629  -0.219  78.798  -0.536  -0.438  60.497
 Approx polarizability: 124.194  -4.436 113.925  -2.857  -4.587  98.952

                      1                      2                      3
                      A                      A                      A
 Frequencies --     52.9026                98.8455               202.4530
 Red. masses --      5.5523                 3.0987                 2.2024
 Frc consts  --      0.0092                 0.0178                 0.0532
 IR Inten    --      0.4725                 3.3350                 0.3866

                      4                      5                      6
                      A                      A                      A
 Frequencies --    233.8569               267.8421               299.8133
 Red. masses --      1.1097                 3.1707                 2.8404
 Frc consts  --      0.0358                 0.1340                 0.1504
 IR Inten    --      0.1433                 4.7760                 0.6145

                      7                      8                      9
                      A                      A                      A
 Frequencies --    336.0247               378.9288               400.7852
 Red. masses --      8.9677                 3.5451                 2.7840
 Frc consts  --      0.5966                 0.2999                 0.2635
 IR Inten    --      3.4115                 0.9921                 3.4166

                     10                     11                     12
                      A                      A                      A
 Frequencies --    450.0283               531.5029               646.8618
 Red. masses --      2.4353                 2.7575                 4.5161
 Frc consts  --      0.2906                 0.4590                 1.1134
 IR Inten    --      3.1150                 8.6087                 1.9431

                     13                     14                     15
                      A                      A                      A
 Frequencies --    659.9682               720.2271               803.7389
 Red. masses --      2.7293                 3.4255                 2.1442
 Frc consts  --      0.7004                 1.0469                 0.8161
 IR Inten    --      1.7933                 5.9199                 1.3439

                     16                     17                     18
                      A                      A                      A
 Frequencies --    869.2004               889.5618               939.0331
 Red. masses --      1.6476                 2.3664                 1.7721
 Frc consts  --      0.7334                 1.1033                 0.9206
 IR Inten    --      2.3018                10.4368                 2.7927

                     19                     20                     21
                      A                      A                      A
 Frequencies --    964.9270              1012.6518              1041.2741
 Red. masses --      1.5112                 1.7506                 2.4680
 Frc consts  --      0.8290                 1.0577                 1.5766
 IR Inten    --      1.6507                 9.6464                20.3311

                     22                     23                     24
                      A                      A                      A
 Frequencies --   1090.5114              1101.9833              1132.0593
 Red. masses --      1.7297                 2.1396                 2.4079
 Frc consts  --      1.2120                 1.5308                 1.8181
 IR Inten    --      1.8568                 9.1852                14.1313

                     25                     26                     27
                      A                      A                      A
 Frequencies --   1141.0078              1213.1884              1264.2619
 Red. masses --      1.8824                 2.2877                 1.3904
 Frc consts  --      1.4439                 1.9838                 1.3094
 IR Inten    --     25.8237                16.3099                 3.3862

                     28                     29                     30
                      A                      A                      A
 Frequencies --   1268.4577              1294.8031              1325.0277
 Red. masses --      1.7458                 1.3857                 1.3174
 Frc consts  --      1.6550                 1.3687                 1.3627
 IR Inten    --     22.3462                 2.7773                 2.3633

                     31                     32                     33
                      A                      A                      A
 Frequencies --   1342.5612              1365.8863              1388.7504
 Red. masses --      1.4050                 1.3572                 1.5724
 Frc consts  --      1.4921                 1.4918                 1.7867
 IR Inten    --      3.6952                 9.5165                 0.3403

                     34                     35                     36
                      A                      A                      A
 Frequencies --   1416.4001              1456.6032              1459.7236
 Red. masses --      1.2281                 1.0906                 1.0867
 Frc consts  --      1.4517                 1.3633                 1.3643
 IR Inten    --      1.5541                 8.9787                 7.0436

                     37                     38                     39
                      A                      A                      A
 Frequencies --   1494.7309              1498.0189              1500.4890
 Red. masses --      1.0804                 1.0454                 1.0631
 Frc consts  --      1.4222                 1.3822                 1.4103
 IR Inten    --      0.8304                 6.3183                 5.1605

                     40                     41                     42
                      A                      A                      A
 Frequencies --   1815.0735              1823.4488              2990.2551
 Red. masses --     12.2844                12.4709                 1.0728
 Frc consts  --     23.8448                24.4306                 5.6518
 IR Inten    --    222.0574                62.1019                 1.0963

                     43                     44                     45
                      A                      A                      A
 Frequencies --   3002.8178              3003.3875              3021.6844
 Red. masses --      1.0749                 1.0685                 1.0612
 Frc consts  --      5.7107                 5.6789                 5.7086
 IR Inten    --     13.6976                 4.0878                24.9579

                     46                     47                     48
                      A                      A                      A
 Frequencies --   3030.5472              3070.8753              3091.3270
 Red. masses --      1.0389                 1.0991                 1.0943
 Frc consts  --      5.6216                 6.1069                 6.1613
 IR Inten    --     37.5308                22.2111                 8.0329

                     49                     50                     51
                      A                      A                      A
 Frequencies --   3098.0834              3099.1067              3106.3828
 Red. masses --      1.0998                 1.0937                 1.1017
 Frc consts  --      6.2192                 6.1889                 6.2634
 IR Inten    --     33.6643                17.5819                26.2941

 - Thermochemistry -
 -------------------
 Temperature   298.150 Kelvin.  Pressure   1.00000 Atm.
 Atom     1 has atomic number  6 and mass  12.00000

 Molecular mass:   126.06808 amu.
 Principal axes and moments of inertia in atomic units:
                           1         2         3
     Eigenvalues --   671.250321383.746641912.47629
           X            0.99982   0.01763   0.00721
           Y           -0.01779   0.99961   0.02174
           Z           -0.00683  -0.02186   0.99974
 This molecule is an asymmetric top.
 Rotational symmetry number  1.
 Warning -- assumption of classical behavior for rotation
           may cause significant error
 Rotational temperatures (Kelvin)      0.12903     0.06259     0.04529
 Rotational constants (GHZ):           2.68863     1.30424     0.94367
 Zero-point vibrational energy     416945.7 (Joules/Mol)
                                   99.65242 (Kcal/Mol)
 Warning -- explicit consideration of  11 degrees of freedom as
           vibrations may cause significant error
 Vibrational temperatures:     76.11   142.22   291.28   336.47   385.36
          (Kelvin)            431.36   483.46   545.19   576.64   647.49
                              764.71   930.69   949.55  1036.24  1156.40
                             1250.58  1279.88  1351.06  1388.31  1456.98
                             1498.16  1569.00  1585.51  1628.78  1641.65
                             1745.51  1818.99  1825.03  1862.93  1906.42
                             1931.64  1965.20  1998.10  2037.88  2095.72
                             2100.21  2150.58  2155.31  2158.87  2611.48
                             2623.53  4302.30  4320.38  4321.20  4347.52
                             4360.28  4418.30  4447.72  4457.45  4458.92
                             4469.39

 Zero-point correction=                           0.158806 (Hartree/Particle)
 Thermal correction to Energy=                    0.167573
 Thermal correction to Enthalpy=                  0.168518
 Thermal correction to Gibbs Free Energy=         0.124989
 Sum of electronic and zero-point Energies=           -423.075787
 Sum of electronic and thermal Energies=              -423.067020
 Sum of electronic and thermal Enthalpies=            -423.066076
 Sum of electronic and thermal Free Energies=         -423.109605

                     E (Thermal)             CV                S
                      KCal/Mol        Cal/Mol-Kelvin    Cal/Mol-Kelvin
 Total                  105.154             32.734             91.614
 Electronic               0.000              0.000              0.000
 Translational            0.889              2.981             40.409
 Rotational               0.889              2.981             28.965
 Vibrational            103.376             26.773             22.241
 Vibration     1          0.596              1.976              4.706
 Vibration     2          0.604              1.950              3.477
 Vibration     3          0.639              1.836              2.111
 Vibration     4          0.654              1.789              1.849
 Vibration     5          0.673              1.732              1.610
 Vibration     6          0.692              1.674              1.418
 Vibration     7          0.717              1.604              1.231
 Vibration     8          0.749              1.515              1.043
 Vibration     9          0.767              1.468              0.960
 Vibration    10          0.809              1.361              0.796
 Vibration    11          0.886              1.180              0.584

 Normal termination of Gaussian 09 at Tue Jan 28 04:39:46 2020.
