 Gaussian 09, Revision D.01,
 Gaussian 09:  ES64L-G09RevD.01 24-Apr-2013

 -----------------------------
 # b3lyp 6-31G(2df,p) opt Freq
 -----------------------------

 -----
 titel
 -----
 Symbolic Z-matrix:
 Charge =  0 Multiplicity = 1

 SCF Done:  E(RB3LYP) =  -423.157097126     A.U. after   14 cycles
 Optimization completed.
    -- Stationary point found.
 Normal termination of Gaussian 09 at Tue Jan 28 14:03:25 2020.

 ----------------------------------------------------------------------
 #N Geom=AllCheck Guess=TCheck SCRF=Check GenChk RB3LYP/6-31G(2df,p) Fr
 eq
 ----------------------------------------------------------------------

 Structure from the checkpoint file:  "/scratch/puck/g09_a240a585-40b0-488d-af79-65828e3aee3e/Gau-10201.chk"
 -----
 titel
 -----
 Charge =  0 Multiplicity = 1

                         Standard orientation:
 ---------------------------------------------------------------------
 Center     Atomic      Atomic             Coordinates (Angstroms)
 Number     Number       Type             X           Y           Z
 ---------------------------------------------------------------------
      1          6           0        3.027820    0.062894   -0.003264
      2          6           0        1.671657   -0.265606   -0.637919
      3          6           0        0.575135   -0.487875    0.392211
      4          6           0       -0.134877    0.724757    1.105561
      5          6           0       -1.299214   -0.267805    1.433999
      6          6           0       -0.924480   -0.604801   -0.061447
      7          8           0       -1.447316   -1.569499   -0.883838
      8          6           0       -0.865024    0.918944   -0.231529
      9          8           0       -1.227391    1.764111   -0.993036
     10          1           0        3.800019    0.191361   -0.767507
     11          1           0        2.979968    0.987701    0.581350
     12          1           0        3.354674   -0.737819    0.669357
     13          1           0        1.381763    0.537202   -1.327240
     14          1           0        1.759842   -1.174070   -1.246935
     15          1           0        0.842802   -1.272240    1.108720
     16          1           0        0.307030    1.460261    1.768981
     17          1           0       -1.036162   -1.052870    2.145674
     18          1           0       -2.284613    0.157962    1.630672
     19          1           0       -2.013766   -1.137429   -1.533756
 ---------------------------------------------------------------------

 SCF Done:  E(RB3LYP) =  -423.157097126     A.U. after    1 cycles

 The electronic state is 1-A.
 Alpha  occ. eigenvalues --  -19.16197 -19.14056 -10.27482 -10.25717 -10.21187
 Alpha  occ. eigenvalues --  -10.20976 -10.20640 -10.18718 -10.17952  -1.05875
 Alpha  occ. eigenvalues --   -1.04334  -0.92051  -0.77762  -0.67911  -0.64611
 Alpha  occ. eigenvalues --   -0.63880  -0.59987  -0.55553  -0.49028  -0.47053
 Alpha  occ. eigenvalues --   -0.46190  -0.45289  -0.43643  -0.40710  -0.39507
 Alpha  occ. eigenvalues --   -0.38212  -0.37893  -0.36061  -0.35718  -0.34234
 Alpha  occ. eigenvalues --   -0.33586  -0.32104  -0.27527  -0.24076
 Alpha virt. eigenvalues --    0.00774   0.06846   0.09192   0.11300   0.12512
 Alpha virt. eigenvalues --    0.13372   0.13755   0.14668   0.15614   0.16790
 Alpha virt. eigenvalues --    0.17235   0.18575   0.19331   0.19777   0.21061

 Mulliken charges:
               1
     1  C   -0.380674
     2  C   -0.234295
     3  C   -0.011198
     4  C   -0.194325
     5  C   -0.299234
     6  C    0.269118
     7  O   -0.470055
     8  C    0.377752
     9  O   -0.344375
    10  H    0.117922
    11  H    0.119077
    12  H    0.116374
    13  H    0.114608
    14  H    0.111561
    15  H    0.079440
    16  H    0.101495
    17  H    0.112951
    18  H    0.111598
    19  H    0.302259
 Sum of Mulliken charges =   0.00000

 Dipole moment (field-independent basis, Debye):
    X=              0.6614    Y=             -0.9370    Z=              1.2269  Tot=              1.6795
 Quadrupole moment (field-independent basis, Debye-Ang):
   XX=            -50.8556   YY=            -60.1994   ZZ=            -51.5750
   XY=              1.6518   XZ=             -0.3219   YZ=              2.6086

  Exact polarizability:  82.790  -1.345  70.872   0.505  -1.962  74.116
 Approx polarizability: 108.544  -4.061 114.881   5.681  -7.012 115.040

                      1                      2                      3
                      A                      A                      A
 Frequencies --     71.6686               118.2481               137.1029
 Red. masses --      2.7306                 1.7773                 4.6082
 Frc consts  --      0.0083                 0.0146                 0.0510
 IR Inten    --      0.0106                43.7091                 6.8664

                      4                      5                      6
                      A                      A                      A
 Frequencies --    158.7380               217.3464               232.4607
 Red. masses --      1.6673                 1.3329                 4.0353
 Frc consts  --      0.0248                 0.0371                 0.1285
 IR Inten    --     16.1727                 1.0133                21.5849

                      7                      8                      9
                      A                      A                      A
 Frequencies --    288.3676               334.3938               473.2953
 Red. masses --      2.6629                 2.2967                 3.3970
 Frc consts  --      0.1305                 0.1513                 0.4483
 IR Inten    --      2.7432                 0.9046                 0.4655

                     10                     11                     12
                      A                      A                      A
 Frequencies --    514.4450               525.4980               690.8487
 Red. masses --      3.3496                 2.9779                 3.0382
 Frc consts  --      0.5223                 0.4845                 0.8543
 IR Inten    --      4.0989                 0.4289                 0.6991

                     13                     14                     15
                      A                      A                      A
 Frequencies --    728.4354               756.0745               786.0012
 Red. masses --      4.3083                 3.8269                 4.6094
 Frc consts  --      1.3469                 1.2889                 1.6778
 IR Inten    --      6.9835                 3.5829                55.8216

                     16                     17                     18
                      A                      A                      A
 Frequencies --    794.6464               823.1490               893.1457
 Red. masses --      1.5541                 3.8185                 1.9965
 Frc consts  --      0.5782                 1.5244                 0.9383
 IR Inten    --      7.8196                 1.3374                 5.1532

                     19                     20                     21
                      A                      A                      A
 Frequencies --    932.1533               965.8316               997.1986
 Red. masses --      1.9218                 1.8466                 2.0086
 Frc consts  --      0.9839                 1.0149                 1.1768
 IR Inten    --      3.7612                 0.5587                 0.6730

                     22                     23                     24
                      A                      A                      A
 Frequencies --   1022.1157              1035.5662              1075.0357
 Red. masses --      1.3210                 1.5442                 1.6497
 Frc consts  --      0.8131                 0.9757                 1.1233
 IR Inten    --      0.7749                 4.9002                 4.0241

                     25                     26                     27
                      A                      A                      A
 Frequencies --   1095.1054              1127.5188              1151.6518
 Red. masses --      1.6507                 1.6291                 1.8173
 Frc consts  --      1.1664                 1.2202                 1.4201
 IR Inten    --     20.7992                 9.4751                10.1237

                     28                     29                     30
                      A                      A                      A
 Frequencies --   1171.1495              1193.9268              1213.6710
 Red. masses --      1.9669                 1.8594                 1.9479
 Frc consts  --      1.5895                 1.5617                 1.6905
 IR Inten    --      2.9274                 1.3022                14.0178

                     31                     32                     33
                      A                      A                      A
 Frequencies --   1290.4767              1323.9538              1344.9058
 Red. masses --      1.2702                 1.8776                 1.3217
 Frc consts  --      1.2463                 1.9391                 1.4085
 IR Inten    --     21.9899               124.5646                 7.6529

                     34                     35                     36
                      A                      A                      A
 Frequencies --   1392.4325              1411.7324              1422.8835
 Red. masses --      2.1894                 1.2845                 1.6054
 Frc consts  --      2.5010                 1.5083                 1.9150
 IR Inten    --     20.3004                 6.9614                14.2673

                     37                     38                     39
                      A                      A                      A
 Frequencies --   1486.7661              1498.8447              1506.6712
 Red. masses --      1.0569                 1.0401                 1.0774
 Frc consts  --      1.3764                 1.3767                 1.4409
 IR Inten    --      1.3624                 5.8824                 4.0717

                     40                     41                     42
                      A                      A                      A
 Frequencies --   1513.6564              1907.1633              3025.5001
 Red. masses --      1.1666                12.4610                 1.0594
 Frc consts  --      1.5748                26.7041                 5.7133
 IR Inten    --      7.0340               325.9149                13.2500

                     43                     44                     45
                      A                      A                      A
 Frequencies --   3032.5559              3047.5272              3062.9265
 Red. masses --      1.0361                 1.0879                 1.0977
 Frc consts  --      5.6140                 5.9531                 6.0674
 IR Inten    --     26.6888                 9.5883                18.6051

                     46                     47                     48
                      A                      A                      A
 Frequencies --   3069.2142              3100.0515              3107.1827
 Red. masses --      1.0535                 1.1020                 1.1012
 Frc consts  --      5.8470                 6.2395                 6.2639
 IR Inten    --     27.3857                39.5527                31.2599

                     49                     50                     51
                      A                      A                      A
 Frequencies --   3143.8338              3185.5992              3797.0141
 Red. masses --      1.1129                 1.0943                 1.0661
 Frc consts  --      6.4809                 6.5431                 9.0562
 IR Inten    --     20.4373                 9.5212                46.1557

 - Thermochemistry -
 -------------------
 Temperature   298.150 Kelvin.  Pressure   1.00000 Atm.
 Atom     1 has atomic number  6 and mass  12.00000

 Molecular mass:   126.06808 amu.
 Principal axes and moments of inertia in atomic units:
                           1         2         3
     Eigenvalues --   777.485111389.267241498.15643
           X            0.99971   0.01345  -0.01973
           Y           -0.01247   0.99872   0.04907
           Z            0.02037  -0.04881   0.99860
 This molecule is an asymmetric top.
 Rotational symmetry number  1.
 Warning -- assumption of classical behavior for rotation
           may cause significant error
 Rotational temperatures (Kelvin)      0.11140     0.06234     0.05781
 Rotational constants (GHZ):           2.32126     1.29906     1.20464
 Zero-point vibrational energy     413882.1 (Joules/Mol)
                                   98.92019 (Kcal/Mol)
 Warning -- explicit consideration of  11 degrees of freedom as
           vibrations may cause significant error
 Vibrational temperatures:    103.11   170.13   197.26   228.39   312.71
          (Kelvin)            334.46   414.90   481.12   680.97   740.17
                              756.07   993.98  1048.05  1087.82  1130.88
                             1143.32  1184.33  1285.04  1341.16  1389.61
                             1434.74  1470.59  1489.95  1546.73  1575.61
                             1622.25  1656.97  1685.02  1717.79  1746.20
                             1856.71  1904.87  1935.02  2003.40  2031.17
                             2047.21  2139.12  2156.50  2167.76  2177.81
                             2743.98  4353.01  4363.17  4384.71  4406.86
                             4415.91  4460.28  4470.54  4523.27  4583.36
                             5463.05

 Zero-point correction=                           0.157639 (Hartree/Particle)
 Thermal correction to Energy=                    0.166794
 Thermal correction to Enthalpy=                  0.167738
 Thermal correction to Gibbs Free Energy=         0.123516
 Sum of electronic and zero-point Energies=           -422.999458
 Sum of electronic and thermal Energies=              -422.990303
 Sum of electronic and thermal Enthalpies=            -422.989359
 Sum of electronic and thermal Free Energies=         -423.033581

                     E (Thermal)             CV                S
                      KCal/Mol        Cal/Mol-Kelvin    Cal/Mol-Kelvin
 Total                  104.665             33.807             93.073
 Electronic               0.000              0.000              0.000
 Translational            0.889              2.981             40.409
 Rotational               0.889              2.981             28.872
 Vibrational            102.887             27.845             23.792
 Vibration     1          0.598              1.968              4.107
 Vibration     2          0.608              1.934              3.129
 Vibration     3          0.614              1.916              2.844
 Vibration     4          0.621              1.893              2.565
 Vibration     5          0.646              1.815              1.981
 Vibration     6          0.653              1.791              1.860
 Vibration     7          0.685              1.695              1.484
 Vibration     8          0.716              1.607              1.239
 Vibration     9          0.830              1.309              0.728
 Vibration    10          0.869              1.218              0.623
 Vibration    11          0.880              1.194              0.597

 Normal termination of Gaussian 09 at Tue Jan 28 14:52:20 2020.
