 Gaussian 09, Revision D.01,
 Gaussian 09:  ES64L-G09RevD.01 24-Apr-2013

 -----------------------------
 # b3lyp 6-31G(2df,p) opt Freq
 -----------------------------

 -----
 titel
 -----
 Symbolic Z-matrix:
 Charge =  0 Multiplicity = 1

 SCF Done:  E(RB3LYP) =  -423.173676211     A.U. after   14 cycles
 Optimization completed.
    -- Stationary point found.
 Normal termination of Gaussian 09 at Mon Jan 27 14:08:13 2020.

 ----------------------------------------------------------------------
 #N Geom=AllCheck Guess=TCheck SCRF=Check GenChk RB3LYP/6-31G(2df,p) Fr
 eq
 ----------------------------------------------------------------------

 Structure from the checkpoint file:  "/scratch/puck/g09_de103a60-bd35-40aa-8a5e-d0372a804d79/Gau-41178.chk"
 -----
 titel
 -----
 Charge =  0 Multiplicity = 1

                         Standard orientation:
 ---------------------------------------------------------------------
 Center     Atomic      Atomic             Coordinates (Angstroms)
 Number     Number       Type             X           Y           Z
 ---------------------------------------------------------------------
      1          6           0        2.765336   -0.159308    1.035095
      2          6           0        1.713329    0.132959   -0.017420
      3          8           0        1.774205    1.084556   -0.761082
      4          6           0        0.554042   -0.828181   -0.060746
      5          8           0       -0.148962   -0.934277   -1.305232
      6          6           0       -0.825368   -0.314374   -0.245669
      7          6           0       -2.111403   -0.819906    0.415117
      8          6           0       -2.433074    0.665036    0.766627
      9          6           0       -1.322688    1.130880   -0.225041
     10          1           0        3.495757    0.649568    1.063475
     11          1           0        2.303302   -0.281160    2.021806
     12          1           0        3.272435   -1.103857    0.804599
     13          1           0        0.683994   -1.771871    0.470120
     14          1           0       -2.796930   -1.231721   -0.331498
     15          1           0       -2.015112   -1.533384    1.236803
     16          1           0       -3.448440    1.003506    0.556178
     17          1           0       -2.191630    0.907146    1.804096
     18          1           0       -1.722943    1.414709   -1.202405
     19          1           0       -0.623417    1.902191    0.099559
 ---------------------------------------------------------------------

 SCF Done:  E(RB3LYP) =  -423.173676211     A.U. after    1 cycles

 The electronic state is 1-A.
 Alpha  occ. eigenvalues --  -19.16068 -19.13109 -10.27278 -10.25117 -10.24229
 Alpha  occ. eigenvalues --  -10.19443 -10.19090 -10.19066 -10.18461  -1.08709
 Alpha  occ. eigenvalues --   -1.03809  -0.84115  -0.76285  -0.68383  -0.67304
 Alpha  occ. eigenvalues --   -0.63730  -0.56204  -0.52977  -0.50280  -0.48504
 Alpha  occ. eigenvalues --   -0.47535  -0.45421  -0.43974  -0.41694  -0.40197
 Alpha  occ. eigenvalues --   -0.39595  -0.37108  -0.36814  -0.35229  -0.33263
 Alpha  occ. eigenvalues --   -0.32945  -0.29432  -0.27183  -0.24709
 Alpha virt. eigenvalues --   -0.02690   0.07951   0.08970   0.10105   0.11737
 Alpha virt. eigenvalues --    0.12471   0.14116   0.14603   0.15662   0.17180
 Alpha virt. eigenvalues --    0.18086   0.19157   0.19552   0.19854   0.20897

 Mulliken charges:
               1
     1  C   -0.489757
     2  C    0.388214
     3  O   -0.307123
     4  C   -0.183036
     5  O   -0.262854
     6  C    0.469061
     7  C   -0.313017
     8  C   -0.216227
     9  C   -0.298862
    10  H    0.146293
    11  H    0.138428
    12  H    0.146682
    13  H    0.095570
    14  H    0.120889
    15  H    0.106001
    16  H    0.108215
    17  H    0.107536
    18  H    0.121679
    19  H    0.122306
 Sum of Mulliken charges =   0.00000

 Dipole moment (field-independent basis, Debye):
    X=             -0.6585    Y=             -1.2056    Z=              3.0703  Tot=              3.3636
 Quadrupole moment (field-independent basis, Debye-Ang):
   XX=            -48.9101   YY=            -54.4108   ZZ=            -55.4442
   XY=             -4.0165   XZ=              3.8661   YZ=             -0.4001

  Exact polarizability:  93.782  -0.857  71.720   2.751  -4.364  66.123
 Approx polarizability: 117.225   0.310 110.363   3.063  -8.863 105.927

                      1                      2                      3
                      A                      A                      A
 Frequencies --     52.7941                96.3003               127.7725
 Red. masses --      3.3038                 2.6920                 1.0813
 Frc consts  --      0.0054                 0.0147                 0.0104
 IR Inten    --      2.6859                 0.6729                 0.3133

                      4                      5                      6
                      A                      A                      A
 Frequencies --    145.3816               159.0544               306.1820
 Red. masses --      3.1941                 2.7518                 4.4282
 Frc consts  --      0.0398                 0.0410                 0.2446
 IR Inten    --      2.4492                 0.6648                 0.5483

                      7                      8                      9
                      A                      A                      A
 Frequencies --    336.1658               391.3375               416.2447
 Red. masses --      2.9609                 2.6219                 4.1296
 Frc consts  --      0.1971                 0.2366                 0.4216
 IR Inten    --      1.5209                 4.3157                 2.8784

                     10                     11                     12
                      A                      A                      A
 Frequencies --    543.0750               608.8445               615.0998
 Red. masses --      4.4571                 3.2958                 3.1283
 Frc consts  --      0.7745                 0.7198                 0.6974
 IR Inten    --      1.2153                15.4070                12.6379

                     13                     14                     15
                      A                      A                      A
 Frequencies --    713.9100               772.7770               830.0645
 Red. masses --      1.3935                 1.2714                 2.5089
 Frc consts  --      0.4185                 0.4474                 1.0185
 IR Inten    --      0.1404                 0.4598                20.8362

                     16                     17                     18
                      A                      A                      A
 Frequencies --    868.5350               895.4173               918.8464
 Red. masses --      2.9824                 3.0398                 3.2699
 Frc consts  --      1.3255                 1.4360                 1.6266
 IR Inten    --     10.8045                 6.7743                11.8835

                     19                     20                     21
                      A                      A                      A
 Frequencies --    921.5318               956.6972               990.0643
 Red. masses --      2.8252                 2.2717                 1.7971
 Frc consts  --      1.4136                 1.2250                 1.0379
 IR Inten    --      1.3229                29.7949                 2.9999

                     22                     23                     24
                      A                      A                      A
 Frequencies --   1018.2918              1035.0662              1075.2656
 Red. masses --      2.9828                 1.1709                 2.1721
 Frc consts  --      1.8223                 0.7391                 1.4796
 IR Inten    --      1.8460                 1.9085                 0.6794

                     25                     26                     27
                      A                      A                      A
 Frequencies --   1137.9515              1158.8020              1195.0617
 Red. masses --      2.4401                 1.8310                 2.2638
 Frc consts  --      1.8617                 1.4486                 1.9049
 IR Inten    --     17.8551                 7.6201                87.4288

                     28                     29                     30
                      A                      A                      A
 Frequencies --   1202.9735              1223.1289              1243.4601
 Red. masses --      1.4179                 1.3536                 1.1626
 Frc consts  --      1.2090                 1.1931                 1.0591
 IR Inten    --      2.0870                 1.9427                 0.1724

                     31                     32                     33
                      A                      A                      A
 Frequencies --   1261.7299              1275.9837              1344.7639
 Red. masses --      1.4760                 1.6013                 1.5180
 Frc consts  --      1.3844                 1.5360                 1.6174
 IR Inten    --      2.0784                 0.5243                 9.6766

                     34                     35                     36
                      A                      A                      A
 Frequencies --   1379.2827              1457.8066              1463.6971
 Red. masses --      1.3305                 1.9229                 1.2096
 Frc consts  --      1.4913                 2.4077                 1.5269
 IR Inten    --     28.6770                71.1863                24.5475

                     37                     38                     39
                      A                      A                      A
 Frequencies --   1467.0949              1473.3525              1480.1795
 Red. masses --      1.1184                 1.0895                 1.0948
 Frc consts  --      1.4183                 1.3934                 1.4133
 IR Inten    --      6.2944                 3.8590                 2.8509

                     40                     41                     42
                      A                      A                      A
 Frequencies --   1509.4649              1810.1884              3031.8164
 Red. masses --      1.3553                10.7721                 1.0376
 Frc consts  --      1.8195                20.7968                 5.6194
 IR Inten    --     19.0742               108.9460                 1.7462

                     43                     44                     45
                      A                      A                      A
 Frequencies --   3059.3438              3072.3108              3074.9716
 Red. masses --      1.0581                 1.0600                 1.0633
 Frc consts  --      5.8350                 5.8952                 5.9237
 IR Inten    --     27.2491                13.9529                26.7533

                     46                     47                     48
                      A                      A                      A
 Frequencies --   3090.5010              3105.9172              3110.0595
 Red. masses --      1.0980                 1.0883                 1.1056
 Frc consts  --      6.1789                 6.1855                 6.3006
 IR Inten    --      7.1893                16.4214                13.9835

                     49                     50                     51
                      A                      A                      A
 Frequencies --   3125.8019              3137.8836              3155.8910
 Red. masses --      1.1054                 1.1065                 1.1012
 Frc consts  --      6.3632                 6.4191                 6.4617
 IR Inten    --     11.2250                31.7777                 8.4295

 - Thermochemistry -
 -------------------
 Temperature   298.150 Kelvin.  Pressure   1.00000 Atm.
 Atom     1 has atomic number  6 and mass  12.00000

 Molecular mass:   126.06808 amu.
 Principal axes and moments of inertia in atomic units:
                           1         2         3
     Eigenvalues --   571.074811672.042871729.63832
           X            0.99968  -0.01532   0.02008
           Y            0.01827   0.98760  -0.15593
           Z           -0.01744   0.15625   0.98756
 This molecule is an asymmetric top.
 Rotational symmetry number  1.
 Warning -- assumption of classical behavior for rotation
           may cause significant error
 Rotational temperatures (Kelvin)      0.15167     0.05180     0.05008
 Rotational constants (GHZ):           3.16025     1.07936     1.04342
 Zero-point vibrational energy     411779.4 (Joules/Mol)
                                   98.41764 (Kcal/Mol)
 Warning -- explicit consideration of  12 degrees of freedom as
           vibrations may cause significant error
 Vibrational temperatures:     75.96   138.55   183.84   209.17   228.84
          (Kelvin)            440.53   483.67   563.05   598.88   781.36
                              875.99   884.99  1027.16  1111.85  1194.28
                             1249.63  1288.30  1322.01  1325.88  1376.47
                             1424.48  1465.09  1489.23  1547.07  1637.26
                             1667.26  1719.43  1730.81  1759.81  1789.06
                             1815.35  1835.85  1934.81  1984.48  2097.46
                             2105.93  2110.82  2119.82  2129.65  2171.78
                             2604.45  4362.10  4401.71  4420.36  4424.19
                             4446.54  4468.72  4474.68  4497.33  4514.71
                             4540.62

 Zero-point correction=                           0.156838 (Hartree/Particle)
 Thermal correction to Energy=                    0.165943
 Thermal correction to Enthalpy=                  0.166887
 Thermal correction to Gibbs Free Energy=         0.122275
 Sum of electronic and zero-point Energies=           -423.016838
 Sum of electronic and thermal Energies=              -423.007734
 Sum of electronic and thermal Enthalpies=            -423.006789
 Sum of electronic and thermal Free Energies=         -423.051401

                     E (Thermal)             CV                S
                      KCal/Mol        Cal/Mol-Kelvin    Cal/Mol-Kelvin
 Total                  104.131             33.234             93.894
 Electronic               0.000              0.000              0.000
 Translational            0.889              2.981             40.409
 Rotational               0.889              2.981             28.892
 Vibrational            102.353             27.272             24.593
 Vibration     1          0.596              1.976              4.710
 Vibration     2          0.603              1.952              3.528
 Vibration     3          0.611              1.925              2.979
 Vibration     4          0.617              1.908              2.732
 Vibration     5          0.621              1.892              2.561
 Vibration     6          0.697              1.662              1.383
 Vibration     7          0.717              1.603              1.230
 Vibration     8          0.759              1.489              0.995
 Vibration     9          0.779              1.435              0.905
 Vibration    10          0.898              1.155              0.559
 Vibration    11          0.968              1.013              0.435
 Vibration    12          0.975              1.000              0.424

 Optimization completed.
    -- Stationary point found.
 Normal termination of Gaussian 09 at Mon Jan 27 14:47:36 2020.
