 Gaussian 09, Revision D.01,
 Gaussian 09:  ES64L-G09RevD.01 24-Apr-2013

 -----------------------------
 # b3lyp 6-31G(2df,p) opt Freq
 -----------------------------

 -----
 titel
 -----
 Symbolic Z-matrix:
 Charge =  0 Multiplicity = 1

 SCF Done:  E(RB3LYP) =  -423.114517941     A.U. after   13 cycles
 Optimization completed.
    -- Stationary point found.
 Normal termination of Gaussian 09 at Tue Jan 28 14:02:28 2020.

 ----------------------------------------------------------------------
 #N Geom=AllCheck Guess=TCheck SCRF=Check GenChk RB3LYP/6-31G(2df,p) Fr
 eq
 ----------------------------------------------------------------------

 Structure from the checkpoint file:  "/scratch/puck/g09_05b39905-d415-4881-9665-894ee8ec2ada/Gau-143631.chk"
 -----
 titel
 -----
 Charge =  0 Multiplicity = 1

                         Standard orientation:
 ---------------------------------------------------------------------
 Center     Atomic      Atomic             Coordinates (Angstroms)
 Number     Number       Type             X           Y           Z
 ---------------------------------------------------------------------
      1          8           0        2.946774   -0.448150   -0.164604
      2          6           0        1.632879   -0.849564    0.193439
      3          6           0        0.557657    0.020321   -0.447456
      4          6           0        0.367173    1.403776    0.220715
      5          8           0       -0.751910    2.042901   -0.395590
      6          6           0       -1.005355    1.072102    0.634237
      7          6           0       -0.899649   -0.298886   -0.002282
      8          6           0       -1.413129   -1.582742    0.588509
      9          6           0       -1.976181   -1.058284   -0.712968
     10          1           0        3.089221    0.443684    0.167146
     11          1           0        1.536537   -1.881534   -0.159711
     12          1           0        1.499062   -0.868723    1.286835
     13          1           0        0.719446    0.078461   -1.527810
     14          1           0        1.107467    2.043624    0.690157
     15          1           0       -1.593577    1.392335    1.487066
     16          1           0       -0.779250   -2.462470    0.555218
     17          1           0       -2.031301   -1.518966    1.478623
     18          1           0       -1.707458   -1.579477   -1.626062
     19          1           0       -2.979433   -0.645293   -0.715078
 ---------------------------------------------------------------------

 SCF Done:  E(RB3LYP) =  -423.114517941     A.U. after    1 cycles

 The electronic state is 1-A.
 Alpha  occ. eigenvalues --  -19.15111 -19.13820 -10.23968 -10.23883 -10.23124
 Alpha  occ. eigenvalues --  -10.20530 -10.19491 -10.19397 -10.18888  -1.07780
 Alpha  occ. eigenvalues --   -1.01886  -0.86893  -0.78200  -0.69366  -0.63875
 Alpha  occ. eigenvalues --   -0.61350  -0.59973  -0.53613  -0.52095  -0.50782
 Alpha  occ. eigenvalues --   -0.49253  -0.45168  -0.44019  -0.41418  -0.39607
 Alpha  occ. eigenvalues --   -0.38192  -0.37858  -0.36838  -0.32552  -0.31099
 Alpha  occ. eigenvalues --   -0.29261  -0.28093  -0.26613  -0.25369
 Alpha virt. eigenvalues --    0.06159   0.07719   0.09138   0.10252   0.11368
 Alpha virt. eigenvalues --    0.12386   0.13638   0.14456   0.15541   0.15840
 Alpha virt. eigenvalues --    0.16726   0.18265   0.19178   0.21972   0.22087

 Mulliken charges:
               1
     1  O   -0.421332
     2  C   -0.074757
     3  C   -0.158006
     4  C    0.031098
     5  O   -0.250105
     6  C   -0.076364
     7  C    0.354100
     8  C   -0.336242
     9  C   -0.317920
    10  H    0.284007
    11  H    0.112031
    12  H    0.088469
    13  H    0.092160
    14  H    0.097957
    15  H    0.102696
    16  H    0.118488
    17  H    0.115752
    18  H    0.119027
    19  H    0.118941
 Sum of Mulliken charges =   0.00000

 Dipole moment (field-independent basis, Debye):
    X=             -0.4594    Y=             -0.4710    Z=              1.7727  Tot=              1.8908
 Quadrupole moment (field-independent basis, Debye-Ang):
   XX=            -55.6096   YY=            -55.4447   ZZ=            -52.2925
   XY=              5.7299   XZ=              0.4506   YZ=              3.1283

  Exact polarizability:  83.709   4.718  77.191  -1.310   1.415  64.367
 Approx polarizability: 115.701   4.552 112.375  -2.761  -1.616 100.548

                      1                      2                      3
                      A                      A                      A
 Frequencies --    103.2039               125.1796               152.2668
 Red. masses --      3.3363                 2.4484                 3.9135
 Frc consts  --      0.0209                 0.0226                 0.0535
 IR Inten    --      1.0162                 3.9952                 1.6648

                      4                      5                      6
                      A                      A                      A
 Frequencies --    222.4949               263.8385               269.3279
 Red. masses --      1.8826                 2.9702                 2.4468
 Frc consts  --      0.0549                 0.1218                 0.1046
 IR Inten    --     32.0699                 0.8607                 1.7678

                      7                      8                      9
                      A                      A                      A
 Frequencies --    290.1037               416.2749               495.3770
 Red. masses --      1.5062                 4.6536                 3.9620
 Frc consts  --      0.0747                 0.4751                 0.5728
 IR Inten    --     79.2801                 3.4747                 4.5839

                     10                     11                     12
                      A                      A                      A
 Frequencies --    551.0252               592.7431               773.7234
 Red. masses --      4.2792                 3.4206                 1.0590
 Frc consts  --      0.7655                 0.7081                 0.3735
 IR Inten    --      8.3803                 1.4640                 0.1518

                     13                     14                     15
                      A                      A                      A
 Frequencies --    818.7397               836.5986               844.9605
 Red. masses --      3.5399                 2.4143                 1.5876
 Frc consts  --      1.3981                 0.9956                 0.6678
 IR Inten    --      0.2441                15.3930                21.2786

                     16                     17                     18
                      A                      A                      A
 Frequencies --    872.0758               883.9239               936.2870
 Red. masses --      2.1868                 2.1196                 1.6413
 Frc consts  --      0.9799                 0.9758                 0.8477
 IR Inten    --      2.9387                 7.4323                 1.5892

                     19                     20                     21
                      A                      A                      A
 Frequencies --    960.6734               984.4065               990.3324
 Red. masses --      2.7981                 2.6505                 2.7742
 Frc consts  --      1.5214                 1.5133                 1.6031
 IR Inten    --      3.3511                34.3208                 6.7152

                     22                     23                     24
                      A                      A                      A
 Frequencies --   1035.6097              1056.3175              1062.3645
 Red. masses --      1.6042                 1.4511                 2.0355
 Frc consts  --      1.0137                 0.9540                 1.3536
 IR Inten    --     21.1400                13.3036                52.8131

                     25                     26                     27
                      A                      A                      A
 Frequencies --   1078.0963              1081.3863              1108.5352
 Red. masses --      2.4216                 1.5536                 2.6722
 Frc consts  --      1.6583                 1.0704                 1.9347
 IR Inten    --     22.1956                13.0548                24.5644

                     28                     29                     30
                      A                      A                      A
 Frequencies --   1186.4719              1190.9695              1203.9341
 Red. masses --      1.2714                 1.2206                 1.4110
 Frc consts  --      1.0545                 1.0201                 1.2050
 IR Inten    --      0.5650                 6.9672                 5.4127

                     31                     32                     33
                      A                      A                      A
 Frequencies --   1224.8577              1232.1905              1258.1831
 Red. masses --      1.5277                 1.4096                 1.7889
 Frc consts  --      1.3504                 1.2609                 1.6685
 IR Inten    --      5.0768                 3.1713                 3.7244

                     34                     35                     36
                      A                      A                      A
 Frequencies --   1334.4545              1367.7263              1384.2471
 Red. masses --      1.5902                 3.7142                 1.4423
 Frc consts  --      1.6684                 4.0936                 1.6283
 IR Inten    --      2.3778                12.6331                 5.9145

                     37                     38                     39
                      A                      A                      A
 Frequencies --   1395.9568              1418.7582              1465.7120
 Red. masses --      2.2008                 1.2738                 1.0876
 Frc consts  --      2.5268                 1.5107                 1.3767
 IR Inten    --      8.1893                56.8777                 1.4952

                     40                     41                     42
                      A                      A                      A
 Frequencies --   1502.5354              1505.1015              2978.9003
 Red. masses --      1.0950                 1.4882                 1.0699
 Frc consts  --      1.4565                 1.9862                 5.5940
 IR Inten    --      0.7935                 0.2583                41.8545

                     43                     44                     45
                      A                      A                      A
 Frequencies --   3067.1530              3078.0061              3125.5881
 Red. masses --      1.0862                 1.0913                 1.0515
 Frc consts  --      6.0205                 6.0917                 6.0526
 IR Inten    --     15.5015                33.2709                16.4373

                     46                     47                     48
                      A                      A                      A
 Frequencies --   3130.2614              3162.4241              3183.5270
 Red. masses --      1.0573                 1.0886                 1.0992
 Frc consts  --      6.1040                 6.4143                 6.5638
 IR Inten    --     11.6973                21.1791                20.1152

                     49                     50                     51
                      A                      A                      A
 Frequencies --   3202.9065              3217.9898              3822.6838
 Red. masses --      1.1176                 1.1155                 1.0662
 Frc consts  --      6.7548                 6.8061                 9.1795
 IR Inten    --      0.9106                13.5397                14.4661

 - Thermochemistry -
 -------------------
 Temperature   298.150 Kelvin.  Pressure   1.00000 Atm.
 Atom     1 has atomic number  8 and mass  15.99491

 Molecular mass:   126.06808 amu.
 Principal axes and moments of inertia in atomic units:
                           1         2         3
     Eigenvalues --   771.586241240.656891770.24151
           X            0.99862   0.05233   0.00370
           Y           -0.05238   0.99854   0.01330
           Z           -0.00300  -0.01347   0.99990
 This molecule is an asymmetric top.
 Rotational symmetry number  1.
 Warning -- assumption of classical behavior for rotation
           may cause significant error
 Rotational temperatures (Kelvin)      0.11225     0.06981     0.04893
 Rotational constants (GHZ):           2.33900     1.45467     1.01949
 Zero-point vibrational energy     415381.7 (Joules/Mol)
                                   99.27862 (Kcal/Mol)
 Warning -- explicit consideration of  11 degrees of freedom as
           vibrations may cause significant error
 Vibrational temperatures:    148.49   180.11   219.08   320.12   379.60
          (Kelvin)            387.50   417.39   598.93   712.74   792.80
                              852.82  1113.21  1177.98  1203.68  1215.71
                             1254.72  1271.77  1347.11  1382.19  1416.34
                             1424.87  1490.01  1519.80  1528.50  1551.14
                             1555.87  1594.93  1707.07  1713.54  1732.19
                             1762.29  1772.85  1810.24  1919.98  1967.85
                             1991.62  2008.47  2041.27  2108.83  2161.81
                             2165.50  4285.97  4412.94  4428.56  4497.02
                             4503.74  4550.02  4580.38  4608.26  4629.96
                             5499.98

 Zero-point correction=                           0.158211 (Hartree/Particle)
 Thermal correction to Energy=                    0.166758
 Thermal correction to Enthalpy=                  0.167702
 Thermal correction to Gibbs Free Energy=         0.124983
 Sum of electronic and zero-point Energies=           -422.956307
 Sum of electronic and thermal Energies=              -422.947760
 Sum of electronic and thermal Enthalpies=            -422.946816
 Sum of electronic and thermal Free Energies=         -422.989535

                     E (Thermal)             CV                S
                      KCal/Mol        Cal/Mol-Kelvin    Cal/Mol-Kelvin
 Total                  104.642             32.604             89.909
 Electronic               0.000              0.000              0.000
 Translational            0.889              2.981             40.409
 Rotational               0.889              2.981             28.918
 Vibrational            102.865             26.642             20.583
 Vibration     1          0.605              1.947              3.393
 Vibration     2          0.610              1.928              3.019
 Vibration     3          0.619              1.900              2.644
 Vibration     4          0.648              1.807              1.939
 Vibration     5          0.670              1.739              1.636
 Vibration     6          0.674              1.730              1.601
 Vibration     7          0.686              1.692              1.473
 Vibration     8          0.779              1.435              0.905
 Vibration     9          0.851              1.260              0.670
 Vibration    10          0.906              1.137              0.542
 Vibration    11          0.950              1.047              0.462

 Optimization completed.
    -- Stationary point found.
 Normal termination of Gaussian 09 at Tue Jan 28 14:50:47 2020.
