 Gaussian 09, Revision D.01,
 Gaussian 09:  ES64L-G09RevD.01 24-Apr-2013

 -----------------------------
 # b3lyp 6-31G(2df,p) opt Freq
 -----------------------------

 -----
 titel
 -----
 Symbolic Z-matrix:
 Charge =  0 Multiplicity = 1

 SCF Done:  E(RB3LYP) =  -423.193532450     A.U. after   14 cycles
 Optimization completed.
    -- Stationary point found.
 Normal termination of Gaussian 09 at Mon Jan 27 13:13:32 2020.

 ----------------------------------------------------------------------
 #N Geom=AllCheck Guess=TCheck SCRF=Check GenChk RB3LYP/6-31G(2df,p) Fr
 eq
 ----------------------------------------------------------------------

 Structure from the checkpoint file:  "/scratch/puck/g09_318d7f02-e932-4b66-89a7-fc3afb02ebd0/Gau-28155.chk"
 -----
 titel
 -----
 Charge =  0 Multiplicity = 1

                         Standard orientation:
 ---------------------------------------------------------------------
 Center     Atomic      Atomic             Coordinates (Angstroms)
 Number     Number       Type             X           Y           Z
 ---------------------------------------------------------------------
      1          8           0        0.501433    2.044080   -0.765968
      2          6           0        0.199922    1.261298    0.103133
      3          6           0       -1.227548    1.126206    0.615000
      4          6           0       -1.963251    0.016660   -0.173630
      5          6           0       -1.355007   -1.383328   -0.060784
      6          8           0       -0.038359   -1.467710   -0.607269
      7          6           0        0.968587   -1.171405    0.310173
      8          6           0        2.159706   -0.418138   -0.200114
      9          6           0        1.174497    0.274788    0.703362
     10          1           0       -1.225733    0.880029    1.683759
     11          1           0       -1.744019    2.078960    0.471266
     12          1           0       -3.001127   -0.035462    0.176947
     13          1           0       -1.994362    0.298842   -1.231870
     14          1           0       -1.352248   -1.723423    0.985969
     15          1           0       -1.964252   -2.088134   -0.635923
     16          1           0        1.120159   -1.938491    1.070714
     17          1           0        3.138549   -0.678591    0.185797
     18          1           0        2.137312   -0.118269   -1.241765
     19          1           0        1.439696    0.477094    1.738166
 ---------------------------------------------------------------------

 SCF Done:  E(RB3LYP) =  -423.193532449     A.U. after    1 cycles

 The electronic state is 1-A.
 Alpha  occ. eigenvalues --  -19.15093 -19.12676 -10.26722 -10.24470 -10.23679
 Alpha  occ. eigenvalues --  -10.19661 -10.19611 -10.19278 -10.19050  -1.04753
 Alpha  occ. eigenvalues --   -1.03556  -0.86023  -0.80021  -0.70974  -0.66143
 Alpha  occ. eigenvalues --   -0.60530  -0.58641  -0.53463  -0.50901  -0.50338
 Alpha  occ. eigenvalues --   -0.47668  -0.44670  -0.43949  -0.42771  -0.40241
 Alpha  occ. eigenvalues --   -0.38940  -0.37968  -0.36559  -0.35750  -0.33244
 Alpha  occ. eigenvalues --   -0.32231  -0.28736  -0.25428  -0.24164
 Alpha virt. eigenvalues --   -0.01521   0.08660   0.09588   0.12095   0.12352
 Alpha virt. eigenvalues --    0.12841   0.14366   0.14745   0.15867   0.16899
 Alpha virt. eigenvalues --    0.17060   0.17695   0.18697   0.20217   0.23120

 Mulliken charges:
               1
     1  O   -0.307550
     2  C    0.366094
     3  C   -0.289890
     4  C   -0.196862
     5  C   -0.071528
     6  O   -0.245399
     7  C    0.111675
     8  C   -0.322486
     9  C   -0.154126
    10  H    0.100813
    11  H    0.119641
    12  H    0.103581
    13  H    0.127421
    14  H    0.090629
    15  H    0.112273
    16  H    0.087183
    17  H    0.116536
    18  H    0.144565
    19  H    0.107430
 Sum of Mulliken charges =   0.00000

 Dipole moment (field-independent basis, Debye):
    X=             -1.1770    Y=             -1.5817    Z=              2.6299  Tot=              3.2869
 Quadrupole moment (field-independent basis, Debye-Ang):
   XX=            -48.3950   YY=            -58.8062   ZZ=            -52.9450
   XY=             -1.5304   XZ=              1.7277   YZ=              1.4253

  Exact polarizability:  85.609  -0.387  75.405  -0.645  -3.147  65.337
 Approx polarizability: 112.371   2.294 111.631  -3.663  -8.173 107.659

                      1                      2                      3
                      A                      A                      A
 Frequencies --     87.2174               176.6799               207.1858
 Red. masses --      6.2165                 2.8268                 2.7504
 Frc consts  --      0.0279                 0.0520                 0.0696
 IR Inten    --      2.1156                 0.9641                 3.4068

                      4                      5                      6
                      A                      A                      A
 Frequencies --    276.9115               318.1525               371.6429
 Red. masses --      4.9755                 2.3430                 2.9555
 Frc consts  --      0.2248                 0.1397                 0.2405
 IR Inten    --      2.4282                 3.5672                 0.2990

                      7                      8                      9
                      A                      A                      A
 Frequencies --    426.5259               476.2109               565.8308
 Red. masses --      3.0684                 2.3834                 2.2331
 Frc consts  --      0.3289                 0.3185                 0.4212
 IR Inten    --      2.9215                 3.4017                 1.9428

                     10                     11                     12
                      A                      A                      A
 Frequencies --    575.1969               675.8387               769.9624
 Red. masses --      3.8440                 3.6391                 2.0178
 Frc consts  --      0.7493                 0.9793                 0.7048
 IR Inten    --      6.9347                 1.6919                 6.5492

                     13                     14                     15
                      A                      A                      A
 Frequencies --    790.5686               818.4235               860.8849
 Red. masses --      2.2734                 1.5403                 2.4647
 Frc consts  --      0.8372                 0.6079                 1.0762
 IR Inten    --      2.4369                 5.4603                 6.8181

                     16                     17                     18
                      A                      A                      A
 Frequencies --    895.3930               928.9705               955.3135
 Red. masses --      1.6295                 2.5796                 2.2516
 Frc consts  --      0.7697                 1.3116                 1.2107
 IR Inten    --      2.1667                 3.0387                17.1907

                     19                     20                     21
                      A                      A                      A
 Frequencies --    984.6324              1035.1531              1053.7742
 Red. masses --      3.0955                 1.6615                 1.7873
 Frc consts  --      1.7682                 1.0489                 1.1694
 IR Inten    --     30.6549                 6.6665                 2.4564

                     22                     23                     24
                      A                      A                      A
 Frequencies --   1069.1875              1087.4969              1092.1359
 Red. masses --      1.6050                 2.1179                 2.3721
 Frc consts  --      1.0810                 1.4757                 1.6670
 IR Inten    --      9.4727                 4.8747                41.5415

                     25                     26                     27
                      A                      A                      A
 Frequencies --   1119.4891              1153.1196              1172.5946
 Red. masses --      1.3107                 2.0670                 2.1273
 Frc consts  --      0.9678                 1.6193                 1.7234
 IR Inten    --     13.9054                71.9546                 5.2356

                     28                     29                     30
                      A                      A                      A
 Frequencies --   1213.8512              1221.3652              1249.2252
 Red. masses --      1.4614                 1.3971                 1.6507
 Frc consts  --      1.2687                 1.2279                 1.5178
 IR Inten    --     14.5339                 2.5497                42.9114

                     31                     32                     33
                      A                      A                      A
 Frequencies --   1312.3869              1343.2874              1371.7842
 Red. masses --      1.2478                 1.3218                 1.7135
 Frc consts  --      1.2662                 1.4053                 1.8998
 IR Inten    --     16.5012                 8.8052                56.1334

                     34                     35                     36
                      A                      A                      A
 Frequencies --   1375.5938              1386.2977              1420.3696
 Red. masses --      1.3114                 1.6921                 1.3259
 Frc consts  --      1.4621                 1.9160                 1.5760
 IR Inten    --      5.8161                 9.6135                 7.3957

                     37                     38                     39
                      A                      A                      A
 Frequencies --   1472.6444              1478.1233              1479.2014
 Red. masses --      1.0893                 1.1623                 1.2503
 Frc consts  --      1.3918                 1.4962                 1.6118
 IR Inten    --      3.5028                 8.7677                12.4091

                     40                     41                     42
                      A                      A                      A
 Frequencies --   1497.8187              1811.9736              2992.6358
 Red. masses --      1.1158                11.6197                 1.0673
 Frc consts  --      1.4748                22.4776                 5.6320
 IR Inten    --      5.2120               161.9383                40.4677

                     43                     44                     45
                      A                      A                      A
 Frequencies --   3033.0271              3035.0750              3074.7519
 Red. masses --      1.0615                 1.0618                 1.0954
 Frc consts  --      5.7534                 5.7627                 6.1016
 IR Inten    --     16.9567                15.8262                37.9741

                     46                     47                     48
                      A                      A                      A
 Frequencies --   3083.9112              3091.1046              3104.1175
 Red. masses --      1.1012                 1.0871                 1.1021
 Frc consts  --      6.1707                 6.1198                 6.2569
 IR Inten    --     24.1792                40.0006                21.5728

                     49                     50                     51
                      A                      A                      A
 Frequencies --   3139.7887              3144.4653              3234.0956
 Red. masses --      1.0766                 1.0658                 1.1169
 Frc consts  --      6.2535                 6.2088                 6.8829
 IR Inten    --      9.2552                 7.1615                 3.5861

 - Thermochemistry -
 -------------------
 Temperature   298.150 Kelvin.  Pressure   1.00000 Atm.
 Atom     1 has atomic number  8 and mass  15.99491

 Molecular mass:   126.06808 amu.
 Principal axes and moments of inertia in atomic units:
                           1         2         3
     Eigenvalues --   837.20959 913.592441467.52262
           X            0.99289  -0.11902   0.00277
           Y            0.11902   0.99289   0.00261
           Z           -0.00306  -0.00226   0.99999
 This molecule is an asymmetric top.
 Rotational symmetry number  1.
 Warning -- assumption of classical behavior for rotation
           may cause significant error
 Rotational temperatures (Kelvin)      0.10346     0.09481     0.05902
 Rotational constants (GHZ):           2.15566     1.97543     1.22979
 Zero-point vibrational energy     421751.8 (Joules/Mol)
                                  100.80109 (Kcal/Mol)
 Warning -- explicit consideration of  10 degrees of freedom as
           vibrations may cause significant error
 Vibrational temperatures:    125.49   254.20   298.09   398.41   457.75
          (Kelvin)            534.71   613.67   685.16   814.10   827.58
                              972.38  1107.80  1137.45  1177.53  1238.62
                             1288.27  1336.58  1374.48  1416.66  1489.35
                             1516.14  1538.32  1564.66  1571.34  1610.69
                             1659.08  1687.10  1746.46  1757.27  1797.35
                             1888.23  1932.69  1973.69  1979.17  1994.57
                             2043.59  2118.80  2126.69  2128.24  2155.02
                             2607.02  4305.73  4363.84  4366.79  4423.88
                             4437.05  4447.40  4466.13  4517.45  4524.18
                             4653.14

 Zero-point correction=                           0.160637 (Hartree/Particle)
 Thermal correction to Energy=                    0.168379
 Thermal correction to Enthalpy=                  0.169323
 Thermal correction to Gibbs Free Energy=         0.128447
 Sum of electronic and zero-point Energies=           -423.032896
 Sum of electronic and thermal Energies=              -423.025153
 Sum of electronic and thermal Enthalpies=            -423.024209
 Sum of electronic and thermal Free Energies=         -423.065085

                     E (Thermal)             CV                S
                      KCal/Mol        Cal/Mol-Kelvin    Cal/Mol-Kelvin
 Total                  105.660             30.514             86.031
 Electronic               0.000              0.000              0.000
 Translational            0.889              2.981             40.409
 Rotational               0.889              2.981             28.508
 Vibrational            103.882             24.552             17.114
 Vibration     1          0.601              1.958              3.722
 Vibration     2          0.628              1.871              2.363
 Vibration     3          0.641              1.830              2.068
 Vibration     4          0.678              1.716              1.553
 Vibration     5          0.705              1.639              1.320
 Vibration     6          0.743              1.530              1.073
 Vibration     7          0.788              1.413              0.870
 Vibration     8          0.833              1.303              0.720
 Vibration     9          0.922              1.105              0.512
 Vibration    10          0.932              1.085              0.494

 Optimization completed.
    -- Stationary point found.
 Normal termination of Gaussian 09 at Mon Jan 27 14:33:23 2020.
