 Gaussian 09, Revision D.01,
 Gaussian 09:  ES64L-G09RevD.01 24-Apr-2013

 -----------------------------
 # b3lyp 6-31G(2df,p) opt Freq
 -----------------------------

 -----
 titel
 -----
 Symbolic Z-matrix:
 Charge =  0 Multiplicity = 1

 SCF Done:  E(RB3LYP) =  -423.202836318     A.U. after   14 cycles
 Optimization completed.
    -- Stationary point found.
 Normal termination of Gaussian 09 at Tue Jan 28 00:05:54 2020.

 ----------------------------------------------------------------------
 #N Geom=AllCheck Guess=TCheck SCRF=Check GenChk RB3LYP/6-31G(2df,p) Fr
 eq
 ----------------------------------------------------------------------

 Structure from the checkpoint file:  "/scratch/puck/g09_4d69e914-864d-4511-993f-4fde09f9b7a0/Gau-2895.chk"
 -----
 titel
 -----
 Charge =  0 Multiplicity = 1

                         Standard orientation:
 ---------------------------------------------------------------------
 Center     Atomic      Atomic             Coordinates (Angstroms)
 Number     Number       Type             X           Y           Z
 ---------------------------------------------------------------------
      1          6           0        1.866696    1.500900    0.456548
      2          6           0        0.768598    0.763812   -0.331855
      3          6           0       -0.644337    0.988229    0.223963
      4          6           0       -1.806289    0.772231   -0.765243
      5          8           0       -2.066695   -0.551338   -0.251332
      6          6           0       -1.124400   -0.370685    0.830769
      7          6           0        0.020550   -1.364912    0.761785
      8          6           0        1.014770   -0.756890   -0.235394
      9          8           0        1.877459   -1.351568   -0.825416
     10          1           0        1.838035    1.240871    1.520693
     11          1           0        2.854627    1.237688    0.069690
     12          1           0        1.737025    2.584335    0.374713
     13          1           0        0.843401    1.053160   -1.385489
     14          1           0       -0.719391    1.873977    0.855965
     15          1           0       -2.663729    1.441389   -0.617550
     16          1           0       -1.546312    0.755809   -1.830930
     17          1           0       -1.631764   -0.336238    1.800657
     18          1           0        0.525763   -1.461492    1.732264
     19          1           0       -0.297292   -2.362362    0.450541
 ---------------------------------------------------------------------

 SCF Done:  E(RB3LYP) =  -423.202836318     A.U. after    1 cycles

 The electronic state is 1-A.
 Alpha  occ. eigenvalues --  -19.13781 -19.13237 -10.26895 -10.24241 -10.23582
 Alpha  occ. eigenvalues --  -10.20097 -10.20068 -10.19185 -10.19175  -1.04703
 Alpha  occ. eigenvalues --   -1.04092  -0.83136  -0.76430  -0.72508  -0.66226
 Alpha  occ. eigenvalues --   -0.64331  -0.55143  -0.54029  -0.50806  -0.48466
 Alpha  occ. eigenvalues --   -0.46852  -0.44075  -0.43329  -0.42186  -0.41139
 Alpha  occ. eigenvalues --   -0.40025  -0.39822  -0.37031  -0.35708  -0.34424
 Alpha  occ. eigenvalues --   -0.32042  -0.30337  -0.26132  -0.23785
 Alpha virt. eigenvalues --   -0.02022   0.07630   0.08552   0.10633   0.10676
 Alpha virt. eigenvalues --    0.12620   0.13091   0.15125   0.15693   0.16436
 Alpha virt. eigenvalues --    0.17387   0.18732   0.19382   0.19802   0.21794

 Mulliken charges:
               1
     1  C   -0.414000
     2  C   -0.089537
     3  C   -0.088943
     4  C   -0.088908
     5  O   -0.292785
     6  C    0.119526
     7  C   -0.338318
     8  C    0.387673
     9  O   -0.313183
    10  H    0.118684
    11  H    0.140683
    12  H    0.122262
    13  H    0.102406
    14  H    0.078930
    15  H    0.101348
    16  H    0.106692
    17  H    0.076552
    18  H    0.126894
    19  H    0.144023
 Sum of Mulliken charges =   0.00000

 Dipole moment (field-independent basis, Debye):
    X=             -0.6031    Y=              2.5723    Z=              1.7627  Tot=              3.1761
 Quadrupole moment (field-independent basis, Debye-Ang):
   XX=            -60.2437   YY=            -53.5150   ZZ=            -51.5344
   XY=              1.2033   XZ=              2.1088   YZ=             -3.4326

  Exact polarizability:  78.737  -2.263  75.550  -1.207  -2.276  68.662
 Approx polarizability: 108.534  -5.529 109.272  -5.006   0.213 106.513

                      1                      2                      3
                      A                      A                      A
 Frequencies --     50.5674                92.4381               211.1112
 Red. masses --      3.6486                 4.1570                 2.7814
 Frc consts  --      0.0055                 0.0209                 0.0730
 IR Inten    --      2.0226                 4.7528                 1.6909

                      4                      5                      6
                      A                      A                      A
 Frequencies --    229.8086               249.6249               348.6753
 Red. masses --      1.2405                 1.9620                 2.2822
 Frc consts  --      0.0386                 0.0720                 0.1635
 IR Inten    --      0.1423                 1.0161                 3.2673

                      7                      8                      9
                      A                      A                      A
 Frequencies --    388.1239               459.8486               564.9054
 Red. masses --      3.2203                 4.0981                 2.8966
 Frc consts  --      0.2858                 0.5106                 0.5446
 IR Inten    --      1.9122                 5.5881                 3.6559

                     10                     11                     12
                      A                      A                      A
 Frequencies --    608.6384               678.0586               738.1475
 Red. masses --      4.7516                 4.0095                 3.6082
 Frc consts  --      1.0371                 1.0861                 1.1583
 IR Inten    --      1.9335                 4.4088                 5.1704

                     13                     14                     15
                      A                      A                      A
 Frequencies --    808.6788               829.5768               858.7667
 Red. masses --      2.3907                 2.0506                 2.0165
 Frc consts  --      0.9211                 0.8315                 0.8762
 IR Inten    --      3.9853                 2.7754                 5.1840

                     16                     17                     18
                      A                      A                      A
 Frequencies --    891.7801               951.5080               996.5783
 Red. masses --      4.5081                 1.6736                 2.4359
 Frc consts  --      2.1123                 0.8928                 1.4254
 IR Inten    --     11.0462                 9.0734                 1.1801

                     19                     20                     21
                      A                      A                      A
 Frequencies --   1000.9435              1028.2123              1040.9720
 Red. masses --      1.6847                 3.5402                 2.1675
 Frc consts  --      0.9945                 2.2052                 1.3839
 IR Inten    --     14.1592                70.5633                16.3605

                     22                     23                     24
                      A                      A                      A
 Frequencies --   1055.0344              1095.6778              1134.6466
 Red. masses --      1.9569                 2.0139                 2.2678
 Frc consts  --      1.2834                 1.4245                 1.7202
 IR Inten    --      9.2140                12.0680                13.7700

                     25                     26                     27
                      A                      A                      A
 Frequencies --   1158.0555              1171.6426              1174.6554
 Red. masses --      1.5199                 1.4278                 1.5717
 Frc consts  --      1.2009                 1.1548                 1.2778
 IR Inten    --     15.3149                20.4384                 9.7634

                     28                     29                     30
                      A                      A                      A
 Frequencies --   1191.3766              1264.1021              1279.3500
 Red. masses --      1.8798                 1.4841                 1.7541
 Frc consts  --      1.5720                 1.3973                 1.6915
 IR Inten    --      6.4126                 1.8383                 5.5555

                     31                     32                     33
                      A                      A                      A
 Frequencies --   1289.3344              1308.4255              1345.7114
 Red. masses --      1.3827                 1.3895                 1.5120
 Frc consts  --      1.3543                 1.4015                 1.6133
 IR Inten    --      2.9936                 1.5564                 2.8483

                     34                     35                     36
                      A                      A                      A
 Frequencies --   1357.3937              1367.2211              1404.8704
 Red. masses --      1.5739                 1.4023                 1.2175
 Frc consts  --      1.7086                 1.5444                 1.4157
 IR Inten    --     13.7691                 6.5326                 1.2207

                     37                     38                     39
                      A                      A                      A
 Frequencies --   1430.6146              1496.3064              1499.6892
 Red. masses --      1.0947                 1.0468                 1.0484
 Frc consts  --      1.3201                 1.3809                 1.3893
 IR Inten    --     11.9812                 4.9370                 5.3792

                     40                     41                     42
                      A                      A                      A
 Frequencies --   1527.0958              1846.5176              3009.0767
 Red. masses --      1.1005                12.5483                 1.0559
 Frc consts  --      1.5120                25.2082                 5.6330
 IR Inten    --      0.5178               195.8518                79.0533

                     43                     44                     45
                      A                      A                      A
 Frequencies --   3030.1743              3033.1707              3049.3712
 Red. masses --      1.0681                 1.0375                 1.0856
 Frc consts  --      5.7782                 5.6240                 5.9475
 IR Inten    --     10.7109                19.9749                49.6578

                     46                     47                     48
                      A                      A                      A
 Frequencies --   3051.6244              3056.1244              3098.8429
 Red. masses --      1.0993                 1.0937                 1.0887
 Frc consts  --      6.0317                 6.0183                 6.1598
 IR Inten    --     11.1690                23.9821                31.8066

                     49                     50                     51
                      A                      A                      A
 Frequencies --   3101.0554              3117.8753              3122.1862
 Red. masses --      1.1005                 1.0940                 1.1019
 Frc consts  --      6.2355                 6.2661                 6.3285
 IR Inten    --     25.4298                 1.9896                16.7114

 - Thermochemistry -
 -------------------
 Temperature   298.150 Kelvin.  Pressure   1.00000 Atm.
 Atom     1 has atomic number  6 and mass  12.00000

 Molecular mass:   126.06808 amu.
 Principal axes and moments of inertia in atomic units:
                           1         2         3
     Eigenvalues --   703.295561173.065011487.66953
           X            0.99897   0.04152   0.01809
           Y           -0.04086   0.99854  -0.03535
           Z           -0.01953   0.03457   0.99921
 This molecule is an asymmetric top.
 Rotational symmetry number  1.
 Warning -- assumption of classical behavior for rotation
           may cause significant error
 Rotational temperatures (Kelvin)      0.12315     0.07384     0.05822
 Rotational constants (GHZ):           2.56612     1.53848     1.21313
 Zero-point vibrational energy     419256.3 (Joules/Mol)
                                  100.20467 (Kcal/Mol)
 Warning -- explicit consideration of  10 degrees of freedom as
           vibrations may cause significant error
 Vibrational temperatures:     72.76   133.00   303.74   330.64   359.15
          (Kelvin)            501.67   558.42   661.62   812.77   875.69
                              975.57  1062.03  1163.51  1193.57  1235.57
                             1283.07  1369.01  1433.85  1440.13  1479.37
                             1497.72  1517.96  1576.43  1632.50  1666.18
                             1685.73  1690.07  1714.12  1818.76  1840.70
                             1855.06  1882.53  1936.18  1952.98  1967.12
                             2021.29  2058.33  2152.85  2157.72  2197.15
                             2656.72  4329.38  4359.74  4364.05  4387.36
                             4390.60  4397.08  4458.54  4461.72  4485.92
                             4492.12

 Zero-point correction=                           0.159686 (Hartree/Particle)
 Thermal correction to Energy=                    0.167846
 Thermal correction to Enthalpy=                  0.168790
 Thermal correction to Gibbs Free Energy=         0.126344
 Sum of electronic and zero-point Energies=           -423.043150
 Sum of electronic and thermal Energies=              -423.034991
 Sum of electronic and thermal Enthalpies=            -423.034047
 Sum of electronic and thermal Free Energies=         -423.076493

                     E (Thermal)             CV                S
                      KCal/Mol        Cal/Mol-Kelvin    Cal/Mol-Kelvin
 Total                  105.325             30.800             89.335
 Electronic               0.000              0.000              0.000
 Translational            0.889              2.981             40.409
 Rotational               0.889              2.981             28.597
 Vibrational            103.547             24.838             20.329
 Vibration     1          0.595              1.977              4.795
 Vibration     2          0.602              1.955              3.608
 Vibration     3          0.643              1.824              2.034
 Vibration     4          0.652              1.795              1.880
 Vibration     5          0.662              1.763              1.733
 Vibration     6          0.726              1.578              1.172
 Vibration     7          0.756              1.496              1.007
 Vibration     8          0.818              1.339              0.767
 Vibration     9          0.921              1.107              0.514
 Vibration    10          0.968              1.014              0.435

 Normal termination of Gaussian 09 at Tue Jan 28 00:53:33 2020.
