 Gaussian 09, Revision D.01,
 Gaussian 09:  ES64L-G09RevD.01 24-Apr-2013

 -----------------------------
 # b3lyp 6-31G(2df,p) opt Freq
 -----------------------------

 -----
 titel
 -----
 Symbolic Z-matrix:
 Charge =  0 Multiplicity = 1

 SCF Done:  E(RB3LYP) =  -423.122983167     A.U. after   13 cycles
 Optimization completed.
    -- Stationary point found.
 Normal termination of Gaussian 09 at Tue Jan 28 02:41:08 2020.

 ----------------------------------------------------------------------
 #N Geom=AllCheck Guess=TCheck SCRF=Check GenChk RB3LYP/6-31G(2df,p) Fr
 eq
 ----------------------------------------------------------------------

 Structure from the checkpoint file:  "/scratch/puck/g09_a7e32821-2959-48d0-b798-6aa11f5a61c1/Gau-172389.chk"
 -----
 titel
 -----
 Charge =  0 Multiplicity = 1

                         Standard orientation:
 ---------------------------------------------------------------------
 Center     Atomic      Atomic             Coordinates (Angstroms)
 Number     Number       Type             X           Y           Z
 ---------------------------------------------------------------------
      1          6           0       -1.898633   -1.635957   -0.283726
      2          6           0       -1.696240   -0.242189    0.273031
      3          8           0       -0.470039   -0.180129    1.074151
      4          6           0        0.137974    0.672552    0.101790
      5          6           0       -0.591468    1.979273    0.030718
      6          6           0       -1.136811    0.778598   -0.714594
      7          6           0        1.543831    0.412470   -0.273175
      8          6           0        2.383734   -0.488390    0.528275
      9          8           0        1.848905   -0.912617   -0.726600
     10          1           0       -2.077309   -2.346136    0.529048
     11          1           0       -2.762230   -1.658749   -0.957829
     12          1           0       -1.005991   -1.950670   -0.831845
     13          1           0       -2.558163    0.085306    0.868076
     14          1           0       -1.087076    2.352579    0.922834
     15          1           0       -0.147661    2.740576   -0.604152
     16          1           0       -1.275872    0.758279   -1.787311
     17          1           0        2.021746    1.205217   -0.848502
     18          1           0        3.461901   -0.336418    0.554347
     19          1           0        1.945410   -0.966150    1.401011
 ---------------------------------------------------------------------

 SCF Done:  E(RB3LYP) =  -423.122983167     A.U. after    1 cycles

 The electronic state is 1-A.
 Alpha  occ. eigenvalues --  -19.14882 -19.13751 -10.24564 -10.24200 -10.23942
 Alpha  occ. eigenvalues --  -10.23190 -10.19652 -10.19505 -10.17420  -1.07176
 Alpha  occ. eigenvalues --   -1.04869  -0.83671  -0.75851  -0.69750  -0.64950
 Alpha  occ. eigenvalues --   -0.62907  -0.59054  -0.53302  -0.52089  -0.50055
 Alpha  occ. eigenvalues --   -0.47419  -0.46755  -0.43042  -0.40334  -0.40000
 Alpha  occ. eigenvalues --   -0.38338  -0.38069  -0.36976  -0.34173  -0.32567
 Alpha  occ. eigenvalues --   -0.31273  -0.27387  -0.26529  -0.23560
 Alpha virt. eigenvalues --    0.06845   0.09372   0.10133   0.11491   0.12653
 Alpha virt. eigenvalues --    0.13007   0.13755   0.14755   0.15222   0.16012
 Alpha virt. eigenvalues --    0.17431   0.18442   0.19143   0.19592   0.20717

 Mulliken charges:
               1
     1  C   -0.401000
     2  C    0.125342
     3  O   -0.336217
     4  C    0.486312
     5  C   -0.363354
     6  C   -0.180506
     7  C   -0.059451
     8  C   -0.174086
     9  O   -0.235450
    10  H    0.124532
    11  H    0.112110
    12  H    0.142267
    13  H    0.077854
    14  H    0.116604
    15  H    0.117562
    16  H    0.104934
    17  H    0.094671
    18  H    0.112978
    19  H    0.134899
 Sum of Mulliken charges =   0.00000

 Dipole moment (field-independent basis, Debye):
    X=             -0.4416    Y=              1.5400    Z=             -0.2726  Tot=              1.6251
 Quadrupole moment (field-independent basis, Debye-Ang):
   XX=            -48.8543   YY=            -52.6072   ZZ=            -54.4796
   XY=              2.8707   XZ=              2.4707   YZ=             -2.1817

  Exact polarizability:  86.736   0.467  77.898   2.765  -3.030  63.967
 Approx polarizability: 115.356  -2.191 111.155   5.860  -3.647 103.074

                      1                      2                      3
                      A                      A                      A
 Frequencies --     75.4897               109.5043               195.1649
 Red. masses --      3.6036                 3.7476                 2.5128
 Frc consts  --      0.0121                 0.0265                 0.0564
 IR Inten    --      2.3591                 3.6707                 2.9992

                      4                      5                      6
                      A                      A                      A
 Frequencies --    244.5340               253.2084               295.5892
 Red. masses --      3.2898                 1.2585                 2.2861
 Frc consts  --      0.1159                 0.0475                 0.1177
 IR Inten    --      1.1301                 0.2419                 0.9063

                      7                      8                      9
                      A                      A                      A
 Frequencies --    396.6419               434.1230               474.9230
 Red. masses --      3.2583                 3.0152                 3.0328
 Frc consts  --      0.3020                 0.3348                 0.4030
 IR Inten    --      0.9387                 2.6036                 2.3981

                     10                     11                     12
                      A                      A                      A
 Frequencies --    546.8289               659.0373               772.3917
 Red. masses --      3.9433                 2.6839                 2.3277
 Frc consts  --      0.6947                 0.6868                 0.8182
 IR Inten    --     13.1727                 6.9351                 3.4230

                     13                     14                     15
                      A                      A                      A
 Frequencies --    826.1026               845.8596               876.3033
 Red. masses --      2.0137                 4.7381                 3.7684
 Frc consts  --      0.8097                 1.9973                 1.7050
 IR Inten    --      0.8923                27.6585                36.9685

                     16                     17                     18
                      A                      A                      A
 Frequencies --    886.0140               911.2737               942.0892
 Red. masses --      3.1248                 3.1045                 1.5196
 Frc consts  --      1.4453                 1.5189                 0.7946
 IR Inten    --      8.1389                40.0658                 9.9632

                     19                     20                     21
                      A                      A                      A
 Frequencies --    984.6061               995.2134              1004.6579
 Red. masses --      1.8979                 1.7008                 1.4174
 Frc consts  --      1.0841                 0.9925                 0.8429
 IR Inten    --     13.0425                25.4463                 4.4084

                     22                     23                     24
                      A                      A                      A
 Frequencies --   1019.6015              1054.5754              1085.5520
 Red. masses --      2.3479                 1.7279                 1.7077
 Frc consts  --      1.4381                 1.1322                 1.1856
 IR Inten    --      6.2345                32.1076                 9.1194

                     25                     26                     27
                      A                      A                      A
 Frequencies --   1098.1638              1100.7404              1159.3640
 Red. masses --      1.2448                 1.5197                 2.2925
 Frc consts  --      0.8844                 1.0849                 1.8155
 IR Inten    --      0.7329                 1.0851                 9.4459

                     28                     29                     30
                      A                      A                      A
 Frequencies --   1161.1705              1165.4606              1201.9029
 Red. masses --      1.4555                 1.3291                 1.9311
 Frc consts  --      1.1563                 1.0636                 1.6436
 IR Inten    --      1.0675                 0.5887                13.0732

                     31                     32                     33
                      A                      A                      A
 Frequencies --   1267.0128              1287.8981              1304.8596
 Red. masses --      1.9617                 1.4862                 1.9540
 Frc consts  --      1.8554                 1.4524                 1.9602
 IR Inten    --      4.0366                 8.3565                14.5205

                     34                     35                     36
                      A                      A                      A
 Frequencies --   1342.8702              1381.3405              1407.4645
 Red. masses --      1.9319                 1.4807                 1.3495
 Frc consts  --      2.0526                 1.6647                 1.5750
 IR Inten    --     12.1602                10.3599                15.8369

                     37                     38                     39
                      A                      A                      A
 Frequencies --   1447.2289              1482.4674              1490.9905
 Red. masses --      1.4128                 1.1123                 1.4632
 Frc consts  --      1.7434                 1.4403                 1.9165
 IR Inten    --      6.1223                 2.1307                 2.2689

                     40                     41                     42
                      A                      A                      A
 Frequencies --   1496.5676              1522.9537              3026.1166
 Red. masses --      1.0496                 1.6986                 1.0814
 Frc consts  --      1.3850                 2.3213                 5.8344
 IR Inten    --      2.8226                 1.5978                50.2511

                     43                     44                     45
                      A                      A                      A
 Frequencies --   3035.2502              3091.0955              3107.0639
 Red. masses --      1.0385                 1.0513                 1.1001
 Frc consts  --      5.6369                 5.9184                 6.2575
 IR Inten    --     25.0577                30.2924                16.7418

                     46                     47                     48
                      A                      A                      A
 Frequencies --   3111.9603              3115.3524              3124.2888
 Red. masses --      1.0626                 1.0794                 1.1029
 Frc consts  --      6.0630                 6.1724                 6.3428
 IR Inten    --      6.7907                28.3215                17.7381

                     49                     50                     51
                      A                      A                      A
 Frequencies --   3189.5072              3199.6521              3207.7988
 Red. masses --      1.1183                 1.1039                 1.1061
 Frc consts  --      6.7029                 6.6589                 6.7060
 IR Inten    --     15.2627                 3.9000                11.1176

 - Thermochemistry -
 -------------------
 Temperature   298.150 Kelvin.  Pressure   1.00000 Atm.
 Atom     1 has atomic number  6 and mass  12.00000

 Molecular mass:   126.06808 amu.
 Principal axes and moments of inertia in atomic units:
                           1         2         3
     Eigenvalues --   673.894191231.283361553.14669
           X            0.99893   0.04274   0.01767
           Y           -0.04250   0.99900  -0.01358
           Z           -0.01823   0.01281   0.99975
 This molecule is an asymmetric top.
 Rotational symmetry number  1.
 Warning -- assumption of classical behavior for rotation
           may cause significant error
 Rotational temperatures (Kelvin)      0.12853     0.07034     0.05577
 Rotational constants (GHZ):           2.67808     1.46574     1.16199
 Zero-point vibrational energy     415198.8 (Joules/Mol)
                                   99.23491 (Kcal/Mol)
 Warning -- explicit consideration of  10 degrees of freedom as
           vibrations may cause significant error
 Vibrational temperatures:    108.61   157.55   280.80   351.83   364.31
          (Kelvin)            425.29   570.68   624.61   683.31   786.76
                              948.21  1111.30  1188.58  1217.00  1260.80
                             1274.78  1311.12  1355.45  1416.63  1431.89
                             1445.48  1466.98  1517.30  1561.87  1580.01
                             1583.72  1668.06  1670.66  1676.84  1729.27
                             1822.95  1853.00  1877.40  1932.09  1987.44
                             2025.02  2082.24  2132.94  2145.20  2153.22
                             2191.19  4353.90  4367.04  4447.39  4470.37
                             4477.41  4482.29  4495.15  4588.98  4603.58
                             4615.30

 Zero-point correction=                           0.158141 (Hartree/Particle)
 Thermal correction to Energy=                    0.166451
 Thermal correction to Enthalpy=                  0.167395
 Thermal correction to Gibbs Free Energy=         0.125077
 Sum of electronic and zero-point Energies=           -422.964842
 Sum of electronic and thermal Energies=              -422.956532
 Sum of electronic and thermal Enthalpies=            -422.955588
 Sum of electronic and thermal Free Energies=         -422.997906

                     E (Thermal)             CV                S
                      KCal/Mol        Cal/Mol-Kelvin    Cal/Mol-Kelvin
 Total                  104.449             31.807             89.066
 Electronic               0.000              0.000              0.000
 Translational            0.889              2.981             40.409
 Rotational               0.889              2.981             28.646
 Vibrational            102.672             25.845             20.012
 Vibration     1          0.599              1.965              4.005
 Vibration     2          0.606              1.942              3.278
 Vibration     3          0.636              1.847              2.178
 Vibration     4          0.660              1.772              1.770
 Vibration     5          0.664              1.757              1.708
 Vibration     6          0.690              1.682              1.442
 Vibration     7          0.763              1.477              0.975
 Vibration     8          0.795              1.396              0.845
 Vibration     9          0.832              1.306              0.724
 Vibration    10          0.902              1.147              0.551

 Normal termination of Gaussian 09 at Tue Jan 28 03:15:40 2020.
