 Gaussian 09, Revision D.01,
 Gaussian 09:  ES64L-G09RevD.01 24-Apr-2013

 -----------------------------
 # b3lyp 6-31G(2df,p) opt Freq
 -----------------------------

 -----
 titel
 -----
 Symbolic Z-matrix:
 Charge =  0 Multiplicity = 1

 SCF Done:  E(RB3LYP) =  -423.174999761     A.U. after   14 cycles
 Optimization completed.
    -- Stationary point found.
 Normal termination of Gaussian 09 at Mon Jan 27 22:09:01 2020.

 ----------------------------------------------------------------------
 #N Geom=AllCheck Guess=TCheck SCRF=Check GenChk RB3LYP/6-31G(2df,p) Fr
 eq
 ----------------------------------------------------------------------

 Structure from the checkpoint file:  "/scratch/puck/g09_cc4c2f70-cca7-4e43-8ea3-255308684f8a/Gau-51142.chk"
 -----
 titel
 -----
 Charge =  0 Multiplicity = 1

                         Standard orientation:
 ---------------------------------------------------------------------
 Center     Atomic      Atomic             Coordinates (Angstroms)
 Number     Number       Type             X           Y           Z
 ---------------------------------------------------------------------
      1          6           0       -0.487949    1.797081    1.017474
      2          6           0       -0.587586    0.585070    0.123955
      3          6           0       -1.896848    0.248131   -0.625426
      4          6           0       -1.686815   -1.262095   -0.315977
      5          6           0       -0.523205   -0.922809    0.669097
      6          6           0        0.881850   -0.959214    0.115597
      7          8           0        1.914061   -1.436870    0.510548
      8          6           0        0.689804    0.282825   -0.765651
      9          8           0        1.766810    1.173315   -0.746120
     10          1           0       -0.539206    2.717532    0.425421
     11          1           0       -1.303990    1.814804    1.746980
     12          1           0        0.461486    1.815498    1.560638
     13          1           0       -2.776789    0.651196   -0.116050
     14          1           0       -1.941950    0.544400   -1.677949
     15          1           0       -2.531585   -1.756478    0.165685
     16          1           0       -1.383544   -1.870474   -1.171539
     17          1           0       -0.649832   -1.215846    1.711698
     18          1           0        0.399996    0.065414   -1.802554
     19          1           0        2.482944    0.728458   -0.272170
 ---------------------------------------------------------------------

 SCF Done:  E(RB3LYP) =  -423.174999761     A.U. after    1 cycles

 The electronic state is 1-A.
 Alpha  occ. eigenvalues --  -19.14683 -19.14363 -10.27032 -10.23779 -10.20976
 Alpha  occ. eigenvalues --  -10.20188 -10.19964 -10.19263 -10.18158  -1.05673
 Alpha  occ. eigenvalues --   -1.02531  -0.88421  -0.74816  -0.73175  -0.67304
 Alpha  occ. eigenvalues --   -0.61825  -0.56142  -0.54222  -0.49594  -0.48954
 Alpha  occ. eigenvalues --   -0.46347  -0.45579  -0.42797  -0.41961  -0.41504
 Alpha  occ. eigenvalues --   -0.39535  -0.37388  -0.36177  -0.34997  -0.34157
 Alpha  occ. eigenvalues --   -0.31713  -0.29601  -0.26567  -0.24713
 Alpha virt. eigenvalues --   -0.02620   0.07096   0.08733   0.09677   0.10567
 Alpha virt. eigenvalues --    0.13036   0.14138   0.14305   0.16398   0.16777
 Alpha virt. eigenvalues --    0.17216   0.18182   0.20388   0.20924   0.21639

 Mulliken charges:
               1
     1  C   -0.477379
     2  C    0.292378
     3  C   -0.275333
     4  C   -0.243601
     5  C   -0.186828
     6  C    0.353515
     7  O   -0.329012
     8  C    0.009524
     9  O   -0.435219
    10  H    0.130782
    11  H    0.113637
    12  H    0.124171
    13  H    0.106146
    14  H    0.102682
    15  H    0.117539
    16  H    0.114544
    17  H    0.090960
    18  H    0.094448
    19  H    0.297047
 Sum of Mulliken charges =   0.00000

 Dipole moment (field-independent basis, Debye):
    X=             -2.5787    Y=              0.1969    Z=              0.0381  Tot=              2.5865
 Quadrupole moment (field-independent basis, Debye-Ang):
   XX=            -54.6976   YY=            -56.9617   ZZ=            -52.6196
   XY=              2.5793   XZ=             -0.3032   YZ=              2.7562

  Exact polarizability:  85.103  -0.597  75.016   1.836  -1.238  66.622
 Approx polarizability: 124.683  -5.222 109.479   4.299  -6.080 101.553

                      1                      2                      3
                      A                      A                      A
 Frequencies --     68.3253               167.7335               183.0866
 Red. masses --      4.7846                 2.7597                 1.1866
 Frc consts  --      0.0132                 0.0457                 0.0234
 IR Inten    --      0.6534                 4.9732                 2.4387

                      4                      5                      6
                      A                      A                      A
 Frequencies --    205.5871               236.6060               289.9060
 Red. masses --      2.5143                 3.3998                 1.7995
 Frc consts  --      0.0626                 0.1121                 0.0891
 IR Inten    --      7.5826                 7.5851                18.9587

                      7                      8                      9
                      A                      A                      A
 Frequencies --    320.9725               338.1553               409.6410
 Red. masses --      2.6690                 1.5156                 3.2803
 Frc consts  --      0.1620                 0.1021                 0.3243
 IR Inten    --      0.1472                36.2893                 8.4937

                     10                     11                     12
                      A                      A                      A
 Frequencies --    453.4709               592.3281               660.1743
 Red. masses --      4.2226                 3.8232                 3.0959
 Frc consts  --      0.5116                 0.7903                 0.7950
 IR Inten    --      0.5664                 2.0842                 1.7925

                     13                     14                     15
                      A                      A                      A
 Frequencies --    694.1795               754.7140               798.6526
 Red. masses --      2.1899                 2.1026                 2.6456
 Frc consts  --      0.6218                 0.7056                 0.9942
 IR Inten    --      6.4591                 1.4625                19.2179

                     16                     17                     18
                      A                      A                      A
 Frequencies --    817.8020               847.0106               908.7942
 Red. masses --      2.4732                 4.1792                 1.7042
 Frc consts  --      0.9746                 1.7665                 0.8293
 IR Inten    --      2.4525                 7.4053                21.4887

                     19                     20                     21
                      A                      A                      A
 Frequencies --    938.9458               955.6956              1004.7833
 Red. masses --      2.0180                 2.7159                 1.8050
 Frc consts  --      1.0482                 1.4615                 1.0737
 IR Inten    --      2.4677                 0.8430                 2.6827

                     22                     23                     24
                      A                      A                      A
 Frequencies --   1043.0044              1083.2683              1113.8602
 Red. masses --      2.1416                 1.4249                 1.7633
 Frc consts  --      1.3727                 0.9852                 1.2890
 IR Inten    --      8.5502                18.2245                 7.9918

                     25                     26                     27
                      A                      A                      A
 Frequencies --   1133.0872              1166.1380              1205.5563
 Red. masses --      2.0579                 2.1069                 2.1543
 Frc consts  --      1.5567                 1.6881                 1.8447
 IR Inten    --     96.0485                21.6566                 7.4297

                     28                     29                     30
                      A                      A                      A
 Frequencies --   1211.8469              1229.3635              1250.8247
 Red. masses --      1.7355                 1.7349                 1.5929
 Frc consts  --      1.5016                 1.5449                 1.4684
 IR Inten    --      5.9516                 1.6640                 1.1755

                     31                     32                     33
                      A                      A                      A
 Frequencies --   1267.2734              1283.0643              1318.6878
 Red. masses --      1.4667                 1.5843                 2.3250
 Frc consts  --      1.3878                 1.5367                 2.3821
 IR Inten    --      0.3730                 2.4161                 5.4823

                     34                     35                     36
                      A                      A                      A
 Frequencies --   1343.7125              1404.1035              1415.4333
 Red. masses --      1.4567                 1.2408                 1.3079
 Frc consts  --      1.5497                 1.4413                 1.5438
 IR Inten    --     12.1833                44.9121                 2.5098

                     37                     38                     39
                      A                      A                      A
 Frequencies --   1477.8633              1484.4688              1489.6734
 Red. masses --      1.0751                 1.0571                 1.0517
 Frc consts  --      1.3834                 1.3725                 1.3751
 IR Inten    --      1.5713                 5.9545                 3.6139

                     40                     41                     42
                      A                      A                      A
 Frequencies --   1495.3282              1846.4135              3010.2722
 Red. masses --      1.1083                12.3715                 1.0833
 Frc consts  --      1.4601                24.8502                 5.7838
 IR Inten    --      2.1717               274.3046                27.6386

                     43                     44                     45
                      A                      A                      A
 Frequencies --   3032.9655              3047.5775              3069.4730
 Red. masses --      1.0357                 1.0580                 1.0615
 Frc consts  --      5.6133                 5.7898                 5.8926
 IR Inten    --     19.7685                41.1615                32.2724

                     46                     47                     48
                      A                      A                      A
 Frequencies --   3095.1804              3098.5993              3109.8876
 Red. masses --      1.1064                 1.1011                 1.1003
 Frc consts  --      6.2451                 6.2287                 6.2700
 IR Inten    --      9.9083                20.4036                13.5608

                     49                     50                     51
                      A                      A                      A
 Frequencies --   3111.7754              3127.9207              3745.9465
 Red. masses --      1.0925                 1.1037                 1.0660
 Frc consts  --      6.2330                 6.3625                 8.8128
 IR Inten    --      8.5941                31.0265                38.6387

 - Thermochemistry -
 -------------------
 Temperature   298.150 Kelvin.  Pressure   1.00000 Atm.
 Atom     1 has atomic number  6 and mass  12.00000

 Molecular mass:   126.06808 amu.
 Principal axes and moments of inertia in atomic units:
                           1         2         3
     Eigenvalues --   798.511781071.168351440.40439
           X            0.99892   0.04622   0.00356
           Y           -0.04635   0.99743   0.05463
           Z           -0.00103  -0.05474   0.99850
 This molecule is an asymmetric top.
 Rotational symmetry number  1.
 Warning -- assumption of classical behavior for rotation
           may cause significant error
 Rotational temperatures (Kelvin)      0.10847     0.08086     0.06013
 Rotational constants (GHZ):           2.26013     1.68483     1.25294
 Zero-point vibrational energy     414859.7 (Joules/Mol)
                                   99.15386 (Kcal/Mol)
 Warning -- explicit consideration of  11 degrees of freedom as
           vibrations may cause significant error
 Vibrational temperatures:     98.30   241.33   263.42   295.79   340.42
          (Kelvin)            417.11   461.81   486.53   589.38   652.44
                              852.23   949.84   998.77  1085.86  1149.08
                             1176.63  1218.66  1307.55  1350.93  1375.03
                             1445.66  1500.65  1558.58  1602.59  1630.26
                             1677.81  1734.52  1743.58  1768.78  1799.66
                             1823.32  1846.04  1897.30  1933.30  2020.19
                             2036.49  2126.31  2135.82  2143.31  2151.44
                             2656.57  4331.10  4363.76  4384.78  4416.28
                             4453.27  4458.19  4474.43  4477.15  4500.37
                             5389.57

 Zero-point correction=                           0.158012 (Hartree/Particle)
 Thermal correction to Energy=                    0.166825
 Thermal correction to Enthalpy=                  0.167769
 Thermal correction to Gibbs Free Energy=         0.124695
 Sum of electronic and zero-point Energies=           -423.016988
 Sum of electronic and thermal Energies=              -423.008175
 Sum of electronic and thermal Enthalpies=            -423.007230
 Sum of electronic and thermal Free Energies=         -423.050304

                     E (Thermal)             CV                S
                      KCal/Mol        Cal/Mol-Kelvin    Cal/Mol-Kelvin
 Total                  104.684             33.398             90.657
 Electronic               0.000              0.000              0.000
 Translational            0.889              2.981             40.409
 Rotational               0.889              2.981             28.601
 Vibrational            102.907             27.436             21.647
 Vibration     1          0.598              1.969              4.201
 Vibration     2          0.624              1.882              2.461
 Vibration     3          0.631              1.863              2.297
 Vibration     4          0.640              1.832              2.083
 Vibration     5          0.655              1.785              1.828
 Vibration     6          0.686              1.693              1.475
 Vibration     7          0.706              1.633              1.305
 Vibration     8          0.718              1.599              1.221
 Vibration     9          0.774              1.449              0.928
 Vibration    10          0.812              1.353              0.785
 Vibration    11          0.950              1.048              0.463

 Optimization completed.
    -- Stationary point found.
 Normal termination of Gaussian 09 at Mon Jan 27 23:53:50 2020.
