 Gaussian 09, Revision D.01,
 Gaussian 09:  ES64L-G09RevD.01 24-Apr-2013

 -----------------------------
 # b3lyp 6-31G(2df,p) opt Freq
 -----------------------------

 -----
 titel
 -----
 Symbolic Z-matrix:
 Charge =  0 Multiplicity = 1

 SCF Done:  E(RB3LYP) =  -423.229164233     A.U. after   14 cycles
 Optimization completed.
    -- Stationary point found.
 Normal termination of Gaussian 09 at Mon Jan 27 14:00:02 2020.

 ----------------------------------------------------------------------
 #N Geom=AllCheck Guess=TCheck SCRF=Check GenChk RB3LYP/6-31G(2df,p) Fr
 eq
 ----------------------------------------------------------------------

 Structure from the checkpoint file:  "/scratch/puck/g09_1a91015e-93e9-44ed-88a2-ecb7e5789296/Gau-3855.chk"
 -----
 titel
 -----
 Charge =  0 Multiplicity = 1

                         Standard orientation:
 ---------------------------------------------------------------------
 Center     Atomic      Atomic             Coordinates (Angstroms)
 Number     Number       Type             X           Y           Z
 ---------------------------------------------------------------------
      1          8           0       -2.744459   -0.905606   -0.566742
      2          6           0       -2.637013   -0.250341    0.434384
      3          8           0       -1.754835    0.729863    0.663287
      4          6           0       -0.835787    1.059896   -0.418488
      5          6           0        0.508805    0.452416   -0.192913
      6          6           0        1.653501    1.127549   -0.069283
      7          6           0        2.852331    0.218763    0.036034
      8          6           0        2.212621   -1.170838    0.293776
      9          6           0        0.744029   -1.045505   -0.184897
     10          1           0       -3.267448   -0.365310    1.330273
     11          1           0       -1.282065    0.709689   -1.353493
     12          1           0       -0.780643    2.150253   -0.420583
     13          1           0        1.734974    2.209859   -0.087961
     14          1           0        3.431962    0.237901   -0.898112
     15          1           0        3.545917    0.517401    0.830093
     16          1           0        2.750293   -1.983390   -0.200607
     17          1           0        2.227221   -1.381260    1.367687
     18          1           0        0.597554   -1.455660   -1.193914
     19          1           0        0.045660   -1.585173    0.462584
 ---------------------------------------------------------------------

 SCF Done:  E(RB3LYP) =  -423.229164233     A.U. after    1 cycles

 The electronic state is 1-A.
 Alpha  occ. eigenvalues --  -19.18778 -19.13298 -10.30787 -10.24326 -10.18827
 Alpha  occ. eigenvalues --  -10.18555 -10.18344 -10.18284 -10.18214  -1.10205
 Alpha  occ. eigenvalues --   -1.01978  -0.84749  -0.76096  -0.70783  -0.68620
 Alpha  occ. eigenvalues --   -0.59608  -0.57622  -0.52837  -0.52388  -0.49674
 Alpha  occ. eigenvalues --   -0.47455  -0.46222  -0.43624  -0.42339  -0.39776
 Alpha  occ. eigenvalues --   -0.37771  -0.36433  -0.35172  -0.34184  -0.34105
 Alpha  occ. eigenvalues --   -0.33923  -0.30259  -0.28211  -0.24167
 Alpha virt. eigenvalues --    0.00556   0.01858   0.09432   0.11172   0.11652
 Alpha virt. eigenvalues --    0.12910   0.13616   0.15152   0.15731   0.17061
 Alpha virt. eigenvalues --    0.18513   0.18969   0.19423   0.21432   0.23015

 Mulliken charges:
               1
     1  O   -0.310743
     2  C    0.196514
     3  O   -0.206395
     4  C   -0.208987
     5  C    0.348228
     6  C   -0.169231
     7  C   -0.244772
     8  C   -0.209867
     9  C   -0.297406
    10  H    0.110541
    11  H    0.141157
    12  H    0.117962
    13  H    0.089029
    14  H    0.108145
    15  H    0.105023
    16  H    0.099862
    17  H    0.107333
    18  H    0.112533
    19  H    0.111074
 Sum of Mulliken charges =   0.00000

 Dipole moment (field-independent basis, Debye):
    X=              1.4293    Y=              1.0911    Z=              0.6433  Tot=              1.9098
 Quadrupole moment (field-independent basis, Debye-Ang):
   XX=            -53.8782   YY=            -52.7559   ZZ=            -53.4146
   XY=             -2.6916   XZ=             -3.8140   YZ=             -2.7368

  Exact polarizability: 100.643   8.541  75.988  -0.385   0.861  61.026
 Approx polarizability: 132.788  19.815 114.946   2.482   8.572  99.298

                      1                      2                      3
                      A                      A                      A
 Frequencies --     36.4382                55.0152               112.1993
 Red. masses --      6.5524                 3.6439                 2.3457
 Frc consts  --      0.0051                 0.0065                 0.0174
 IR Inten    --      1.6755                 1.2743                 0.2327

                      4                      5                      6
                      A                      A                      A
 Frequencies --    157.5545               239.8066               276.7088
 Red. masses --      2.1256                 4.6898                 2.5264
 Frc consts  --      0.0311                 0.1589                 0.1140
 IR Inten    --      1.2128                 3.6551                 7.6235

                      7                      8                      9
                      A                      A                      A
 Frequencies --    342.9536               392.8222               497.9897
 Red. masses --      2.8341                 2.2436                 3.2273
 Frc consts  --      0.1964                 0.2040                 0.4715
 IR Inten    --     15.2466                 6.3251                 3.5503

                     10                     11                     12
                      A                      A                      A
 Frequencies --    607.1058               703.1496               762.5006
 Red. masses --      2.1042                 3.2038                 4.1414
 Frc consts  --      0.4569                 0.9333                 1.4187
 IR Inten    --      5.6324                 8.6346                 2.8968

                     13                     14                     15
                      A                      A                      A
 Frequencies --    811.1931               841.4623               875.8577
 Red. masses --      2.0051                 1.5804                 2.6338
 Frc consts  --      0.7774                 0.6593                 1.1904
 IR Inten    --      7.5673                18.6164                 1.1066

                     16                     17                     18
                      A                      A                      A
 Frequencies --    897.5908               909.7601               922.6759
 Red. masses --      1.8031                 2.8991                 2.6836
 Frc consts  --      0.8559                 1.4137                 1.3461
 IR Inten    --     10.0430                10.8431                 8.2370

                     19                     20                     21
                      A                      A                      A
 Frequencies --    960.9963              1027.2938              1041.0559
 Red. masses --      2.0503                 1.8003                 1.9318
 Frc consts  --      1.1156                 1.1194                 1.2335
 IR Inten    --      1.5396                 3.2090                 5.1886

                     22                     23                     24
                      A                      A                      A
 Frequencies --   1045.9910              1073.9771              1153.5062
 Red. masses --      1.6783                 1.8390                 1.2187
 Frc consts  --      1.0819                 1.2497                 0.9554
 IR Inten    --      0.4271                 9.4255                 5.2868

                     25                     26                     27
                      A                      A                      A
 Frequencies --   1176.2307              1187.3668              1230.4500
 Red. masses --      1.8784                 4.0988                 1.2197
 Frc consts  --      1.5312                 3.4047                 1.0880
 IR Inten    --     33.7225               323.9892                 3.5890

                     28                     29                     30
                      A                      A                      A
 Frequencies --   1250.7109              1271.2270              1308.0396
 Red. masses --      1.6299                 1.3857                 1.2412
 Frc consts  --      1.5022                 1.3194                 1.2513
 IR Inten    --      0.6044                21.3499                19.6079

                     31                     32                     33
                      A                      A                      A
 Frequencies --   1321.9518              1329.8194              1372.9484
 Red. masses --      1.3788                 1.5689                 1.8817
 Frc consts  --      1.4196                 1.6347                 2.0899
 IR Inten    --      0.0360                 0.4492                 1.2062

                     34                     35                     36
                      A                      A                      A
 Frequencies --   1396.5553              1409.0678              1479.8414
 Red. masses --      1.2630                 1.1697                 1.0918
 Frc consts  --      1.4514                 1.3684                 1.4088
 IR Inten    --      8.2562                 2.5987                 3.2288

                     37                     38                     39
                      A                      A                      A
 Frequencies --   1481.3372              1485.1328              1504.9794
 Red. masses --      1.1057                 1.0829                 1.1026
 Frc consts  --      1.4295                 1.4073                 1.4713
 IR Inten    --      8.0049                 0.8789                 0.7076

                     40                     41                     42
                      A                      A                      A
 Frequencies --   1717.0930              1815.7914              3005.8355
 Red. masses --      7.1505                 9.1792                 1.0696
 Frc consts  --     12.4216                17.8315                 5.6936
 IR Inten    --      1.9810               259.6726                40.9592

                     43                     44                     45
                      A                      A                      A
 Frequencies --   3014.3881              3024.5889              3048.2404
 Red. masses --      1.0701                 1.0900                 1.0778
 Frc consts  --      5.7288                 5.8749                 5.9004
 IR Inten    --     28.5571                69.8534                 9.0861

                     46                     47                     48
                      A                      A                      A
 Frequencies --   3060.4486              3064.6577              3072.6652
 Red. masses --      1.0823                 1.0571                 1.0848
 Frc consts  --      5.9726                 5.8497                 6.0342
 IR Inten    --     40.6736                17.3826                30.4841

                     49                     50                     51
                      A                      A                      A
 Frequencies --   3104.9715              3123.6591              3182.1036
 Red. masses --      1.1035                 1.1074                 1.0935
 Frc consts  --      6.2680                 6.3663                 6.5240
 IR Inten    --     35.9684                 8.8659                15.5799

 - Thermochemistry -
 -------------------
 Temperature   298.150 Kelvin.  Pressure   1.00000 Atm.
 Atom     1 has atomic number  8 and mass  15.99491

 Molecular mass:   126.06808 amu.
 Principal axes and moments of inertia in atomic units:
                           1         2         3
     Eigenvalues --   472.030131931.271362208.27894
           X            0.99994  -0.01085  -0.00127
           Y            0.01080   0.99930  -0.03587
           Z            0.00166   0.03585   0.99936
 This molecule is an asymmetric top.
 Rotational symmetry number  1.
 Warning -- assumption of classical behavior for rotation
           may cause significant error
 Rotational temperatures (Kelvin)      0.18349     0.04485     0.03922
 Rotational constants (GHZ):           3.82336     0.93448     0.81726
 Zero-point vibrational energy     419803.7 (Joules/Mol)
                                  100.33550 (Kcal/Mol)
 Warning -- explicit consideration of  10 degrees of freedom as
           vibrations may cause significant error
 Vibrational temperatures:     52.43    79.15   161.43   226.69   345.03
          (Kelvin)            398.12   493.43   565.18   716.50   873.49
                             1011.67  1097.07  1167.12  1210.68  1260.16
                             1291.43  1308.94  1327.52  1382.66  1478.04
                             1497.85  1504.95  1545.21  1659.64  1692.33
                             1708.35  1770.34  1799.49  1829.01  1881.97
                             1901.99  1913.31  1975.36  2009.33  2027.33
                             2129.16  2131.31  2136.77  2165.33  2470.51
                             2612.52  4324.72  4337.03  4351.70  4385.73
                             4403.30  4409.35  4420.87  4467.36  4494.24
                             4578.33

 Zero-point correction=                           0.159895 (Hartree/Particle)
 Thermal correction to Energy=                    0.168676
 Thermal correction to Enthalpy=                  0.169620
 Thermal correction to Gibbs Free Energy=         0.124792
 Sum of electronic and zero-point Energies=           -423.069269
 Sum of electronic and thermal Energies=              -423.060489
 Sum of electronic and thermal Enthalpies=            -423.059544
 Sum of electronic and thermal Free Energies=         -423.104372

                     E (Thermal)             CV                S
                      KCal/Mol        Cal/Mol-Kelvin    Cal/Mol-Kelvin
 Total                  105.846             31.389             94.347
 Electronic               0.000              0.000              0.000
 Translational            0.889              2.981             40.409
 Rotational               0.889              2.981             29.089
 Vibrational            104.068             25.428             24.850
 Vibration     1          0.594              1.982              5.444
 Vibration     2          0.596              1.976              4.628
 Vibration     3          0.607              1.939              3.231
 Vibration     4          0.621              1.894              2.579
 Vibration     5          0.657              1.780              1.804
 Vibration     6          0.678              1.717              1.554
 Vibration     7          0.722              1.590              1.198
 Vibration     8          0.760              1.486              0.989
 Vibration     9          0.853              1.254              0.663
 Vibration    10          0.966              1.017              0.438

 Optimization completed.
    -- Stationary point found.
 Normal termination of Gaussian 09 at Mon Jan 27 15:42:53 2020.
