 Gaussian 09, Revision D.01,
 Gaussian 09:  ES64L-G09RevD.01 24-Apr-2013

 -----------------------------
 # b3lyp 6-31G(2df,p) opt Freq
 -----------------------------

 -----
 titel
 -----
 Symbolic Z-matrix:
 Charge =  0 Multiplicity = 1

 SCF Done:  E(RB3LYP) =  -423.172859744     A.U. after   14 cycles
 SCF Done:  E(RB3LYP) =  -423.172859592     A.U. after    8 cycles
 SCF Done:  E(RB3LYP) =  -423.172859483     A.U. after    7 cycles
 Optimization completed.
    -- Stationary point found.
 Normal termination of Gaussian 09 at Tue Jan 28 08:16:16 2020.

 ----------------------------------------------------------------------
 #N Geom=AllCheck Guess=TCheck SCRF=Check GenChk RB3LYP/6-31G(2df,p) Fr
 eq
 ----------------------------------------------------------------------

 Structure from the checkpoint file:  "/scratch/puck/g09_4bbe5002-574b-447e-9b79-495cb33d58cd/Gau-128013.chk"
 -----
 titel
 -----
 Charge =  0 Multiplicity = 1

                         Standard orientation:
 ---------------------------------------------------------------------
 Center     Atomic      Atomic             Coordinates (Angstroms)
 Number     Number       Type             X           Y           Z
 ---------------------------------------------------------------------
      1          6           0       -2.805159   -1.335527   -0.556347
      2          6           0       -1.704248   -0.300877   -0.772088
      3          6           0       -1.046187    0.150832    0.517598
      4          8           0       -1.409780   -0.198429    1.613227
      5          6           0        0.165104    1.117120    0.374140
      6          8           0       -0.028314    2.051892   -0.684681
      7          6           0        1.380078    0.326408    0.209649
      8          6           0        2.359785   -0.348531    0.015654
      9          6           0        3.554417   -1.154228   -0.186840
     10          1           0       -3.262143   -1.617704   -1.508892
     11          1           0       -2.409222   -2.237346   -0.081715
     12          1           0       -3.585581   -0.940698    0.098831
     13          1           0       -0.913570   -0.682228   -1.433308
     14          1           0       -2.082956    0.598467   -1.272778
     15          1           0        0.205503    1.685273    1.310541
     16          1           0        0.492764    1.755627   -1.437406
     17          1           0        4.416835   -0.528306   -0.440155
     18          1           0        3.804130   -1.712517    0.721779
     19          1           0        3.416249   -1.879448   -0.995865
 ---------------------------------------------------------------------

 SCF Done:  E(RB3LYP) =  -423.172859483     A.U. after    1 cycles

 The electronic state is 1-A.
 Alpha  occ. eigenvalues --  -19.15216 -19.13171 -10.26773 -10.26060 -10.21615
 Alpha  occ. eigenvalues --  -10.19576 -10.19123 -10.18496 -10.17480  -1.04664
 Alpha  occ. eigenvalues --   -1.03068  -0.79678  -0.77825  -0.74956  -0.69017
 Alpha  occ. eigenvalues --   -0.64473  -0.55069  -0.53314  -0.48719  -0.46770
 Alpha  occ. eigenvalues --   -0.46572  -0.45358  -0.43897  -0.43822  -0.42289
 Alpha  occ. eigenvalues --   -0.38667  -0.37281  -0.36238  -0.36130  -0.34041
 Alpha  occ. eigenvalues --   -0.31012  -0.27743  -0.27154  -0.23245
 Alpha virt. eigenvalues --   -0.01875   0.02867   0.05397   0.08717   0.10134
 Alpha virt. eigenvalues --    0.11197   0.14181   0.15374   0.16229   0.16466
 Alpha virt. eigenvalues --    0.16814   0.17849   0.19216   0.20264   0.21946

 Mulliken charges:
               1
     1  C   -0.380336
     2  C   -0.285926
     3  C    0.372375
     4  O   -0.300537
     5  C   -0.092440
     6  O   -0.421638
     7  C    0.048351
     8  C    0.036747
     9  C   -0.498915
    10  H    0.109223
    11  H    0.128752
    12  H    0.134217
    13  H    0.116863
    14  H    0.140880
    15  H    0.131830
    16  H    0.291348
    17  H    0.155475
    18  H    0.161135
    19  H    0.152595
 Sum of Mulliken charges =   0.00000

 Dipole moment (field-independent basis, Debye):
    X=              2.2994    Y=             -1.0128    Z=             -2.6339  Tot=              3.6401
 Quadrupole moment (field-independent basis, Debye-Ang):
   XX=            -46.3298   YY=            -54.8030   ZZ=            -54.6358
   XY=             -2.8694   XZ=              1.8797   YZ=              1.4149

  Exact polarizability: 102.368  -9.361  72.450  -3.042   0.886  68.974
 Approx polarizability: 134.999 -23.464 108.599 -11.232  -0.654 109.572

 ******    1 imaginary frequencies (negative Signs) ******

                      1                      2                      3
                      A                      A                      A
 Frequencies --    -11.8111                38.0649                62.5527
 Red. masses --      1.0174                 4.3555                 2.4194
 Frc consts  --      0.0001                 0.0037                 0.0056
 IR Inten    --      0.0240                 2.5992                 2.1131

                      4                      5                      6
                      A                      A                      A
 Frequencies --     95.9905               130.7292               143.7509
 Red. masses --      2.5760                 1.8426                 1.6742
 Frc consts  --      0.0140                 0.0186                 0.0204
 IR Inten    --      3.3765                41.7655                55.9294

                      7                      8                      9
                      A                      A                      A
 Frequencies --    187.2578               198.2744               245.9567
 Red. masses --      1.2764                 3.3924                 3.7379
 Frc consts  --      0.0264                 0.0786                 0.1332
 IR Inten    --      0.8431                 0.1182                 1.3267

                     10                     11                     12
                      A                      A                      A
 Frequencies --    291.7245               321.9190               397.4292
 Red. masses --      3.9577                 4.1087                 5.0958
 Frc consts  --      0.1984                 0.2509                 0.4742
 IR Inten    --     13.7029                 7.1149                 0.1876

                     13                     14                     15
                      A                      A                      A
 Frequencies --    458.7649               521.4574               587.8439
 Red. masses --      7.9373                 3.2396                 3.4980
 Frc consts  --      0.9842                 0.5190                 0.7122
 IR Inten    --      4.6834                 1.8671                 3.7541

                     16                     17                     18
                      A                      A                      A
 Frequencies --    646.5966               735.7437               785.4588
 Red. masses --      3.8232                 2.7063                 2.7423
 Frc consts  --      0.9418                 0.8631                 0.9968
 IR Inten    --     25.5242                 6.7235                 8.0549

                     19                     20                     21
                      A                      A                      A
 Frequencies --    830.5196               996.4255              1036.4173
 Red. masses --      1.7771                 1.7697                 4.5135
 Frc consts  --      0.7222                 1.0353                 2.8565
 IR Inten    --      8.6775                 2.2388               108.8807

                     22                     23                     24
                      A                      A                      A
 Frequencies --   1050.1190              1053.4813              1070.3581
 Red. masses --      1.4529                 1.4088                 2.6781
 Frc consts  --      0.9440                 0.9212                 1.8078
 IR Inten    --      0.6586                 1.2278                 7.7395

                     25                     26                     27
                      A                      A                      A
 Frequencies --   1084.0652              1146.7298              1169.3531
 Red. masses --      1.7593                 2.9521                 3.4022
 Frc consts  --      1.2181                 2.2872                 2.7410
 IR Inten    --      1.5230                63.3710                13.9089

                     28                     29                     30
                      A                      A                      A
 Frequencies --   1247.6826              1266.0628              1296.7881
 Red. masses --      1.2468                 1.2333                 1.2971
 Frc consts  --      1.1436                 1.1647                 1.2852
 IR Inten    --      6.0216                 3.0222                 5.6931

                     31                     32                     33
                      A                      A                      A
 Frequencies --   1368.0251              1389.5338              1413.2994
 Red. masses --      1.8273                 1.2871                 1.2384
 Frc consts  --      2.0149                 1.4643                 1.4574
 IR Inten    --     30.4553                74.4825                 2.0261

                     34                     35                     36
                      A                      A                      A
 Frequencies --   1414.4776              1451.9174              1474.6173
 Red. masses --      1.2274                 1.0856                 1.0391
 Frc consts  --      1.4469                 1.3483                 1.3312
 IR Inten    --      3.7733                10.4345                 6.9074

                     37                     38                     39
                      A                      A                      A
 Frequencies --   1476.7519              1492.9430              1498.4544
 Red. masses --      1.0398                 1.0383                 1.0502
 Frc consts  --      1.3360                 1.3634                 1.3894
 IR Inten    --      6.0803                 5.3017                 7.0250

                     40                     41                     42
                      A                      A                      A
 Frequencies --   1820.1879              2359.6483              3024.8474
 Red. masses --     11.5355                11.8612                 1.0657
 Frc consts  --     22.5175                38.9111                 5.7448
 IR Inten    --    144.3802                16.1490                17.1974

                     43                     44                     45
                      A                      A                      A
 Frequencies --   3031.1924              3049.3431              3050.7118
 Red. masses --      1.0347                 1.0830                 1.0361
 Frc consts  --      5.6012                 5.9333                 5.6813
 IR Inten    --     21.7759                13.9414                22.0872

                     46                     47                     48
                      A                      A                      A
 Frequencies --   3062.8835              3093.6474              3095.8400
 Red. masses --      1.0924                 1.1005                 1.1000
 Frc consts  --      6.0380                 6.2057                 6.2118
 IR Inten    --      3.7067                 7.8544                 6.0689

                     49                     50                     51
                      A                      A                      A
 Frequencies --   3121.2060              3127.3896              3828.9684
 Red. masses --      1.1021                 1.1015                 1.0667
 Frc consts  --      6.3255                 6.3476                 9.2138
 IR Inten    --     21.6339                18.7648                28.6571

 - Thermochemistry -
 -------------------
 Temperature   298.150 Kelvin.  Pressure   1.00000 Atm.
 Atom     1 has atomic number  6 and mass  12.00000

 Molecular mass:   126.06808 amu.
 Principal axes and moments of inertia in atomic units:
                           1         2         3
     Eigenvalues --   798.035472049.373602297.91701
           X            0.99991  -0.00262   0.01331
           Y            0.00195   0.99875   0.04999
           Z           -0.01342  -0.04996   0.99866
 This molecule is an asymmetric top.
 Rotational symmetry number  1.
 Warning -- assumption of classical behavior for rotation
           may cause significant error
 Rotational temperatures (Kelvin)      0.10853     0.04226     0.03769
 Rotational constants (GHZ):           2.26148     0.88063     0.78538
    1 imaginary frequencies ignored.
 Zero-point vibrational energy     405195.5 (Joules/Mol)
                                   96.84406 (Kcal/Mol)
 Warning -- explicit consideration of  14 degrees of freedom as
           vibrations may cause significant error
 Vibrational temperatures:     54.77    90.00   138.11   188.09   206.83
          (Kelvin)            269.42   285.27   353.88   419.73   463.17
                              571.81   660.06   750.26   845.78   930.31
                             1058.57  1130.10  1194.93  1433.63  1491.17
                             1510.89  1515.72  1540.00  1559.73  1649.89
                             1682.44  1795.13  1821.58  1865.79  1968.28
                             1999.23  2033.42  2035.12  2088.98  2121.64
                             2124.71  2148.01  2155.94  2618.84  3395.00
                             4352.08  4361.20  4387.32  4389.29  4406.80
                             4451.06  4454.22  4490.71  4499.61  5509.02

 Zero-point correction=                           0.154331 (Hartree/Particle)
 Thermal correction to Energy=                    0.165019
 Thermal correction to Enthalpy=                  0.165963
 Thermal correction to Gibbs Free Energy=         0.117185
 Sum of electronic and zero-point Energies=           -423.018529
 Sum of electronic and thermal Energies=              -423.007840
 Sum of electronic and thermal Enthalpies=            -423.006896
 Sum of electronic and thermal Free Energies=         -423.055674

                     E (Thermal)             CV                S
                      KCal/Mol        Cal/Mol-Kelvin    Cal/Mol-Kelvin
 Total                  103.551             36.329            102.662
 Electronic               0.000              0.000              0.000
 Translational            0.889              2.981             40.409
 Rotational               0.889              2.981             29.709
 Vibrational            101.774             30.367             32.545
 Vibration     1          0.594              1.982              5.357
 Vibration     2          0.597              1.972              4.375
 Vibration     3          0.603              1.952              3.534
 Vibration     4          0.612              1.923              2.935
 Vibration     5          0.616              1.909              2.753
 Vibration     6          0.632              1.857              2.255
 Vibration     7          0.637              1.842              2.149
 Vibration     8          0.660              1.769              1.759
 Vibration     9          0.687              1.689              1.464
 Vibration    10          0.707              1.632              1.300
 Vibration    11          0.764              1.476              0.972
 Vibration    12          0.817              1.342              0.770
 Vibration    13          0.876              1.202              0.607
 Vibration    14          0.945              1.058              0.471

 Normal termination of Gaussian 09 at Tue Jan 28 08:50:21 2020.
