 Gaussian 09, Revision D.01,
 Gaussian 09:  ES64L-G09RevD.01 24-Apr-2013

 -----------------------------
 # b3lyp 6-31G(2df,p) opt Freq
 -----------------------------

 -----
 titel
 -----
 Symbolic Z-matrix:
 Charge =  0 Multiplicity = 1

 SCF Done:  E(RB3LYP) =  -423.138420093     A.U. after   12 cycles
 Optimization completed.
    -- Stationary point found.
 Normal termination of Gaussian 09 at Mon Jan 27 23:41:49 2020.

 ----------------------------------------------------------------------
 #N Geom=AllCheck Guess=TCheck SCRF=Check GenChk RB3LYP/6-31G(2df,p) Fr
 eq
 ----------------------------------------------------------------------

 Structure from the checkpoint file:  "/scratch/puck/g09_377d3f53-3a83-4ebf-b683-e6e243f10ce5/Gau-103965.chk"
 -----
 titel
 -----
 Charge =  0 Multiplicity = 1

                         Standard orientation:
 ---------------------------------------------------------------------
 Center     Atomic      Atomic             Coordinates (Angstroms)
 Number     Number       Type             X           Y           Z
 ---------------------------------------------------------------------
      1          8           0        2.529747   -0.971315   -0.004530
      2          6           0        1.599484    0.025342   -0.363685
      3          6           0        0.817001    0.709193    0.794834
      4          6           0       -0.000003    1.753146   -0.000001
      5          6           0       -0.817000    0.709188   -0.794837
      6          6           0       -1.599484    0.025342    0.363684
      7          8           0       -2.529745   -0.971317    0.004530
      8          6           0       -0.210097   -0.505629    0.761078
      9          6           0        0.210097   -0.505634   -0.761073
     10          1           0        2.084986   -1.623678    0.547604
     11          1           0        2.132729    0.686091   -1.054228
     12          1           0        1.323753    1.020127    1.707956
     13          1           0       -0.637159    2.394066    0.616288
     14          1           0        0.637149    2.394070   -0.616291
     15          1           0       -1.323751    1.020117   -1.707961
     16          1           0       -2.132732    0.686094    1.054222
     17          1           0       -2.084981   -1.623682   -0.547599
     18          1           0       -0.080263   -1.338912    1.452214
     19          1           0        0.080264   -1.338922   -1.452203
 ---------------------------------------------------------------------

 SCF Done:  E(RB3LYP) =  -423.138420093     A.U. after    1 cycles

 The electronic state is 1-A.
 Alpha  occ. eigenvalues --  -19.13911 -19.13911 -10.23245 -10.23245 -10.19567
 Alpha  occ. eigenvalues --  -10.19550 -10.19383 -10.19383 -10.18774  -1.02631
 Alpha  occ. eigenvalues --   -1.02170  -0.90683  -0.73381  -0.71661  -0.67032
 Alpha  occ. eigenvalues --   -0.62311  -0.55812  -0.55063  -0.51686  -0.50906
 Alpha  occ. eigenvalues --   -0.47640  -0.45158  -0.43513  -0.39926  -0.38084
 Alpha  occ. eigenvalues --   -0.36550  -0.36482  -0.35811  -0.33890  -0.32249
 Alpha  occ. eigenvalues --   -0.31410  -0.27932  -0.25822  -0.24552
 Alpha virt. eigenvalues --    0.06291   0.07269   0.10032   0.10774   0.12201
 Alpha virt. eigenvalues --    0.12330   0.13820   0.15946   0.17362   0.17665
 Alpha virt. eigenvalues --    0.18263   0.19276   0.21210   0.21328   0.23023

 Mulliken charges:
               1
     1  O   -0.455766
     2  C    0.173642
     3  C   -0.091418
     4  C   -0.224780
     5  C   -0.091418
     6  C    0.173642
     7  O   -0.455766
     8  C   -0.109792
     9  C   -0.109792
    10  H    0.280615
    11  H    0.079637
    12  H    0.068299
    13  H    0.099130
    14  H    0.099129
    15  H    0.068299
    16  H    0.079637
    17  H    0.280614
    18  H    0.068044
    19  H    0.068044
 Sum of Mulliken charges =   0.00000

 Dipole moment (field-independent basis, Debye):
    X=              0.0000    Y=             -0.0038    Z=              0.0000  Tot=              0.0038
 Quadrupole moment (field-independent basis, Debye-Ang):
   XX=            -65.7294   YY=            -48.8677   ZZ=            -51.3385
   XY=              0.0000   XZ=              2.2115   YZ=              0.0000

  Exact polarizability:  79.465   0.000  75.154   0.057   0.000  66.810
 Approx polarizability: 113.237   0.000 111.988  -1.092   0.000 105.949

                      1                      2                      3
                      A                      A                      A
 Frequencies --    175.8425               229.7748               258.0647
 Red. masses --      4.9186                 4.2482                 1.1266
 Frc consts  --      0.0896                 0.1321                 0.0442
 IR Inten    --      2.2862                11.9895                38.2997

                      4                      5                      6
                      A                      A                      A
 Frequencies --    263.8965               345.1620               379.9090
 Red. masses --      1.1032                 3.6462                 3.9125
 Frc consts  --      0.0453                 0.2559                 0.3327
 IR Inten    --     80.4360                11.5852                18.4521

                      7                      8                      9
                      A                      A                      A
 Frequencies --    413.8585               477.0291               528.4280
 Red. masses --      1.9674                 5.4129                 3.9727
 Frc consts  --      0.1985                 0.7257                 0.6536
 IR Inten    --      3.8371                 0.2293                 1.7685

                     10                     11                     12
                      A                      A                      A
 Frequencies --    637.1867               803.7346               824.3712
 Red. masses --      4.1530                 2.3852                 2.5392
 Frc consts  --      0.9935                 0.9078                 1.0167
 IR Inten    --      3.0721                16.0999                 0.3100

                     13                     14                     15
                      A                      A                      A
 Frequencies --    826.3625               849.6052               851.6922
 Red. masses --      2.2150                 2.2928                 2.5228
 Frc consts  --      0.8912                 0.9751                 1.0782
 IR Inten    --      2.5284                17.6842                 8.4775

                     16                     17                     18
                      A                      A                      A
 Frequencies --    903.8869               921.3261               960.0706
 Red. masses --      3.0101                 2.0269                 2.0421
 Frc consts  --      1.4490                 1.0137                 1.1090
 IR Inten    --      2.4304                 0.5075                 0.2484

                     19                     20                     21
                      A                      A                      A
 Frequencies --    968.0892               980.6094               989.9875
 Red. masses --      2.4669                 1.7173                 2.6157
 Frc consts  --      1.3622                 0.9729                 1.5104
 IR Inten    --      2.0835                 0.7757                15.9218

                     22                     23                     24
                      A                      A                      A
 Frequencies --   1022.6826              1060.1183              1086.7687
 Red. masses --      1.5194                 1.5427                 2.3154
 Frc consts  --      0.9363                 1.0215                 1.6112
 IR Inten    --      7.3580                 1.9403               113.0128

                     25                     26                     27
                      A                      A                      A
 Frequencies --   1104.3138              1138.8707              1147.5291
 Red. masses --      2.5653                 1.5694                 1.6171
 Frc consts  --      1.8432                 1.1993                 1.2547
 IR Inten    --     51.6650                31.2324                45.3289

                     28                     29                     30
                      A                      A                      A
 Frequencies --   1178.7960              1197.0264              1205.0688
 Red. masses --      1.7537                 1.6782                 1.4610
 Frc consts  --      1.4358                 1.4168                 1.2500
 IR Inten    --      0.6597                19.9774                 8.9543

                     31                     32                     33
                      A                      A                      A
 Frequencies --   1229.2359              1242.7935              1264.6206
 Red. masses --      1.3992                 1.5579                 1.4111
 Frc consts  --      1.2457                 1.4177                 1.3296
 IR Inten    --      2.1933                 0.9459                 6.0775

                     34                     35                     36
                      A                      A                      A
 Frequencies --   1277.5911              1285.5231              1289.4325
 Red. masses --      1.6626                 1.6700                 1.5554
 Frc consts  --      1.5989                 1.6260                 1.5237
 IR Inten    --      8.8329                17.1933                16.3911

                     37                     38                     39
                      A                      A                      A
 Frequencies --   1305.9538              1317.4953              1435.2194
 Red. masses --      1.7621                 1.5626                 1.2833
 Frc consts  --      1.7707                 1.5981                 1.5574
 IR Inten    --      0.2204                 1.8094               124.2107

                     40                     41                     42
                      A                      A                      A
 Frequencies --   1436.6300              1510.8079              3049.1026
 Red. masses --      1.2554                 1.0973                 1.0602
 Frc consts  --      1.5266                 1.4757                 5.8077
 IR Inten    --     42.5828                 4.7460                19.9717

                     43                     44                     45
                      A                      A                      A
 Frequencies --   3060.9758              3063.8293              3093.8243
 Red. masses --      1.0868                 1.0831                 1.1068
 Frc consts  --      5.9995                 5.9901                 6.2419
 IR Inten    --     53.8304                48.2186                35.3400

                     46                     47                     48
                      A                      A                      A
 Frequencies --   3103.4940              3110.5981              3122.4371
 Red. masses --      1.0878                 1.0902                 1.0887
 Frc consts  --      6.1732                 6.2153                 6.2535
 IR Inten    --     22.4218                41.8727                75.8222

                     49                     50                     51
                      A                      A                      A
 Frequencies --   3125.9496              3804.7870              3804.9454
 Red. masses --      1.0939                 1.0653                 1.0653
 Frc consts  --      6.2976                 9.0862                 9.0867
 IR Inten    --      0.5286                 4.8386                16.5136

 - Thermochemistry -
 -------------------
 Temperature   298.150 Kelvin.  Pressure   1.00000 Atm.
 Atom     1 has atomic number  8 and mass  15.99491

 Molecular mass:   126.06808 amu.
 Principal axes and moments of inertia in atomic units:
                           1         2         3
     Eigenvalues --   552.606401255.143841479.40064
           X            0.99999   0.00000   0.00493
           Y            0.00000   1.00000   0.00000
           Z           -0.00493   0.00000   0.99999
 This molecule is an asymmetric top.
 Rotational symmetry number  1.
 Warning -- assumption of classical behavior for rotation
           may cause significant error
 Rotational temperatures (Kelvin)      0.15674     0.06901     0.05855
 Rotational constants (GHZ):           3.26587     1.43788     1.21991
 Zero-point vibrational energy     422672.4 (Joules/Mol)
                                  101.02113 (Kcal/Mol)
 Warning -- explicit consideration of   9 degrees of freedom as
           vibrations may cause significant error
 Vibrational temperatures:    253.00   330.59   371.30   379.69   496.61
          (Kelvin)            546.60   595.45   686.34   760.29   916.77
                             1156.39  1186.08  1188.95  1222.39  1225.39
                             1300.49  1325.58  1381.33  1392.86  1410.88
                             1424.37  1471.41  1525.27  1563.62  1588.86
                             1638.58  1651.04  1696.02  1722.25  1733.82
                             1768.59  1788.10  1819.50  1838.17  1849.58
                             1855.20  1878.97  1895.58  2064.96  2066.99
                             2173.71  4386.97  4404.06  4408.16  4451.32
                             4465.23  4475.45  4492.48  4497.54  5474.23
                             5474.46

 Zero-point correction=                           0.160987 (Hartree/Particle)
 Thermal correction to Energy=                    0.168396
 Thermal correction to Enthalpy=                  0.169340
 Thermal correction to Gibbs Free Energy=         0.129603
 Sum of electronic and zero-point Energies=           -422.977433
 Sum of electronic and thermal Energies=              -422.970024
 Sum of electronic and thermal Enthalpies=            -422.969080
 Sum of electronic and thermal Free Energies=         -423.008817

                     E (Thermal)             CV                S
                      KCal/Mol        Cal/Mol-Kelvin    Cal/Mol-Kelvin
 Total                  105.670             30.593             83.633
 Electronic               0.000              0.000              0.000
 Translational            0.889              2.981             40.409
 Rotational               0.889              2.981             28.419
 Vibrational            103.892             24.631             14.805
 Vibration     1          0.628              1.872              2.372
 Vibration     2          0.652              1.796              1.881
 Vibration     3          0.667              1.749              1.675
 Vibration     4          0.670              1.739              1.636
 Vibration     5          0.724              1.585              1.188
 Vibration     6          0.750              1.513              1.040
 Vibration     7          0.777              1.440              0.913
 Vibration     8          0.834              1.301              0.718
 Vibration     9          0.883              1.187              0.591

 Optimization completed.
    -- Stationary point found.
 Normal termination of Gaussian 09 at Tue Jan 28 00:27:46 2020.
