 Gaussian 09, Revision D.01,
 Gaussian 09:  ES64L-G09RevD.01 24-Apr-2013

 -----------------------------
 # b3lyp 6-31G(2df,p) opt Freq
 -----------------------------

 -----
 titel
 -----
 Symbolic Z-matrix:
 Charge =  0 Multiplicity = 1

 SCF Done:  E(RB3LYP) =  -423.176485195     A.U. after   13 cycles
 Optimization completed.
    -- Stationary point found.
 Normal termination of Gaussian 09 at Tue Jan 28 03:45:32 2020.

 ----------------------------------------------------------------------
 #N Geom=AllCheck Guess=TCheck SCRF=Check GenChk RB3LYP/6-31G(2df,p) Fr
 eq
 ----------------------------------------------------------------------

 Structure from the checkpoint file:  "/scratch/puck/g09_f03c5b57-8c91-47fa-b56b-bdf7be7da622/Gau-90503.chk"
 -----
 titel
 -----
 Charge =  0 Multiplicity = 1

                         Standard orientation:
 ---------------------------------------------------------------------
 Center     Atomic      Atomic             Coordinates (Angstroms)
 Number     Number       Type             X           Y           Z
 ---------------------------------------------------------------------
      1          8           0        2.107161   -0.967106    0.229273
      2          6           0        1.360506   -0.126906   -0.635961
      3          6           0        1.116326    1.297726   -0.050487
      4          6           0       -0.336197    1.192878    0.405487
      5          8           0       -0.396721    0.066545    1.339051
      6          6           0       -0.839277   -0.982213    0.449192
      7          6           0       -2.115349   -0.382904   -0.176267
      8          6           0       -1.075912    0.573199   -0.805755
      9          6           0       -0.077101   -0.635655   -0.870277
     10          1           0        1.673372   -0.908753    1.089739
     11          1           0        1.930571   -0.090651   -1.567964
     12          1           0        1.812734    1.516256    0.762922
     13          1           0        1.224536    2.075691   -0.815641
     14          1           0       -0.777008    2.077279    0.868878
     15          1           0       -0.792769   -1.944322    0.956603
     16          1           0       -2.579165   -1.035890   -0.918530
     17          1           0       -2.861375    0.020106    0.512692
     18          1           0       -1.285676    1.227160   -1.651306
     19          1           0       -0.226719   -1.349132   -1.679571
 ---------------------------------------------------------------------

 SCF Done:  E(RB3LYP) =  -423.176485195     A.U. after    1 cycles

 The electronic state is 1-A.
 Alpha  occ. eigenvalues --  -19.14166 -19.12365 -10.23870 -10.23344 -10.22810
 Alpha  occ. eigenvalues --  -10.19837 -10.18853 -10.18753 -10.17889  -1.04872
 Alpha  occ. eigenvalues --   -1.00503  -0.84398  -0.78212  -0.70737  -0.65429
 Alpha  occ. eigenvalues --   -0.61209  -0.56507  -0.55203  -0.52870  -0.50338
 Alpha  occ. eigenvalues --   -0.46989  -0.43757  -0.42980  -0.40105  -0.38251
 Alpha  occ. eigenvalues --   -0.37530  -0.36483  -0.35319  -0.34237  -0.33615
 Alpha  occ. eigenvalues --   -0.31511  -0.29831  -0.25278  -0.24376
 Alpha virt. eigenvalues --    0.07927   0.09990   0.11437   0.12048   0.13023
 Alpha virt. eigenvalues --    0.14385   0.14578   0.15334   0.16413   0.16843
 Alpha virt. eigenvalues --    0.17844   0.18513   0.19192   0.20215   0.20650

 Mulliken charges:
               1
     1  O   -0.444894
     2  C    0.126259
     3  C   -0.260582
     4  C    0.096969
     5  O   -0.314497
     6  C    0.084744
     7  C   -0.245418
     8  C   -0.075325
     9  C   -0.053495
    10  H    0.286362
    11  H    0.082030
    12  H    0.108579
    13  H    0.096279
    14  H    0.074933
    15  H    0.084139
    16  H    0.103540
    17  H    0.101255
    18  H    0.073641
    19  H    0.075481
 Sum of Mulliken charges =   0.00000

 Dipole moment (field-independent basis, Debye):
    X=             -1.6605    Y=              0.8802    Z=             -1.1501  Tot=              2.2034
 Quadrupole moment (field-independent basis, Debye-Ang):
   XX=            -56.9694   YY=            -51.2988   ZZ=            -52.8354
   XY=              3.1577   XZ=              0.9398   YZ=             -0.7408

  Exact polarizability:  78.903   2.527  73.097  -0.155  -0.210  66.965
 Approx polarizability: 107.765  -0.011 109.806   0.199  -1.629 107.841

                      1                      2                      3
                      A                      A                      A
 Frequencies --    147.1575               267.2586               373.8220
 Red. masses --      4.2244                 4.4351                 2.1914
 Frc consts  --      0.0539                 0.1866                 0.1804
 IR Inten    --      4.2426                 1.7121                 2.6188

                      4                      5                      6
                      A                      A                      A
 Frequencies --    444.8600               458.3140               494.1129
 Red. masses --      2.2481                 3.1073                 2.9107
 Frc consts  --      0.2621                 0.3846                 0.4187
 IR Inten    --      4.0976                 2.2554                 4.3847

                      7                      8                      9
                      A                      A                      A
 Frequencies --    507.7344               621.7564               685.7933
 Red. masses --      1.2030                 5.0461                 4.3529
 Frc consts  --      0.1827                 1.1493                 1.2062
 IR Inten    --     76.3051                 7.3970                 6.1271

                     10                     11                     12
                      A                      A                      A
 Frequencies --    782.2622               812.1558               840.5057
 Red. masses --      2.8152                 2.9435                 3.2241
 Frc consts  --      1.0150                 1.1439                 1.3420
 IR Inten    --      8.7744                11.9197                 4.3605

                     13                     14                     15
                      A                      A                      A
 Frequencies --    845.9772               867.9603               886.6412
 Red. masses --      2.8298                 2.5812                 2.5553
 Frc consts  --      1.1932                 1.1457                 1.1836
 IR Inten    --      7.4874                 1.7646                 4.9955

                     16                     17                     18
                      A                      A                      A
 Frequencies --    914.9015               937.8966               958.6161
 Red. masses --      2.9238                 1.8125                 2.1368
 Frc consts  --      1.4420                 0.9394                 1.1569
 IR Inten    --     10.5080                 2.2919                18.5493

                     19                     20                     21
                      A                      A                      A
 Frequencies --    967.4473               990.1691              1016.5918
 Red. masses --      2.1652                 2.1161                 1.8670
 Frc consts  --      1.1940                 1.2224                 1.1368
 IR Inten    --     12.8889                30.6380                12.2473

                     22                     23                     24
                      A                      A                      A
 Frequencies --   1041.9503              1059.1083              1069.1589
 Red. masses --      2.1106                 1.9502                 2.0549
 Frc consts  --      1.3500                 1.2889                 1.3840
 IR Inten    --      2.7171                33.7824                23.7962

                     25                     26                     27
                      A                      A                      A
 Frequencies --   1103.0089              1113.2514              1157.3912
 Red. masses --      1.2938                 2.0024                 1.2141
 Frc consts  --      0.9274                 1.4622                 0.9582
 IR Inten    --     21.6566                21.6881                26.8349

                     28                     29                     30
                      A                      A                      A
 Frequencies --   1184.3523              1223.6146              1227.7534
 Red. masses --      1.4828                 1.7841                 1.7575
 Frc consts  --      1.2254                 1.5739                 1.5609
 IR Inten    --     22.9325                 4.6709                 5.5611

                     31                     32                     33
                      A                      A                      A
 Frequencies --   1242.1054              1256.5442              1276.6061
 Red. masses --      1.5810                 1.3448                 1.6945
 Frc consts  --      1.4371                 1.2510                 1.6270
 IR Inten    --      5.0900                 8.2730                 3.6290

                     34                     35                     36
                      A                      A                      A
 Frequencies --   1296.1367              1315.8951              1323.3129
 Red. masses --      1.4479                 1.4703                 1.5959
 Frc consts  --      1.4331                 1.5000                 1.6466
 IR Inten    --      3.4574                 6.6352                 5.4274

                     37                     38                     39
                      A                      A                      A
 Frequencies --   1346.2194              1354.0046              1445.2779
 Red. masses --      1.5852                 1.4724                 1.2151
 Frc consts  --      1.6927                 1.5905                 1.4955
 IR Inten    --      3.7898                 1.6522                73.7885

                     40                     41                     42
                      A                      A                      A
 Frequencies --   1471.8718              1487.8642              3038.1854
 Red. masses --      1.1050                 1.1290                 1.0653
 Frc consts  --      1.4105                 1.4726                 5.7939
 IR Inten    --      5.2021                 1.1598                18.6663

                     43                     44                     45
                      A                      A                      A
 Frequencies --   3066.1207              3074.8497              3097.9207
 Red. masses --      1.0565                 1.0861                 1.0902
 Frc consts  --      5.8517                 6.0500                 6.1647
 IR Inten    --     31.1032                41.5456                36.0824

                     46                     47                     48
                      A                      A                      A
 Frequencies --   3106.5364              3122.4650              3127.7492
 Red. masses --      1.0990                 1.0884                 1.0971
 Frc consts  --      6.2490                 6.2524                 6.3233
 IR Inten    --     19.9670                18.1316                29.9394

                     49                     50                     51
                      A                      A                      A
 Frequencies --   3131.0894              3139.9465              3778.9484
 Red. masses --      1.1015                 1.0933                 1.0654
 Frc consts  --      6.3622                 6.3509                 8.9637
 IR Inten    --     41.0185                27.2664                22.7474

 - Thermochemistry -
 -------------------
 Temperature   298.150 Kelvin.  Pressure   1.00000 Atm.
 Atom     1 has atomic number  8 and mass  15.99491

 Molecular mass:   126.06808 amu.
 Principal axes and moments of inertia in atomic units:
                           1         2         3
     Eigenvalues --   585.079771024.790691114.81678
           X            0.99921   0.03904   0.00767
           Y           -0.03897   0.99920  -0.00907
           Z           -0.00801   0.00876   0.99993
 This molecule is an asymmetric top.
 Rotational symmetry number  1.
 Warning -- assumption of classical behavior for rotation
           may cause significant error
 Rotational temperatures (Kelvin)      0.14804     0.08452     0.07769
 Rotational constants (GHZ):           3.08461     1.76108     1.61887
 Zero-point vibrational energy     427672.0 (Joules/Mol)
                                  102.21606 (Kcal/Mol)
 Warning -- explicit consideration of   7 degrees of freedom as
           vibrations may cause significant error
 Vibrational temperatures:    211.73   384.53   537.85   640.05   659.41
          (Kelvin)            710.92   730.52   894.57   986.70  1125.50
                             1168.51  1209.30  1217.17  1248.80  1275.68
                             1316.34  1349.42  1379.23  1391.94  1424.63
                             1462.65  1499.13  1523.82  1538.28  1586.98
                             1601.72  1665.23  1704.02  1760.51  1766.46
                             1787.11  1807.88  1836.75  1864.85  1893.28
                             1903.95  1936.91  1948.11  2079.43  2117.69
                             2140.70  4371.27  4411.46  4424.02  4457.21
                             4469.61  4492.53  4500.13  4504.93  4517.68
                             5437.06

 Zero-point correction=                           0.162892 (Hartree/Particle)
 Thermal correction to Energy=                    0.169387
 Thermal correction to Enthalpy=                  0.170331
 Thermal correction to Gibbs Free Energy=         0.132358
 Sum of electronic and zero-point Energies=           -423.013594
 Sum of electronic and thermal Energies=              -423.007098
 Sum of electronic and thermal Enthalpies=            -423.006154
 Sum of electronic and thermal Free Energies=         -423.044127

                     E (Thermal)             CV                S
                      KCal/Mol        Cal/Mol-Kelvin    Cal/Mol-Kelvin
 Total                  106.292             28.007             79.921
 Electronic               0.000              0.000              0.000
 Translational            0.889              2.981             40.409
 Rotational               0.889              2.981             27.993
 Vibrational            104.515             22.046             11.519
 Vibration     1          0.617              1.906              2.709
 Vibration     2          0.672              1.733              1.614
 Vibration     3          0.745              1.526              1.064
 Vibration     4          0.804              1.372              0.811
 Vibration     5          0.816              1.343              0.771
 Vibration     6          0.850              1.263              0.673
 Vibration     7          0.863              1.233              0.639

 Optimization completed.
    -- Stationary point found.
 Normal termination of Gaussian 09 at Tue Jan 28 04:33:30 2020.
