 Gaussian 09, Revision D.01,
 Gaussian 09:  ES64L-G09RevD.01 24-Apr-2013

 -----------------------------
 # b3lyp 6-31G(2df,p) opt Freq
 -----------------------------

 -----
 titel
 -----
 Symbolic Z-matrix:
 Charge =  0 Multiplicity = 1

 SCF Done:  E(RB3LYP) =  -423.099121125     A.U. after   12 cycles
 Optimization completed.
    -- Stationary point found.
 Normal termination of Gaussian 09 at Mon Jan 27 22:00:43 2020.

 ----------------------------------------------------------------------
 #N Geom=AllCheck Guess=TCheck SCRF=Check GenChk RB3LYP/6-31G(2df,p) Fr
 eq
 ----------------------------------------------------------------------

 Structure from the checkpoint file:  "/scratch/puck/g09_a08f734e-1159-41f8-955f-ac3d4684b505/Gau-98550.chk"
 -----
 titel
 -----
 Charge =  0 Multiplicity = 1

                         Standard orientation:
 ---------------------------------------------------------------------
 Center     Atomic      Atomic             Coordinates (Angstroms)
 Number     Number       Type             X           Y           Z
 ---------------------------------------------------------------------
      1          6           0       -2.200708   -0.000743    0.971929
      2          6           0       -0.684417    0.006642    0.929173
      3          6           0       -0.058936    0.753018   -0.242993
      4          8           0       -0.770794    1.608694   -1.063006
      5          6           0        1.502595    0.759293   -0.228570
      6          6           0        2.135951    0.034592    0.930801
      7          6           0        1.508360   -0.758834   -0.187187
      8          6           0       -0.052971   -0.764898   -0.205396
      9          8           0       -0.779022   -1.733103   -0.869833
     10          1           0       -2.629569    0.004197   -0.031347
     11          1           0       -2.565514   -0.892777    1.490104
     12          1           0       -2.576592    0.876590    1.510172
     13          1           0       -0.225228    0.022572    1.914419
     14          1           0       -0.994215    2.401447   -0.560899
     15          1           0        2.061103    1.402737   -0.897234
     16          1           0        3.223087    0.036150    0.918705
     17          1           0        1.724729    0.060320    1.933297
     18          1           0        2.081300   -1.437958   -0.807555
     19          1           0       -0.599812   -1.652426   -1.813490
 ---------------------------------------------------------------------

 SCF Done:  E(RB3LYP) =  -423.099121125     A.U. after    1 cycles

 The electronic state is 1-A.
 Alpha  occ. eigenvalues --  -19.15041 -19.14848 -10.23326 -10.23196 -10.18946
 Alpha  occ. eigenvalues --  -10.18817 -10.18791 -10.18558 -10.17120  -1.04048
 Alpha  occ. eigenvalues --   -1.02646  -0.90259  -0.80283  -0.70490  -0.62562
 Alpha  occ. eigenvalues --   -0.61678  -0.56372  -0.55372  -0.51852  -0.50010
 Alpha  occ. eigenvalues --   -0.47169  -0.44626  -0.41909  -0.39943  -0.38958
 Alpha  occ. eigenvalues --   -0.37618  -0.36717  -0.35612  -0.33772  -0.32898
 Alpha  occ. eigenvalues --   -0.29115  -0.27475  -0.24740  -0.20188
 Alpha virt. eigenvalues --    0.05982   0.08727   0.09505   0.10517   0.11345
 Alpha virt. eigenvalues --    0.13981   0.15523   0.15891   0.17183   0.17820
 Alpha virt. eigenvalues --    0.18978   0.19860   0.21258   0.22984   0.23657

 Mulliken charges:
               1
     1  C   -0.418204
     2  C   -0.151815
     3  C    0.282178
     4  O   -0.457130
     5  C   -0.116954
     6  C   -0.309211
     7  C   -0.123251
     8  C    0.328726
     9  O   -0.454368
    10  H    0.135198
    11  H    0.123126
    12  H    0.103709
    13  H    0.073648
    14  H    0.286602
    15  H    0.091250
    16  H    0.110755
    17  H    0.118120
    18  H    0.086736
    19  H    0.290886
 Sum of Mulliken charges =   0.00000

 Dipole moment (field-independent basis, Debye):
    X=              0.7877    Y=              1.1954    Z=              0.0523  Tot=              1.4325
 Quadrupole moment (field-independent basis, Debye-Ang):
   XX=            -52.0088   YY=            -52.4149   ZZ=            -50.8387
   XY=             -2.4123   XZ=             -1.5551   YZ=              3.3026

  Exact polarizability:  84.724  -1.048  70.652  -1.410   1.193  69.673
 Approx polarizability: 108.789  -0.751 112.781   0.059   1.126 108.041

                      1                      2                      3
                      A                      A                      A
 Frequencies --    136.6537               142.5656               202.0531
 Red. masses --      1.9936                 1.4932                 2.5335
 Frc consts  --      0.0219                 0.0179                 0.0609
 IR Inten    --      9.6181                 4.1790                 2.0151

                      4                      5                      6
                      A                      A                      A
 Frequencies --    239.9051               255.7268               257.8163
 Red. masses --      2.8291                 2.0241                 1.2729
 Frc consts  --      0.0959                 0.0780                 0.0498
 IR Inten    --      6.0856                18.9889                77.7142

                      7                      8                      9
                      A                      A                      A
 Frequencies --    310.6996               330.8523               371.6699
 Red. masses --      1.3118                 3.8283                 4.4870
 Frc consts  --      0.0746                 0.2469                 0.3652
 IR Inten    --     66.7767                22.0350                 1.5368

                     10                     11                     12
                      A                      A                      A
 Frequencies --    463.6602               527.9685               556.2330
 Red. masses --      3.2604                 3.2582                 2.9316
 Frc consts  --      0.4130                 0.5351                 0.5344
 IR Inten    --      2.6135                 0.1602                 9.5249

                     13                     14                     15
                      A                      A                      A
 Frequencies --    623.9467               717.0770               748.8314
 Red. masses --      4.9734                 3.7869                 4.0225
 Frc consts  --      1.1408                 1.1473                 1.3290
 IR Inten    --      2.6127                 3.9397                21.9123

                     16                     17                     18
                      A                      A                      A
 Frequencies --    769.1581               812.6412               868.3281
 Red. masses --      1.3411                 2.3859                 1.5071
 Frc consts  --      0.4674                 0.9283                 0.6695
 IR Inten    --      5.8291                 9.2252                11.5447

                     19                     20                     21
                      A                      A                      A
 Frequencies --    897.8489               944.2505               972.4252
 Red. masses --      4.4233                 2.8631                 1.6526
 Frc consts  --      2.1009                 1.5041                 0.9207
 IR Inten    --     11.8736                 4.0927                 5.1479

                     22                     23                     24
                      A                      A                      A
 Frequencies --   1007.3740              1055.8944              1057.9882
 Red. masses --      1.3292                 1.5788                 1.3056
 Frc consts  --      0.7947                 1.0371                 0.8611
 IR Inten    --     14.5440                 1.9534                 3.8908

                     25                     26                     27
                      A                      A                      A
 Frequencies --   1077.9363              1091.3495              1093.7094
 Red. masses --      1.5367                 1.6914                 2.1691
 Frc consts  --      1.0520                 1.1869                 1.5287
 IR Inten    --      6.8202                 0.2679                12.6425

                     28                     29                     30
                      A                      A                      A
 Frequencies --   1151.5727              1159.2891              1197.5017
 Red. masses --      1.6368                 1.9965                 2.1475
 Frc consts  --      1.2789                 1.5809                 1.8144
 IR Inten    --      7.1448                29.2140                19.0821

                     31                     32                     33
                      A                      A                      A
 Frequencies --   1216.7849              1263.6420              1285.5414
 Red. masses --      2.1714                 1.7518                 1.7364
 Frc consts  --      1.8941                 1.6481                 1.6907
 IR Inten    --     25.9259               112.2883               109.4771

                     34                     35                     36
                      A                      A                      A
 Frequencies --   1310.8063              1349.8654              1372.3385
 Red. masses --      2.1414                 1.7565                 1.9360
 Frc consts  --      2.1678                 1.8857                 2.1482
 IR Inten    --     11.1982                 7.5612                25.5426

                     37                     38                     39
                      A                      A                      A
 Frequencies --   1410.3748              1480.2609              1490.2845
 Red. masses --      1.2751                 1.7163                 1.0505
 Frc consts  --      1.4944                 2.2157                 1.3746
 IR Inten    --      0.6743                 2.1756                 5.8029

                     40                     41                     42
                      A                      A                      A
 Frequencies --   1496.8799              1511.5801              3037.1696
 Red. masses --      1.2498                 1.5074                 1.0397
 Frc consts  --      1.6500                 2.0293                 5.6504
 IR Inten    --      0.2902                16.0670                37.6581

                     43                     44                     45
                      A                      A                      A
 Frequencies --   3096.1426              3115.6063              3128.7362
 Red. masses --      1.0992                 1.0738                 1.0714
 Frc consts  --      6.2080                 6.1410                 6.1791
 IR Inten    --     21.7524                 2.6386                18.7603

                     46                     47                     48
                      A                      A                      A
 Frequencies --   3142.9856              3176.6432              3188.4942
 Red. masses --      1.0951                 1.0899                 1.0981
 Frc consts  --      6.3737                 6.4802                 6.5777
 IR Inten    --     31.7549                15.2079                 6.5198

                     49                     50                     51
                      A                      A                      A
 Frequencies --   3203.9917              3768.5273              3788.6000
 Red. masses --      1.1096                 1.0663                 1.0662
 Frc consts  --      6.7115                 8.9225                 9.0163
 IR Inten    --     21.0982                14.9629                24.3396

 - Thermochemistry -
 -------------------
 Temperature   298.150 Kelvin.  Pressure   1.00000 Atm.
 Atom     1 has atomic number  6 and mass  12.00000

 Molecular mass:   126.06808 amu.
 Principal axes and moments of inertia in atomic units:
                           1         2         3
     Eigenvalues --   762.741341136.695791312.17154
           X            0.99966  -0.01072  -0.02388
           Y            0.01158   0.99928   0.03617
           Z            0.02348  -0.03644   0.99906
 This molecule is an asymmetric top.
 Rotational symmetry number  1.
 Warning -- assumption of classical behavior for rotation
           may cause significant error
 Rotational temperatures (Kelvin)      0.11356     0.07620     0.06601
 Rotational constants (GHZ):           2.36612     1.58771     1.37539
 Zero-point vibrational energy     411983.0 (Joules/Mol)
                                   98.46630 (Kcal/Mol)
 Warning -- explicit consideration of  12 degrees of freedom as
           vibrations may cause significant error
 Vibrational temperatures:    196.61   205.12   290.71   345.17   367.93
          (Kelvin)            370.94   447.03   476.02   534.75   667.10
                              759.63   800.29   897.72  1031.71  1077.40
                             1106.65  1169.21  1249.33  1291.80  1358.56
                             1399.10  1449.38  1519.19  1522.21  1550.91
                             1570.21  1573.60  1656.85  1667.96  1722.94
                             1750.68  1818.10  1849.61  1885.96  1942.15
                             1974.49  2029.21  2129.76  2144.18  2153.67
                             2174.82  4369.80  4454.65  4482.66  4501.55
                             4522.05  4570.48  4587.53  4609.82  5422.06
                             5450.94

 Zero-point correction=                           0.156916 (Hartree/Particle)
 Thermal correction to Energy=                    0.165893
 Thermal correction to Enthalpy=                  0.166837
 Thermal correction to Gibbs Free Energy=         0.124021
 Sum of electronic and zero-point Energies=           -422.942205
 Sum of electronic and thermal Energies=              -422.933228
 Sum of electronic and thermal Enthalpies=            -422.932284
 Sum of electronic and thermal Free Energies=         -422.975100

                     E (Thermal)             CV                S
                      KCal/Mol        Cal/Mol-Kelvin    Cal/Mol-Kelvin
 Total                  104.099             34.966             90.113
 Electronic               0.000              0.000              0.000
 Translational            0.889              2.981             40.409
 Rotational               0.889              2.981             28.522
 Vibrational            102.322             29.004             21.183
 Vibration     1          0.614              1.917              2.850
 Vibration     2          0.616              1.911              2.769
 Vibration     3          0.639              1.837              2.114
 Vibration     4          0.657              1.779              1.804
 Vibration     5          0.666              1.753              1.691
 Vibration     6          0.667              1.750              1.677
 Vibration     7          0.700              1.653              1.359
 Vibration     8          0.713              1.614              1.256
 Vibration     9          0.743              1.530              1.073
 Vibration    10          0.821              1.331              0.756
 Vibration    11          0.883              1.188              0.592
 Vibration    12          0.912              1.126              0.531

 Optimization completed.
    -- Stationary point found.
 Normal termination of Gaussian 09 at Mon Jan 27 22:47:55 2020.
