 Gaussian 09, Revision D.01,
 Gaussian 09:  ES64L-G09RevD.01 24-Apr-2013

 -----------------------------
 # b3lyp 6-31G(2df,p) opt Freq
 -----------------------------

 -----
 titel
 -----
 Symbolic Z-matrix:
 Charge =  0 Multiplicity = 1

 SCF Done:  E(RB3LYP) =  -423.160941548     A.U. after   14 cycles
 SCF Done:  E(RB3LYP) =  -423.160941465     A.U. after    7 cycles
 SCF Done:  E(RB3LYP) =  -423.160941287     A.U. after    7 cycles
 SCF Done:  E(RB3LYP) =  -423.160941614     A.U. after    7 cycles
 Optimization completed.
    -- Stationary point found.
 Normal termination of Gaussian 09 at Tue Jan 28 00:17:45 2020.

 ----------------------------------------------------------------------
 #N Geom=AllCheck Guess=TCheck SCRF=Check GenChk RB3LYP/6-31G(2df,p) Fr
 eq
 ----------------------------------------------------------------------

 Structure from the checkpoint file:  "/scratch/puck/g09_0fced6d9-0922-449d-b9ce-840e376b88d3/Gau-82511.chk"
 -----
 titel
 -----
 Charge =  0 Multiplicity = 1

                         Standard orientation:
 ---------------------------------------------------------------------
 Center     Atomic      Atomic             Coordinates (Angstroms)
 Number     Number       Type             X           Y           Z
 ---------------------------------------------------------------------
      1          8           0       -0.493606    1.950885    0.147041
      2          6           0        0.431916    1.050446   -0.373088
      3          6           0        1.469852    0.576497    0.598150
      4          6           0        2.507701   -0.278858   -0.133523
      5          6           0        1.365533   -1.238169   -0.610926
      6          6           0        0.343700   -0.369403    0.135067
      7          6           0       -0.873788   -0.868259    0.876146
      8          6           0       -2.149405   -0.870343    0.051586
      9          8           0       -2.495957    0.044948   -0.659154
     10          1           0       -1.352707    1.675692   -0.209392
     11          1           0        0.717039    1.225728   -1.415608
     12          1           0        1.590697    1.075452    1.552367
     13          1           0        3.075887    0.231338   -0.918471
     14          1           0        3.210555   -0.774913    0.538681
     15          1           0        1.219297   -1.331100   -1.693003
     16          1           0        1.465043   -2.241387   -0.187333
     17          1           0       -0.704328   -1.868024    1.291137
     18          1           0       -1.079908   -0.203590    1.726443
     19          1           0       -2.798118   -1.767327    0.151609
 ---------------------------------------------------------------------

 SCF Done:  E(RB3LYP) =  -423.160941614     A.U. after    1 cycles

 The electronic state is 1-A.
 Alpha  occ. eigenvalues --  -19.15867 -19.12777 -10.28726 -10.22770 -10.20499
 Alpha  occ. eigenvalues --  -10.19931 -10.18854 -10.18740 -10.18704  -1.06367
 Alpha  occ. eigenvalues --   -1.01746  -0.88914  -0.76902  -0.71723  -0.65126
 Alpha  occ. eigenvalues --   -0.60363  -0.56551  -0.53746  -0.50221  -0.49415
 Alpha  occ. eigenvalues --   -0.47254  -0.45983  -0.44468  -0.44113  -0.40903
 Alpha  occ. eigenvalues --   -0.38716  -0.37947  -0.36521  -0.33846  -0.32544
 Alpha  occ. eigenvalues --   -0.29839  -0.27610  -0.26107  -0.23538
 Alpha virt. eigenvalues --   -0.04040   0.08575   0.09504   0.11146   0.11677
 Alpha virt. eigenvalues --    0.12697   0.14490   0.14617   0.15837   0.16686
 Alpha virt. eigenvalues --    0.16978   0.19284   0.20545   0.21610   0.23471

 Mulliken charges:
               1
     1  O   -0.449278
     2  C    0.077016
     3  C   -0.140523
     4  C   -0.230591
     5  C   -0.301076
     6  C    0.330301
     7  C   -0.417950
     8  C    0.154957
     9  O   -0.247829
    10  H    0.295164
    11  H    0.071650
    12  H    0.093050
    13  H    0.100873
    14  H    0.106425
    15  H    0.098099
    16  H    0.101084
    17  H    0.108855
    18  H    0.154689
    19  H    0.095085
 Sum of Mulliken charges =   0.00000

 Dipole moment (field-independent basis, Debye):
    X=              0.4606    Y=             -2.8324    Z=              0.9371  Tot=              3.0187
 Quadrupole moment (field-independent basis, Debye-Ang):
   XX=            -53.5962   YY=            -55.2705   ZZ=            -52.3405
   XY=              2.4934   XZ=             -2.8078   YZ=             -1.5222

  Exact polarizability:  87.212   1.834  75.946   0.639  -2.355  65.317
 Approx polarizability: 114.806   0.054 116.320   5.253  -6.113 103.542

                      1                      2                      3
                      A                      A                      A
 Frequencies --     82.6524                97.2427               159.8842
 Red. masses --      2.4760                 3.4082                 3.3992
 Frc consts  --      0.0100                 0.0190                 0.0512
 IR Inten    --      8.3194                 1.8242                 1.6750

                      4                      5                      6
                      A                      A                      A
 Frequencies --    224.1693               246.2417               274.7144
 Red. masses --      4.0532                 2.6969                 2.7236
 Frc consts  --      0.1200                 0.0963                 0.1211
 IR Inten    --     10.7422                 0.6529                 1.3691

                      7                      8                      9
                      A                      A                      A
 Frequencies --    345.8728               365.2504               525.8427
 Red. masses --      2.7603                 2.9875                 5.0335
 Frc consts  --      0.1946                 0.2348                 0.8200
 IR Inten    --      2.5521                 5.4893                 5.8531

                     10                     11                     12
                      A                      A                      A
 Frequencies --    564.3676               620.2621               668.9031
 Red. masses --      2.7191                 1.2174                 2.1012
 Frc consts  --      0.5103                 0.2759                 0.5539
 IR Inten    --     24.6186               102.6989                12.1426

                     13                     14                     15
                      A                      A                      A
 Frequencies --    706.5840               776.7963               854.7344
 Red. masses --      3.1762                 1.2568                 2.9786
 Frc consts  --      0.9343                 0.4468                 1.2821
 IR Inten    --      6.2502                 3.5130                 3.2609

                     16                     17                     18
                      A                      A                      A
 Frequencies --    881.5127               925.1252               941.6987
 Red. masses --      2.6711                 2.4863                 1.4308
 Frc consts  --      1.2229                 1.2537                 0.7476
 IR Inten    --      0.3861                15.3922                15.1951

                     19                     20                     21
                      A                      A                      A
 Frequencies --    947.6013               971.7536               979.1984
 Red. masses --      2.6007                 1.8775                 2.0385
 Frc consts  --      1.3759                 1.0446                 1.1516
 IR Inten    --      7.9047                 5.2978                 3.9093

                     22                     23                     24
                      A                      A                      A
 Frequencies --   1028.7389              1072.3840              1099.7824
 Red. masses --      1.7138                 1.6353                 1.5630
 Frc consts  --      1.0686                 1.1080                 1.1139
 IR Inten    --      4.9651                 5.4702                14.3701

                     25                     26                     27
                      A                      A                      A
 Frequencies --   1118.1320              1169.6813              1182.8390
 Red. masses --      2.2256                 1.8484                 2.1789
 Frc consts  --      1.6394                 1.4900                 1.7962
 IR Inten    --      3.3225                 3.3432                41.9348

                     28                     29                     30
                      A                      A                      A
 Frequencies --   1219.6641              1243.4519              1247.2805
 Red. masses --      1.2375                 1.4423                 1.8364
 Frc consts  --      1.0846                 1.3139                 1.6832
 IR Inten    --      0.4670                 7.2936                 1.2526

                     31                     32                     33
                      A                      A                      A
 Frequencies --   1254.9080              1291.3181              1330.9669
 Red. masses --      1.4233                 1.6226                 1.2666
 Frc consts  --      1.3206                 1.5942                 1.3220
 IR Inten    --      0.2624                 4.1620                23.3761

                     34                     35                     36
                      A                      A                      A
 Frequencies --   1356.5220              1383.4689              1423.0964
 Red. masses --      1.5593                 1.9717                 1.2298
 Frc consts  --      1.6906                 2.2235                 1.4674
 IR Inten    --     31.1070                50.6028                14.9263

                     37                     38                     39
                      A                      A                      A
 Frequencies --   1445.7109              1458.1502              1480.7757
 Red. masses --      1.1732                 1.7998                 1.0861
 Frc consts  --      1.4448                 2.2547                 1.4032
 IR Inten    --      8.3498                 9.3228                 0.4193

                     40                     41                     42
                      A                      A                      A
 Frequencies --   1502.4283              1805.0819              2898.9123
 Red. masses --      1.1623                 9.8527                 1.0844
 Frc consts  --      1.5459                18.9148                 5.3692
 IR Inten    --      0.7791               115.6288               141.5668

                     43                     44                     45
                      A                      A                      A
 Frequencies --   3023.5635              3034.6905              3037.5082
 Red. masses --      1.0610                 1.0618                 1.0851
 Frc consts  --      5.7147                 5.7611                 5.8985
 IR Inten    --     13.8895                40.9980                45.8016

                     46                     47                     48
                      A                      A                      A
 Frequencies --   3048.4265              3073.0146              3086.2867
 Red. masses --      1.0636                 1.0994                 1.1044
 Frc consts  --      5.8237                 6.1168                 6.1980
 IR Inten    --     67.5087                17.2886                10.4807

                     49                     50                     51
                      A                      A                      A
 Frequencies --   3112.1078              3186.4146              3694.3615
 Red. masses --      1.1031                 1.0926                 1.0653
 Frc consts  --      6.2947                 6.5362                 8.5665
 IR Inten    --     37.4245                11.8110               127.8989

 - Thermochemistry -
 -------------------
 Temperature   298.150 Kelvin.  Pressure   1.00000 Atm.
 Atom     1 has atomic number  8 and mass  15.99491

 Molecular mass:   126.06808 amu.
 Principal axes and moments of inertia in atomic units:
                           1         2         3
     Eigenvalues --   633.645251335.793711679.64559
           X            0.99986  -0.00062  -0.01643
           Y            0.00038   0.99989  -0.01472
           Z            0.01644   0.01471   0.99976
 This molecule is an asymmetric top.
 Rotational symmetry number  1.
 Warning -- assumption of classical behavior for rotation
           may cause significant error
 Rotational temperatures (Kelvin)      0.13669     0.06484     0.05157
 Rotational constants (GHZ):           2.84819     1.35106     1.07448
 Zero-point vibrational energy     415523.3 (Joules/Mol)
                                   99.31246 (Kcal/Mol)
 Warning -- explicit consideration of  11 degrees of freedom as
           vibrations may cause significant error
 Vibrational temperatures:    118.92   139.91   230.04   322.53   354.29
          (Kelvin)            395.25   497.63   525.51   756.57   812.00
                              892.42   962.40  1016.62  1117.64  1229.77
                             1268.30  1331.05  1354.89  1363.39  1398.13
                             1408.85  1480.12  1542.92  1582.34  1608.74
                             1682.91  1701.84  1754.82  1789.05  1794.56
                             1805.53  1857.92  1914.96  1951.73  1990.50
                             2047.52  2080.05  2097.95  2130.50  2161.66
                             2597.11  4170.88  4350.23  4366.24  4370.29
                             4386.00  4421.38  4440.47  4477.62  4584.53
                             5315.36

 Zero-point correction=                           0.158264 (Hartree/Particle)
 Thermal correction to Energy=                    0.166882
 Thermal correction to Enthalpy=                  0.167826
 Thermal correction to Gibbs Free Energy=         0.124815
 Sum of electronic and zero-point Energies=           -423.002677
 Sum of electronic and thermal Energies=              -422.994060
 Sum of electronic and thermal Enthalpies=            -422.993116
 Sum of electronic and thermal Free Energies=         -423.036127

                     E (Thermal)             CV                S
                      KCal/Mol        Cal/Mol-Kelvin    Cal/Mol-Kelvin
 Total                  104.720             32.456             90.525
 Electronic               0.000              0.000              0.000
 Translational            0.889              2.981             40.409
 Rotational               0.889              2.981             28.743
 Vibrational            102.942             26.494             21.373
 Vibration     1          0.600              1.961              3.827
 Vibration     2          0.603              1.951              3.509
 Vibration     3          0.622              1.891              2.551
 Vibration     4          0.649              1.804              1.925
 Vibration     5          0.661              1.769              1.757
 Vibration     6          0.677              1.720              1.566
 Vibration     7          0.724              1.584              1.185
 Vibration     8          0.738              1.544              1.100
 Vibration     9          0.881              1.193              0.597
 Vibration    10          0.920              1.108              0.515
 Vibration    11          0.980              0.989              0.416

 Optimization completed.
    -- Stationary point found.
 Normal termination of Gaussian 09 at Tue Jan 28 00:58:08 2020.
