 Gaussian 09, Revision D.01,
 Gaussian 09:  ES64L-G09RevD.01 24-Apr-2013

 -----------------------------
 # b3lyp 6-31G(2df,p) opt Freq
 -----------------------------

 -----
 titel
 -----
 Symbolic Z-matrix:
 Charge =  0 Multiplicity = 1

 SCF Done:  E(RB3LYP) =  -423.168024712     A.U. after   14 cycles
 Optimization completed.
    -- Stationary point found.
 Normal termination of Gaussian 09 at Mon Jan 27 22:01:00 2020.

 ----------------------------------------------------------------------
 #N Geom=AllCheck Guess=TCheck SCRF=Check GenChk RB3LYP/6-31G(2df,p) Fr
 eq
 ----------------------------------------------------------------------

 Structure from the checkpoint file:  "/scratch/puck/g09_383b84a6-ee36-47d6-b389-1094c05cbd32/Gau-98347.chk"
 -----
 titel
 -----
 Charge =  0 Multiplicity = 1

                         Standard orientation:
 ---------------------------------------------------------------------
 Center     Atomic      Atomic             Coordinates (Angstroms)
 Number     Number       Type             X           Y           Z
 ---------------------------------------------------------------------
      1          8           0        0.377615    1.781585   -0.664888
      2          6           0       -0.016868    0.482566   -0.980937
      3          6           0        0.978146   -0.710129   -0.768055
      4          6           0       -0.235425   -1.563989   -0.226746
      5          6           0       -1.026428   -0.260759   -0.087170
      6          6           0       -2.499972   -0.040184    0.044648
      7          6           0       -1.573952    0.302802    1.190227
      8          6           0        1.995773   -0.518131    0.316295
      9          8           0        2.032198    0.415026    1.088861
     10          1           0        0.870652    1.720532    0.167335
     11          1           0       -0.357425    0.501580   -2.022607
     12          1           0        1.472605   -1.120252   -1.653722
     13          1           0       -0.621699   -2.236347   -0.997494
     14          1           0       -0.057991   -2.140722    0.685457
     15          1           0       -2.940969    0.778683   -0.515601
     16          1           0       -3.142360   -0.909227    0.148322
     17          1           0       -1.381526    1.352301    1.387595
     18          1           0       -1.586076   -0.330974    2.071167
     19          1           0        2.738642   -1.341525    0.408191
 ---------------------------------------------------------------------

 SCF Done:  E(RB3LYP) =  -423.168024712     A.U. after    1 cycles

 The electronic state is 1-A.
 Alpha  occ. eigenvalues --  -19.15602 -19.12718 -10.28483 -10.23565 -10.20454
 Alpha  occ. eigenvalues --  -10.20422 -10.19471 -10.18462 -10.18426  -1.06212
 Alpha  occ. eigenvalues --   -1.01443  -0.87486  -0.81175  -0.68476  -0.66158
 Alpha  occ. eigenvalues --   -0.60207  -0.57179  -0.55524  -0.50258  -0.49735
 Alpha  occ. eigenvalues --   -0.48041  -0.45602  -0.42686  -0.41889  -0.41119
 Alpha  occ. eigenvalues --   -0.39613  -0.38104  -0.36308  -0.35987  -0.30728
 Alpha  occ. eigenvalues --   -0.29226  -0.28554  -0.26318  -0.24958
 Alpha virt. eigenvalues --   -0.03590   0.07306   0.10033   0.10608   0.11585
 Alpha virt. eigenvalues --    0.12264   0.12863   0.15215   0.15986   0.16652
 Alpha virt. eigenvalues --    0.17305   0.19412   0.19767   0.22749   0.23816

 Mulliken charges:
               1
     1  O   -0.431879
     2  C    0.077619
     3  C   -0.161424
     4  C   -0.333410
     5  C    0.343837
     6  C   -0.343887
     7  C   -0.307972
     8  C    0.160896
     9  O   -0.267202
    10  H    0.297372
    11  H    0.089687
    12  H    0.089522
    13  H    0.114818
    14  H    0.112246
    15  H    0.119268
    16  H    0.110084
    17  H    0.125447
    18  H    0.111023
    19  H    0.093956
 Sum of Mulliken charges =   0.00000

 Dipole moment (field-independent basis, Debye):
    X=             -0.2461    Y=             -2.9271    Z=             -0.6615  Tot=              3.0110
 Quadrupole moment (field-independent basis, Debye-Ang):
   XX=            -53.0772   YY=            -54.4311   ZZ=            -53.8464
   XY=             -2.5901   XZ=             -2.0004   YZ=              1.3808

  Exact polarizability:  84.047  -2.590  73.986   1.060   3.671  70.089
 Approx polarizability: 110.404   0.114 114.487   4.063  10.103 109.750

                      1                      2                      3
                      A                      A                      A
 Frequencies --     69.8799               102.0186               209.7023
 Red. masses --      4.7732                 3.0762                 3.7215
 Frc consts  --      0.0137                 0.0189                 0.0964
 IR Inten    --      0.6148                 3.6774                 2.6728

                      4                      5                      6
                      A                      A                      A
 Frequencies --    216.6148               248.6307               284.8976
 Red. masses --      2.4961                 5.1512                 2.9671
 Frc consts  --      0.0690                 0.1876                 0.1419
 IR Inten    --      0.8025                 7.0663                 2.2121

                      7                      8                      9
                      A                      A                      A
 Frequencies --    341.1752               403.8962               526.7263
 Red. masses --      1.9815                 3.6125                 3.4286
 Frc consts  --      0.1359                 0.3472                 0.5604
 IR Inten    --      0.3726                 3.3128                14.3862

                     10                     11                     12
                      A                      A                      A
 Frequencies --    548.3320               603.3547               719.8326
 Red. masses --      3.3728                 1.2019                 4.4437
 Frc consts  --      0.5975                 0.2578                 1.3566
 IR Inten    --      3.5302               115.0376                 1.3672

                     13                     14                     15
                      A                      A                      A
 Frequencies --    775.8689               792.3517               802.5772
 Red. masses --      1.1790                 1.8624                 2.2402
 Frc consts  --      0.4182                 0.6889                 0.8502
 IR Inten    --      1.3906                 3.1289                 4.3655

                     16                     17                     18
                      A                      A                      A
 Frequencies --    848.0919               873.7366               909.8491
 Red. masses --      2.7335                 2.8368                 2.0772
 Frc consts  --      1.1584                 1.2760                 1.0131
 IR Inten    --      2.5072                 3.9616                 3.6766

                     19                     20                     21
                      A                      A                      A
 Frequencies --    931.0120               972.8840               995.7506
 Red. masses --      1.2284                 2.1481                 2.6049
 Frc consts  --      0.6273                 1.1979                 1.5218
 IR Inten    --     10.0993                 4.1413                20.6225

                     22                     23                     24
                      A                      A                      A
 Frequencies --   1024.3312              1052.9796              1077.6016
 Red. masses --      1.9491                 1.4096                 1.4576
 Frc consts  --      1.2049                 0.9209                 0.9973
 IR Inten    --     38.7340                 3.0742                 0.2663

                     25                     26                     27
                      A                      A                      A
 Frequencies --   1094.8920              1137.7582              1164.0654
 Red. masses --      1.9697                 1.9486                 1.8109
 Frc consts  --      1.3912                 1.4862                 1.4458
 IR Inten    --      0.3912                40.6560                72.4959

                     28                     29                     30
                      A                      A                      A
 Frequencies --   1172.0866              1190.0121              1232.9555
 Red. masses --      1.4423                 1.2897                 1.3446
 Frc consts  --      1.1674                 1.0761                 1.2043
 IR Inten    --      5.2790                 0.1826                 4.6621

                     31                     32                     33
                      A                      A                      A
 Frequencies --   1243.3966              1266.8411              1321.7703
 Red. masses --      1.6327                 1.9090                 1.5135
 Frc consts  --      1.4873                 1.8051                 1.5579
 IR Inten    --     22.4485                11.9753                13.0241

                     34                     35                     36
                      A                      A                      A
 Frequencies --   1355.3589              1386.0412              1425.6318
 Red. masses --      1.7046                 2.4269                 1.2161
 Frc consts  --      1.8449                 2.7470                 1.4562
 IR Inten    --      9.5003                 5.2473                12.4960

                     37                     38                     39
                      A                      A                      A
 Frequencies --   1458.8421              1465.7626              1490.1618
 Red. masses --      1.0892                 1.1869                 1.1599
 Frc consts  --      1.3657                 1.5025                 1.5176
 IR Inten    --      1.5134                74.2189                14.2082

                     40                     41                     42
                      A                      A                      A
 Frequencies --   1502.1675              1792.5201              2886.0092
 Red. masses --      1.5142                 9.5886                 1.0834
 Frc consts  --      2.0131                18.1524                 5.3165
 IR Inten    --      2.2251               127.8753               122.4811

                     43                     44                     45
                      A                      A                      A
 Frequencies --   3041.4329              3051.6042              3069.2314
 Red. masses --      1.0849                 1.0591                 1.0852
 Frc consts  --      5.9128                 5.8109                 6.0232
 IR Inten    --     33.4513                25.2918                33.5270

                     46                     47                     48
                      A                      A                      A
 Frequencies --   3103.3091              3120.6810              3126.4468
 Red. masses --      1.1081                 1.0521                 1.0556
 Frc consts  --      6.2877                 6.0367                 6.0790
 IR Inten    --     18.9230                17.4450                10.6986

                     49                     50                     51
                      A                      A                      A
 Frequencies --   3200.5028              3217.0669              3705.5905
 Red. masses --      1.1176                 1.1158                 1.0651
 Frc consts  --      6.7452                 6.8041                 8.6170
 IR Inten    --      1.7902                11.1423               101.1994

 - Thermochemistry -
 -------------------
 Temperature   298.150 Kelvin.  Pressure   1.00000 Atm.
 Atom     1 has atomic number  8 and mass  15.99491

 Molecular mass:   126.06808 amu.
 Principal axes and moments of inertia in atomic units:
                           1         2         3
     Eigenvalues --   695.308321279.365091413.96052
           X            0.99964  -0.01754  -0.02052
           Y            0.01863   0.99835   0.05437
           Z            0.01954  -0.05473   0.99831
 This molecule is an asymmetric top.
 Rotational symmetry number  1.
 Warning -- assumption of classical behavior for rotation
           may cause significant error
 Rotational temperatures (Kelvin)      0.12457     0.06770     0.06126
 Rotational constants (GHZ):           2.59560     1.41065     1.27637
 Zero-point vibrational energy     416026.7 (Joules/Mol)
                                   99.43277 (Kcal/Mol)
 Warning -- explicit consideration of  11 degrees of freedom as
           vibrations may cause significant error
 Vibrational temperatures:    100.54   146.78   301.71   311.66   357.72
          (Kelvin)            409.90   490.87   581.12   757.84   788.93
                              868.09  1035.68  1116.30  1140.02  1154.73
                             1220.21  1257.11  1309.07  1339.52  1399.76
                             1432.66  1473.78  1515.00  1550.43  1575.30
                             1636.98  1674.83  1686.37  1712.16  1773.95
                             1788.97  1822.70  1901.73  1950.06  1994.20
                             2051.16  2098.95  2108.90  2144.01  2161.28
                             2579.03  4152.32  4375.94  4390.57  4415.93
                             4464.96  4489.96  4498.25  4604.80  4628.64
                             5331.51

 Zero-point correction=                           0.158456 (Hartree/Particle)
 Thermal correction to Energy=                    0.166997
 Thermal correction to Enthalpy=                  0.167941
 Thermal correction to Gibbs Free Energy=         0.125152
 Sum of electronic and zero-point Energies=           -423.009569
 Sum of electronic and thermal Energies=              -423.001028
 Sum of electronic and thermal Enthalpies=            -423.000084
 Sum of electronic and thermal Free Energies=         -423.042873

                     E (Thermal)             CV                S
                      KCal/Mol        Cal/Mol-Kelvin    Cal/Mol-Kelvin
 Total                  104.792             32.559             90.057
 Electronic               0.000              0.000              0.000
 Translational            0.889              2.981             40.409
 Rotational               0.889              2.981             28.622
 Vibrational            103.015             26.597             21.027
 Vibration     1          0.598              1.968              4.157
 Vibration     2          0.604              1.948              3.415
 Vibration     3          0.642              1.826              2.046
 Vibration     4          0.645              1.816              1.987
 Vibration     5          0.662              1.765              1.740
 Vibration     6          0.683              1.702              1.504
 Vibration     7          0.721              1.593              1.207
 Vibration     8          0.769              1.462              0.948
 Vibration     9          0.882              1.191              0.595
 Vibration    10          0.904              1.143              0.548
 Vibration    11          0.962              1.025              0.444

 Normal termination of Gaussian 09 at Mon Jan 27 22:46:02 2020.
