 Gaussian 09, Revision D.01,
 Gaussian 09:  ES64L-G09RevD.01 24-Apr-2013

 -----------------------------
 # b3lyp 6-31G(2df,p) opt Freq
 -----------------------------

 -----
 titel
 -----
 Symbolic Z-matrix:
 Charge =  0 Multiplicity = 1

 SCF Done:  E(RB3LYP) =  -423.218878728     A.U. after   15 cycles
 Optimization completed.
    -- Stationary point found.
 Normal termination of Gaussian 09 at Tue Jan 28 03:58:20 2020.

 ----------------------------------------------------------------------
 #N Geom=AllCheck Guess=TCheck SCRF=Check GenChk RB3LYP/6-31G(2df,p) Fr
 eq
 ----------------------------------------------------------------------

 Structure from the checkpoint file:  "/scratch/puck/g09_4a4ec496-951c-4c19-8600-a6fa0e534a75/Gau-32167.chk"
 -----
 titel
 -----
 Charge =  0 Multiplicity = 1

                         Standard orientation:
 ---------------------------------------------------------------------
 Center     Atomic      Atomic             Coordinates (Angstroms)
 Number     Number       Type             X           Y           Z
 ---------------------------------------------------------------------
      1          6           0        2.881490    0.730528    0.156202
      2          6           0        1.859167   -0.383632    0.023535
      3          8           0        2.192000   -1.551853    0.015351
      4          6           0        0.425717    0.014243   -0.090164
      5          6           0       -0.568554   -0.867353   -0.257090
      6          6           0       -1.918036   -0.203461   -0.374022
      7          8           0       -2.957780   -0.846174    0.346429
      8          6           0       -1.625972    1.253889    0.073288
      9          6           0       -0.097895    1.440509   -0.084844
     10          1           0        2.802677    1.433750   -0.680626
     11          1           0        2.701312    1.307667    1.070733
     12          1           0        3.883967    0.303185    0.187342
     13          1           0       -0.431021   -1.939887   -0.328945
     14          1           0       -2.259905   -0.234668   -1.417573
     15          1           0       -2.669270   -0.927626    1.262606
     16          1           0       -2.213947    1.992221   -0.475972
     17          1           0       -1.904268    1.339931    1.130140
     18          1           0        0.144193    1.942822   -1.031172
     19          1           0        0.337008    2.058487    0.707794
 ---------------------------------------------------------------------

 SCF Done:  E(RB3LYP) =  -423.218878728     A.U. after    1 cycles

 The electronic state is 1-A.
 Alpha  occ. eigenvalues --  -19.14074 -19.12393 -10.26927 -10.24115 -10.19903
 Alpha  occ. eigenvalues --  -10.19710 -10.19432 -10.19085 -10.18900  -1.03400
 Alpha  occ. eigenvalues --   -1.02336  -0.85101  -0.75429  -0.72562  -0.70083
 Alpha  occ. eigenvalues --   -0.60267  -0.59359  -0.52321  -0.49987  -0.48316
 Alpha  occ. eigenvalues --   -0.46108  -0.44261  -0.42831  -0.42052  -0.40232
 Alpha  occ. eigenvalues --   -0.38930  -0.37840  -0.37026  -0.36409  -0.35423
 Alpha  occ. eigenvalues --   -0.32789  -0.27820  -0.25683  -0.24534
 Alpha virt. eigenvalues --   -0.05460   0.06137   0.07763   0.09141   0.10307
 Alpha virt. eigenvalues --    0.12038   0.14338   0.14982   0.15365   0.17121
 Alpha virt. eigenvalues --    0.17952   0.18177   0.19594   0.22341   0.23444

 Mulliken charges:
               1
     1  C   -0.488984
     2  C    0.294178
     3  O   -0.304049
     4  C    0.227449
     5  C   -0.194762
     6  C    0.116157
     7  O   -0.429593
     8  C   -0.247043
     9  C   -0.335358
    10  H    0.137630
    11  H    0.139387
    12  H    0.141611
    13  H    0.128101
    14  H    0.103418
    15  H    0.276855
    16  H    0.108899
    17  H    0.101605
    18  H    0.116298
    19  H    0.108201
 Sum of Mulliken charges =   0.00000

 Dipole moment (field-independent basis, Debye):
    X=             -0.0358    Y=              2.9905    Z=              0.5439  Tot=              3.0398
 Quadrupole moment (field-independent basis, Debye-Ang):
   XX=            -60.7060   YY=            -56.0792   ZZ=            -49.4837
   XY=              4.2887   XZ=             -1.1395   YZ=             -0.8278

  Exact polarizability: 101.865   4.105  79.846   2.078   0.296  57.480
 Approx polarizability: 139.099   8.035 125.061   4.289   0.615  91.107

                      1                      2                      3
                      A                      A                      A
 Frequencies --     49.6686               102.7743               130.3343
 Red. masses --      3.6668                 2.8270                 2.7419
 Frc consts  --      0.0053                 0.0176                 0.0274
 IR Inten    --      1.2874                 3.6963                 1.0644

                      4                      5                      6
                      A                      A                      A
 Frequencies --    155.4140               180.8156               308.0649
 Red. masses --      1.0571                 3.9721                 1.8008
 Frc consts  --      0.0150                 0.0765                 0.1007
 IR Inten    --      0.0214                 2.2564                18.0268

                      7                      8                      9
                      A                      A                      A
 Frequencies --    340.8508               372.7049               400.8974
 Red. masses --      1.6844                 2.8157                 4.3642
 Frc consts  --      0.1153                 0.2304                 0.4133
 IR Inten    --     60.2611                 2.8621                24.6645

                     10                     11                     12
                      A                      A                      A
 Frequencies --    473.3436               529.9866               587.6771
 Red. masses --      3.9369                 2.6431                 2.2354
 Frc consts  --      0.5197                 0.4374                 0.4549
 IR Inten    --      0.6826                 2.8523                 2.6133

                     13                     14                     15
                      A                      A                      A
 Frequencies --    616.8774               630.3711               825.2490
 Red. masses --      3.5159                 2.5658                 2.4822
 Frc consts  --      0.7883                 0.6007                 0.9960
 IR Inten    --     19.3675                11.0690                 6.1892

                     16                     17                     18
                      A                      A                      A
 Frequencies --    857.6903               878.8998               912.9113
 Red. masses --      2.3342                 2.7869                 1.4004
 Frc consts  --      1.0117                 1.2684                 0.6876
 IR Inten    --      2.1310                12.7514                17.5585

                     19                     20                     21
                      A                      A                      A
 Frequencies --    967.2587               983.8456              1010.0696
 Red. masses --      2.1474                 2.2224                 1.6482
 Frc consts  --      1.1837                 1.2675                 0.9907
 IR Inten    --     22.0823                 8.6204                 1.7546

                     22                     23                     24
                      A                      A                      A
 Frequencies --   1037.6073              1042.1984              1085.0073
 Red. masses --      2.3305                 1.8651                 2.1134
 Frc consts  --      1.4783                 1.1936                 1.4659
 IR Inten    --     37.4769                 2.6855                15.8152

                     25                     26                     27
                      A                      A                      A
 Frequencies --   1111.7811              1154.5035              1213.8440
 Red. masses --      3.4239                 1.2722                 1.5177
 Frc consts  --      2.4935                 0.9990                 1.3175
 IR Inten    --     50.0718                14.0329                61.4921

                     28                     29                     30
                      A                      A                      A
 Frequencies --   1254.2736              1262.1269              1271.4102
 Red. masses --      1.2884                 1.4997                 2.1366
 Frc consts  --      1.1942                 1.4076                 2.0349
 IR Inten    --      1.5782                19.3719               113.4666

                     31                     32                     33
                      A                      A                      A
 Frequencies --   1306.1602              1324.9002              1351.8724
 Red. masses --      1.5952                 1.4790                 1.8522
 Frc consts  --      1.6034                 1.5297                 1.9944
 IR Inten    --      3.4252                 4.0892                 0.9555

                     34                     35                     36
                      A                      A                      A
 Frequencies --   1383.2323              1423.1058              1461.0899
 Red. masses --      1.3394                 1.2337                 1.0563
 Frc consts  --      1.5099                 1.4721                 1.3286
 IR Inten    --     43.3443                90.8948                11.6757

                     37                     38                     39
                      A                      A                      A
 Frequencies --   1474.7866              1483.2691              1499.4712
 Red. masses --      1.0500                 1.0817                 1.0978
 Frc consts  --      1.3455                 1.4022                 1.4542
 IR Inten    --      9.2841                 0.5594                 2.8647

                     40                     41                     42
                      A                      A                      A
 Frequencies --   1668.3178              1777.9156              3016.8239
 Red. masses --      7.9653                10.8026                 1.0799
 Frc consts  --     13.0620                20.1187                 5.7909
 IR Inten    --     77.0417               116.0546                22.3765

                     43                     44                     45
                      A                      A                      A
 Frequencies --   3017.8935              3033.9011              3042.9933
 Red. masses --      1.0701                 1.0386                 1.0690
 Frc consts  --      5.7424                 5.6325                 5.8322
 IR Inten    --     23.5620                 3.5954                22.0760

                     46                     47                     48
                      A                      A                      A
 Frequencies --   3065.3301              3092.6747              3110.1972
 Red. masses --      1.0906                 1.0978                 1.0990
 Frc consts  --      6.0378                 6.1867                 6.2636
 IR Inten    --     26.8748                 9.3962                31.6759

                     49                     50                     51
                      A                      A                      A
 Frequencies --   3154.9897              3214.3762              3794.8660
 Red. masses --      1.1012                 1.0938                 1.0660
 Frc consts  --      6.4580                 6.6584                 9.0450
 IR Inten    --     11.0854                 0.9357                13.2869

 - Thermochemistry -
 -------------------
 Temperature   298.150 Kelvin.  Pressure   1.00000 Atm.
 Atom     1 has atomic number  6 and mass  12.00000

 Molecular mass:   126.06808 amu.
 Principal axes and moments of inertia in atomic units:
                           1         2         3
     Eigenvalues --   524.316971804.129252232.52409
           X            0.99983   0.01827   0.00144
           Y           -0.01827   0.99983   0.00275
           Z           -0.00139  -0.00277   1.00000
 This molecule is an asymmetric top.
 Rotational symmetry number  1.
 Warning -- assumption of classical behavior for rotation
           may cause significant error
 Rotational temperatures (Kelvin)      0.16519     0.04801     0.03880
 Rotational constants (GHZ):           3.44208     1.00034     0.80839
 Zero-point vibrational energy     415383.1 (Joules/Mol)
                                   99.27893 (Kcal/Mol)
 Warning -- explicit consideration of  13 degrees of freedom as
           vibrations may cause significant error
 Vibrational temperatures:     71.46   147.87   187.52   223.61   260.15
          (Kelvin)            443.24   490.41   536.24   576.80   681.04
                              762.53   845.54   887.55   906.96  1187.35
                             1234.02  1264.54  1313.47  1391.67  1415.53
                             1453.26  1492.88  1499.49  1561.08  1599.60
                             1661.07  1746.45  1804.62  1815.92  1829.27
                             1879.27  1906.23  1945.04  1990.16  2047.53
                             2102.18  2121.89  2134.09  2157.40  2400.33
                             2558.02  4340.53  4342.07  4365.10  4378.18
                             4410.32  4449.66  4474.87  4539.32  4624.76
                             5459.96

 Zero-point correction=                           0.158211 (Hartree/Particle)
 Thermal correction to Energy=                    0.167468
 Thermal correction to Enthalpy=                  0.168412
 Thermal correction to Gibbs Free Energy=         0.123544
 Sum of electronic and zero-point Energies=           -423.060668
 Sum of electronic and thermal Energies=              -423.051411
 Sum of electronic and thermal Enthalpies=            -423.050467
 Sum of electronic and thermal Free Energies=         -423.095335

                     E (Thermal)             CV                S
                      KCal/Mol        Cal/Mol-Kelvin    Cal/Mol-Kelvin
 Total                  105.088             33.871             94.433
 Electronic               0.000              0.000              0.000
 Translational            0.889              2.981             40.409
 Rotational               0.889              2.981             29.136
 Vibrational            103.310             27.909             24.888
 Vibration     1          0.595              1.978              4.831
 Vibration     2          0.605              1.947              3.401
 Vibration     3          0.612              1.923              2.941
 Vibration     4          0.620              1.897              2.605
 Vibration     5          0.630              1.866              2.320
 Vibration     6          0.698              1.658              1.373
 Vibration     7          0.720              1.594              1.208
 Vibration     8          0.744              1.528              1.069
 Vibration     9          0.767              1.468              0.959
 Vibration    10          0.830              1.309              0.728
 Vibration    11          0.885              1.184              0.587
 Vibration    12          0.945              1.058              0.471
 Vibration    13          0.977              0.996              0.422

 Optimization completed.
    -- Stationary point found.
 Normal termination of Gaussian 09 at Tue Jan 28 04:40:00 2020.
