 Gaussian 09, Revision D.01,
 Gaussian 09:  ES64L-G09RevD.01 24-Apr-2013

 -----------------------------
 # b3lyp 6-31G(2df,p) opt Freq
 -----------------------------

 -----
 titel
 -----
 Symbolic Z-matrix:
 Charge =  0 Multiplicity = 1

 SCF Done:  E(RB3LYP) =  -423.217024804     A.U. after   14 cycles
 SCF Done:  E(RB3LYP) =  -423.217024837     A.U. after    6 cycles
 SCF Done:  E(RB3LYP) =  -423.217024834     A.U. after    7 cycles
 SCF Done:  E(RB3LYP) =  -423.217024899     A.U. after    6 cycles
 Optimization completed.
    -- Stationary point found.
 Normal termination of Gaussian 09 at Tue Jan 28 14:22:53 2020.

 ----------------------------------------------------------------------
 #N Geom=AllCheck Guess=TCheck SCRF=Check GenChk RB3LYP/6-31G(2df,p) Fr
 eq
 ----------------------------------------------------------------------

 Structure from the checkpoint file:  "/scratch/puck/g09_a4c8e650-57e6-43b3-a061-a73a57ad5ae7/Gau-25413.chk"
 -----
 titel
 -----
 Charge =  0 Multiplicity = 1

                         Standard orientation:
 ---------------------------------------------------------------------
 Center     Atomic      Atomic             Coordinates (Angstroms)
 Number     Number       Type             X           Y           Z
 ---------------------------------------------------------------------
      1          6           0        2.419407   -0.927546    0.696668
      2          6           0        1.626143   -0.115563   -0.337317
      3          6           0        1.480708    1.361523   -0.060467
      4          6           0        0.213452    1.777908   -0.099879
      5          6           0       -0.756855    0.668215   -0.410879
      6          6           0       -1.916272    0.461832    0.588871
      7          8           0       -2.784815   -0.564362    0.171666
      8          6           0        0.158919   -0.562167   -0.435657
      9          8           0       -0.222622   -1.710819   -0.450410
     10          1           0        3.474269   -0.638520    0.693148
     11          1           0        2.025632   -0.766453    1.704868
     12          1           0        2.347585   -1.993805    0.467832
     13          1           0        2.084497   -0.280243   -1.325455
     14          1           0        2.337963    1.996126    0.135736
     15          1           0       -0.110337    2.800326    0.060803
     16          1           0       -1.217676    0.787569   -1.402694
     17          1           0       -1.497248    0.268877    1.590587
     18          1           0       -2.509127    1.380683    0.656528
     19          1           0       -2.229065   -1.338323    0.000557
 ---------------------------------------------------------------------

 SCF Done:  E(RB3LYP) =  -423.217024899     A.U. after    1 cycles

 The electronic state is 1-A.
 Alpha  occ. eigenvalues --  -19.14913 -19.12323 -10.27892 -10.23203 -10.20810
 Alpha  occ. eigenvalues --  -10.20121 -10.19757 -10.19668 -10.18839  -1.05779
 Alpha  occ. eigenvalues --   -1.00824  -0.85946  -0.77320  -0.72000  -0.66277
 Alpha  occ. eigenvalues --   -0.63758  -0.56073  -0.53930  -0.50763  -0.49167
 Alpha  occ. eigenvalues --   -0.46218  -0.44054  -0.43462  -0.41775  -0.40495
 Alpha  occ. eigenvalues --   -0.39901  -0.38752  -0.37780  -0.36634  -0.35322
 Alpha  occ. eigenvalues --   -0.32625  -0.27095  -0.25554  -0.24923
 Alpha virt. eigenvalues --   -0.03094   0.00202   0.10065   0.11493   0.12117
 Alpha virt. eigenvalues --    0.12846   0.13255   0.14943   0.15180   0.16454
 Alpha virt. eigenvalues --    0.17067   0.18363   0.20289   0.22009   0.23192

 Mulliken charges:
               1
     1  C   -0.393372
     2  C   -0.141479
     3  C   -0.082463
     4  C   -0.097420
     5  C   -0.177201
     6  C   -0.058738
     7  O   -0.423727
     8  C    0.396260
     9  O   -0.339857
    10  H    0.118949
    11  H    0.123701
    12  H    0.141500
    13  H    0.114449
    14  H    0.104154
    15  H    0.105664
    16  H    0.118109
    17  H    0.087574
    18  H    0.107322
    19  H    0.296575
 Sum of Mulliken charges =   0.00000

 Dipole moment (field-independent basis, Debye):
    X=              2.7110    Y=              2.1217    Z=             -0.0132  Tot=              3.4425
 Quadrupole moment (field-independent basis, Debye-Ang):
   XX=            -57.4000   YY=            -54.0108   ZZ=            -52.6697
   XY=             -2.2287   XZ=             -0.0392   YZ=             -0.4274

  Exact polarizability:  94.659  -3.353  79.010   1.295   1.450  57.079
 Approx polarizability: 134.763  -4.117 119.963   1.948   3.272  88.042

                      1                      2                      3
                      A                      A                      A
 Frequencies --     47.5442               140.5654               177.3533
 Red. masses --      4.7242                 3.0443                 3.6986
 Frc consts  --      0.0063                 0.0354                 0.0685
 IR Inten    --      0.2490                 3.4115                 1.8035

                      4                      5                      6
                      A                      A                      A
 Frequencies --    206.2430               219.0921               266.7815
 Red. masses --      1.1651                 2.3510                 3.4733
 Frc consts  --      0.0292                 0.0665                 0.1456
 IR Inten    --      0.4001                 3.0606                 4.8436

                      7                      8                      9
                      A                      A                      A
 Frequencies --    306.2731               389.5579               505.0639
 Red. masses --      2.8475                 5.8447                 3.4319
 Frc consts  --      0.1574                 0.5226                 0.5158
 IR Inten    --      2.0808                 2.5100                10.4699

                     10                     11                     12
                      A                      A                      A
 Frequencies --    549.1455               557.0841               573.3924
 Red. masses --      1.7643                 1.6223                 3.5418
 Frc consts  --      0.3135                 0.2966                 0.6861
 IR Inten    --     49.0253                43.5928                18.6225

                     13                     14                     15
                      A                      A                      A
 Frequencies --    662.6315               731.4206               758.7499
 Red. masses --      4.0840                 1.6184                 4.6751
 Frc consts  --      1.0565                 0.5101                 1.5858
 IR Inten    --      8.5416                33.8902                 7.3319

                     16                     17                     18
                      A                      A                      A
 Frequencies --    801.6781               896.6318               954.9343
 Red. masses --      1.8995                 2.0817                 1.7214
 Frc consts  --      0.7193                 0.9861                 0.9249
 IR Inten    --      3.4934                10.8834                20.0463

                     19                     20                     21
                      A                      A                      A
 Frequencies --    982.8742              1008.0334              1025.4047
 Red. masses --      1.2369                 2.5678                 1.9622
 Frc consts  --      0.7040                 1.5373                 1.2156
 IR Inten    --      0.0726                 0.4695                 1.1467

                     22                     23                     24
                      A                      A                      A
 Frequencies --   1036.6745              1088.2104              1089.4140
 Red. masses --      1.7197                 4.9546                 1.6552
 Frc consts  --      1.0889                 3.4569                 1.1574
 IR Inten    --      3.2847               105.9702                19.7109

                     25                     26                     27
                      A                      A                      A
 Frequencies --   1122.2944              1143.0505              1155.9778
 Red. masses --      2.0302                 1.1871                 2.6346
 Frc consts  --      1.5066                 0.9138                 2.0743
 IR Inten    --      2.7051                 5.4547                29.3611

                     28                     29                     30
                      A                      A                      A
 Frequencies --   1198.8832              1245.4532              1279.4822
 Red. masses --      1.2928                 1.4546                 1.9287
 Frc consts  --      1.0948                 1.3294                 1.8603
 IR Inten    --     11.8251                 2.0651                 9.5386

                     31                     32                     33
                      A                      A                      A
 Frequencies --   1299.4469              1306.0854              1378.8489
 Red. masses --      1.4545                 1.4669                 1.6851
 Frc consts  --      1.4471                 1.4743                 1.8876
 IR Inten    --      3.0753                21.3774                 5.9049

                     34                     35                     36
                      A                      A                      A
 Frequencies --   1380.4615              1406.4674              1456.9541
 Red. masses --      1.2656                 1.2657                 1.2049
 Frc consts  --      1.4210                 1.4751                 1.5069
 IR Inten    --      2.0741                 2.6575               107.4528

                     37                     38                     39
                      A                      A                      A
 Frequencies --   1494.1202              1500.1069              1513.6641
 Red. masses --      1.0461                 1.0512                 1.0900
 Frc consts  --      1.3759                 1.3938                 1.4714
 IR Inten    --      6.7646                 2.9470                 0.4929

                     40                     41                     42
                      A                      A                      A
 Frequencies --   1674.2449              1814.9480              2964.1098
 Red. masses --      6.7658                12.2055                 1.0703
 Frc consts  --     11.1740                23.6884                 5.5402
 IR Inten    --      0.0806               148.4122                47.5763

                     43                     44                     45
                      A                      A                      A
 Frequencies --   2984.4361              3005.8672              3042.7698
 Red. masses --      1.0800                 1.0803                 1.0343
 Frc consts  --      5.6677                 5.7507                 5.6421
 IR Inten    --     11.0717                17.6798                23.3147

                     46                     47                     48
                      A                      A                      A
 Frequencies --   3063.1872              3113.5742              3127.5179
 Red. masses --      1.0928                 1.1025                 1.1021
 Frc consts  --      6.0413                 6.2971                 6.3512
 IR Inten    --     36.7284                21.1148                11.3815

                     49                     50                     51
                      A                      A                      A
 Frequencies --   3182.7924              3205.8647              3729.8333
 Red. masses --      1.0849                 1.1029                 1.0657
 Frc consts  --      6.4752                 6.6787                 8.7352
 IR Inten    --      3.6393                17.1813                71.7774

 - Thermochemistry -
 -------------------
 Temperature   298.150 Kelvin.  Pressure   1.00000 Atm.
 Atom     1 has atomic number  6 and mass  12.00000

 Molecular mass:   126.06808 amu.
 Principal axes and moments of inertia in atomic units:
                           1         2         3
     Eigenvalues --   661.818271362.935571811.63836
           X            0.99945  -0.03236   0.00728
           Y            0.03245   0.99939  -0.01292
           Z           -0.00686   0.01315   0.99989
 This molecule is an asymmetric top.
 Rotational symmetry number  1.
 Warning -- assumption of classical behavior for rotation
           may cause significant error
 Rotational temperatures (Kelvin)      0.13087     0.06355     0.04781
 Rotational constants (GHZ):           2.72694     1.32416     0.99619
 Zero-point vibrational energy     417288.5 (Joules/Mol)
                                   99.73435 (Kcal/Mol)
 Warning -- explicit consideration of  12 degrees of freedom as
           vibrations may cause significant error
 Vibrational temperatures:     68.41   202.24   255.17   296.74   315.22
          (Kelvin)            383.84   440.66   560.49   726.67   790.10
                              801.52   824.98   953.38  1052.35  1091.67
                             1153.43  1290.05  1373.94  1414.14  1450.33
                             1475.33  1491.54  1565.69  1567.42  1614.73
                             1644.59  1663.19  1724.92  1791.93  1840.89
                             1869.61  1879.16  1983.85  1986.17  2023.59
                             2096.23  2149.70  2158.32  2177.82  2408.86
                             2611.30  4264.69  4293.93  4324.77  4377.86
                             4407.24  4479.73  4499.80  4579.32  4612.52
                             5366.39

 Zero-point correction=                           0.158937 (Hartree/Particle)
 Thermal correction to Energy=                    0.167781
 Thermal correction to Enthalpy=                  0.168725
 Thermal correction to Gibbs Free Energy=         0.125075
 Sum of electronic and zero-point Energies=           -423.058088
 Sum of electronic and thermal Energies=              -423.049244
 Sum of electronic and thermal Enthalpies=            -423.048300
 Sum of electronic and thermal Free Energies=         -423.091950

                     E (Thermal)             CV                S
                      KCal/Mol        Cal/Mol-Kelvin    Cal/Mol-Kelvin
 Total                  105.284             33.139             91.870
 Electronic               0.000              0.000              0.000
 Translational            0.889              2.981             40.409
 Rotational               0.889              2.981             28.882
 Vibrational            103.507             27.177             22.580
 Vibration     1          0.595              1.979              4.917
 Vibration     2          0.615              1.913              2.796
 Vibration     3          0.628              1.870              2.356
 Vibration     4          0.641              1.831              2.077
 Vibration     5          0.647              1.812              1.967
 Vibration     6          0.672              1.734              1.617
 Vibration     7          0.697              1.662              1.382
 Vibration     8          0.757              1.492              1.002
 Vibration     9          0.860              1.239              0.646
 Vibration    10          0.904              1.142              0.546
 Vibration    11          0.913              1.124              0.530
 Vibration    12          0.930              1.089              0.498

 Optimization completed.
    -- Stationary point found.
 Normal termination of Gaussian 09 at Tue Jan 28 15:06:37 2020.
 Normal termination of Gaussian 09 at Tue Jan 28 14:13:04 2020.
