 Gaussian 09, Revision D.01,
 Gaussian 09:  ES64L-G09RevD.01 24-Apr-2013

 -----------------------------
 # b3lyp 6-31G(2df,p) opt Freq
 -----------------------------

 -----
 titel
 -----
 Symbolic Z-matrix:
 Charge =  0 Multiplicity = 1

 SCF Done:  E(RB3LYP) =  -423.205904112     A.U. after   14 cycles
 Optimization completed.
    -- Stationary point found.
 Normal termination of Gaussian 09 at Tue Jan 28 04:01:34 2020.

 ----------------------------------------------------------------------
 #N Geom=AllCheck Guess=TCheck SCRF=Check GenChk RB3LYP/6-31G(2df,p) Fr
 eq
 ----------------------------------------------------------------------

 Structure from the checkpoint file:  "/scratch/puck/g09_45e82be7-7bc7-4ff2-aaac-8e69e2ea7e4b/Gau-93602.chk"
 -----
 titel
 -----
 Charge =  0 Multiplicity = 1

                         Standard orientation:
 ---------------------------------------------------------------------
 Center     Atomic      Atomic             Coordinates (Angstroms)
 Number     Number       Type             X           Y           Z
 ---------------------------------------------------------------------
      1          8           0        2.923634   -0.736701    0.763029
      2          6           0        2.074524   -0.151727   -0.215342
      3          6           0        1.548032    1.261178    0.158763
      4          6           0        0.090779    1.318308   -0.354106
      5          6           0       -0.272597   -0.140542   -0.551979
      6          6           0       -1.695668   -0.564703   -0.795750
      7          6           0       -2.482921   -0.477103    0.505623
      8          8           0       -3.349932    0.324743    0.731890
      9          6           0        0.804383   -0.926452   -0.482000
     10          1           0        2.400188   -0.853246    1.564129
     11          1           0        2.701041   -0.116944   -1.116151
     12          1           0        1.564992    1.344064    1.251493
     13          1           0        2.177074    2.063715   -0.232420
     14          1           0       -0.592215    1.834297    0.330486
     15          1           0        0.019356    1.853388   -1.311061
     16          1           0       -2.186474    0.078881   -1.532773
     17          1           0       -1.724735   -1.603533   -1.145254
     18          1           0       -2.162790   -1.217737    1.273985
     19          1           0        0.814752   -2.000985   -0.633049
 ---------------------------------------------------------------------

 SCF Done:  E(RB3LYP) =  -423.205904112     A.U. after    1 cycles

 The electronic state is 1-A.
 Alpha  occ. eigenvalues --  -19.14712 -19.13556 -10.27936 -10.23563 -10.20501
 Alpha  occ. eigenvalues --  -10.20467 -10.19296 -10.18572 -10.18399  -1.05401
 Alpha  occ. eigenvalues --   -1.01782  -0.85264  -0.77373  -0.71339  -0.68314
 Alpha  occ. eigenvalues --   -0.59422  -0.58787  -0.53422  -0.51381  -0.48292
 Alpha  occ. eigenvalues --   -0.46861  -0.45439  -0.44364  -0.41608  -0.40982
 Alpha  occ. eigenvalues --   -0.39148  -0.38083  -0.37356  -0.35502  -0.34287
 Alpha  occ. eigenvalues --   -0.32282  -0.27332  -0.26850  -0.24301
 Alpha virt. eigenvalues --   -0.03518   0.01753   0.08816   0.09952   0.10556
 Alpha virt. eigenvalues --    0.11663   0.12661   0.14294   0.15454   0.15986
 Alpha virt. eigenvalues --    0.17175   0.18967   0.20241   0.20741   0.22207

 Mulliken charges:
               1
     1  O   -0.432194
     2  C    0.126242
     3  C   -0.244057
     4  C   -0.305664
     5  C    0.310206
     6  C   -0.374366
     7  C    0.158979
     8  O   -0.231308
     9  C   -0.238888
    10  H    0.271999
    11  H    0.095631
    12  H    0.100645
    13  H    0.106743
    14  H    0.119091
    15  H    0.114596
    16  H    0.126182
    17  H    0.120997
    18  H    0.079475
    19  H    0.095691
 Sum of Mulliken charges =   0.00000

 Dipole moment (field-independent basis, Debye):
    X=              0.3526    Y=             -0.7540    Z=             -0.6565  Tot=              1.0602
 Quadrupole moment (field-independent basis, Debye-Ang):
   XX=            -69.8569   YY=            -51.2749   ZZ=            -50.6557
   XY=              6.1349   XZ=              2.5517   YZ=             -1.2666

  Exact polarizability:  98.084  -6.879  75.409  -0.017  -1.142  64.594
 Approx polarizability: 138.347 -22.764 116.145  -1.280  -1.617  97.934

                      1                      2                      3
                      A                      A                      A
 Frequencies --     30.7223                43.6749                96.1583
 Red. masses --      6.2530                 4.5859                 2.2439
 Frc consts  --      0.0035                 0.0052                 0.0122
 IR Inten    --      6.1505                 4.6367                 0.6464

                      4                      5                      6
                      A                      A                      A
 Frequencies --    128.8995               243.0837               278.0751
 Red. masses --      2.5003                 2.4974                 3.4170
 Frc consts  --      0.0245                 0.0869                 0.1557
 IR Inten    --      0.4244                 4.1296                 3.2834

                      7                      8                      9
                      A                      A                      A
 Frequencies --    334.8877               412.4128               438.9684
 Red. masses --      1.1331                 3.1434                 3.4713
 Frc consts  --      0.0749                 0.3150                 0.3941
 IR Inten    --     70.0685                20.5887                 0.3668

                     10                     11                     12
                      A                      A                      A
 Frequencies --    502.3121               537.0793               594.6461
 Red. masses --      2.8556                 2.0300                 3.2862
 Frc consts  --      0.4245                 0.3450                 0.6846
 IR Inten    --     29.0717                 2.2146                 1.3770

                     13                     14                     15
                      A                      A                      A
 Frequencies --    639.0016               825.7572               848.4557
 Red. masses --      2.6598                 2.0549                 1.8053
 Frc consts  --      0.6399                 0.8256                 0.7657
 IR Inten    --      4.0999                 4.0211                 2.6534

                     16                     17                     18
                      A                      A                      A
 Frequencies --    859.6758               880.5696               910.6237
 Red. masses --      2.5173                 1.6200                 2.1918
 Frc consts  --      1.0961                 0.7401                 1.0708
 IR Inten    --      0.6986                20.3944                 6.8206

                     19                     20                     21
                      A                      A                      A
 Frequencies --    972.1320              1001.9761              1018.5908
 Red. masses --      2.4816                 1.9056                 1.6296
 Frc consts  --      1.3818                 1.1272                 0.9962
 IR Inten    --      2.0228                 7.9199                15.3493

                     22                     23                     24
                      A                      A                      A
 Frequencies --   1054.0586              1065.9848              1086.1837
 Red. masses --      2.3113                 3.6185                 2.2828
 Frc consts  --      1.5130                 2.4226                 1.5868
 IR Inten    --     19.3117                84.1299                22.1441

                     25                     26                     27
                      A                      A                      A
 Frequencies --   1148.7277              1166.6713              1193.0213
 Red. masses --      1.5109                 1.5928                 1.3307
 Frc consts  --      1.1747                 1.2773                 1.1159
 IR Inten    --     25.6486                 6.9250                18.2430

                     28                     29                     30
                      A                      A                      A
 Frequencies --   1238.2834              1257.0096              1282.3298
 Red. masses --      1.2823                 1.3151                 1.5241
 Frc consts  --      1.1584                 1.2243                 1.4766
 IR Inten    --      2.6815                 5.3510                 0.6507

                     31                     32                     33
                      A                      A                      A
 Frequencies --   1290.9800              1311.7715              1321.9721
 Red. masses --      1.4237                 1.5828                 1.3956
 Frc consts  --      1.3980                 1.6047                 1.4370
 IR Inten    --      3.9820                 0.8368                 7.9334

                     34                     35                     36
                      A                      A                      A
 Frequencies --   1361.8187              1418.9221              1428.4751
 Red. masses --      1.8883                 1.1727                 1.2331
 Frc consts  --      2.0633                 1.3911                 1.4825
 IR Inten    --      1.8172                 5.6175                88.3576

                     37                     38                     39
                      A                      A                      A
 Frequencies --   1463.0768              1481.8245              1498.9191
 Red. masses --      1.1001                 1.0801                 1.0984
 Frc consts  --      1.3875                 1.3973                 1.4540
 IR Inten    --      5.6823                 1.8315                 3.9881

                     40                     41                     42
                      A                      A                      A
 Frequencies --   1705.3198              1834.0459              2870.9495
 Red. masses --      7.4453                10.0191                 1.0831
 Frc consts  --     12.7569                19.8564                 5.2598
 IR Inten    --     20.3267               185.1835                95.8065

                     43                     44                     45
                      A                      A                      A
 Frequencies --   3016.6446              3023.4303              3034.9701
 Red. masses --      1.0665                 1.0836                 1.0577
 Frc consts  --      5.7183                 5.8361                 5.7400
 IR Inten    --     25.5592                31.4102                14.3288

                     46                     47                     48
                      A                      A                      A
 Frequencies --   3043.2860              3059.6821              3097.2293
 Red. masses --      1.0723                 1.0887                 1.1045
 Frc consts  --      5.8512                 6.0049                 6.2423
 IR Inten    --     16.6403                24.6634                11.2151

                     49                     50                     51
                      A                      A                      A
 Frequencies --   3108.4649              3188.1306              3792.9453
 Red. masses --      1.0992                 1.0943                 1.0659
 Frc consts  --      6.2575                 6.5531                 9.0346
 IR Inten    --     33.3689                 9.2641                 9.3493

 - Thermochemistry -
 -------------------
 Temperature   298.150 Kelvin.  Pressure   1.00000 Atm.
 Atom     1 has atomic number  8 and mass  15.99491

 Molecular mass:   126.06808 amu.
 Principal axes and moments of inertia in atomic units:
                           1         2         3
     Eigenvalues --   498.655912135.840202275.76854
           X            0.99986   0.01478   0.00783
           Y           -0.01471   0.99985  -0.00908
           Z           -0.00796   0.00897   0.99993
 This molecule is an asymmetric top.
 Rotational symmetry number  1.
 Warning -- assumption of classical behavior for rotation
           may cause significant error
 Rotational temperatures (Kelvin)      0.17369     0.04055     0.03806
 Rotational constants (GHZ):           3.61921     0.84498     0.79302
 Zero-point vibrational energy     415360.4 (Joules/Mol)
                                   99.27351 (Kcal/Mol)
 Warning -- explicit consideration of  12 degrees of freedom as
           vibrations may cause significant error
 Vibrational temperatures:     44.20    62.84   138.35   185.46   349.74
          (Kelvin)            400.09   481.83   593.37   631.58   722.71
                              772.74   855.56   919.38  1188.08  1220.74
                             1236.88  1266.94  1310.18  1398.68  1441.62
                             1465.52  1516.55  1533.71  1562.77  1652.76
                             1678.58  1716.49  1781.61  1808.55  1844.98
                             1857.43  1887.34  1902.02  1959.35  2041.51
                             2055.25  2105.04  2132.01  2156.61  2453.57
                             2638.78  4130.65  4340.27  4350.04  4366.64
                             4378.60  4402.19  4456.22  4472.38  4587.00
                             5457.20

 Zero-point correction=                           0.158202 (Hartree/Particle)
 Thermal correction to Energy=                    0.167475
 Thermal correction to Enthalpy=                  0.168420
 Thermal correction to Gibbs Free Energy=         0.122263
 Sum of electronic and zero-point Energies=           -423.047702
 Sum of electronic and thermal Energies=              -423.038429
 Sum of electronic and thermal Enthalpies=            -423.037484
 Sum of electronic and thermal Free Energies=         -423.083641

                     E (Thermal)             CV                S
                      KCal/Mol        Cal/Mol-Kelvin    Cal/Mol-Kelvin
 Total                  105.092             33.184             97.144
 Electronic               0.000              0.000              0.000
 Translational            0.889              2.981             40.409
 Rotational               0.889              2.981             29.273
 Vibrational            103.315             27.222             27.462
 Vibration     1          0.594              1.984              5.782
 Vibration     2          0.595              1.980              5.085
 Vibration     3          0.603              1.952              3.531
 Vibration     4          0.611              1.924              2.962
 Vibration     5          0.659              1.774              1.780
 Vibration     6          0.679              1.714              1.545
 Vibration     7          0.716              1.606              1.236
 Vibration     8          0.776              1.443              0.918
 Vibration     9          0.799              1.385              0.830
 Vibration    10          0.858              1.245              0.652
 Vibration    11          0.892              1.168              0.572
 Vibration    12          0.952              1.043              0.459

 Optimization completed.
    -- Stationary point found.
 Normal termination of Gaussian 09 at Tue Jan 28 04:41:14 2020.
