 Gaussian 09, Revision D.01,
 Gaussian 09:  ES64L-G09RevD.01 24-Apr-2013

 -----------------------------
 # b3lyp 6-31G(2df,p) opt Freq
 -----------------------------

 -----
 titel
 -----
 Symbolic Z-matrix:
 Charge =  0 Multiplicity = 1

 SCF Done:  E(RB3LYP) =  -423.193550681     A.U. after   13 cycles
 Optimization completed.
    -- Stationary point found.
 Normal termination of Gaussian 09 at Mon Jan 27 23:45:39 2020.

 ----------------------------------------------------------------------
 #N Geom=AllCheck Guess=TCheck SCRF=Check GenChk RB3LYP/6-31G(2df,p) Fr
 eq
 ----------------------------------------------------------------------

 Structure from the checkpoint file:  "/scratch/puck/g09_66229085-496b-4676-a20a-da77017cf183/Gau-104012.chk"
 -----
 titel
 -----
 Charge =  0 Multiplicity = 1

                         Standard orientation:
 ---------------------------------------------------------------------
 Center     Atomic      Atomic             Coordinates (Angstroms)
 Number     Number       Type             X           Y           Z
 ---------------------------------------------------------------------
      1          6           0        2.452586    0.228626   -0.372825
      2          6           0        1.340297   -0.314198    0.509768
      3          6           0        0.205101    0.602043    1.060886
      4          6           0       -0.412239    1.489133   -0.047081
      5          6           0       -1.221519    0.415926   -0.799489
      6          8           0       -0.317737   -0.569880   -1.298520
      7          6           0        0.220287   -1.180407   -0.114992
      8          6           0       -0.774004   -0.634294    0.966773
      9          8           0       -1.920559   -0.237114    0.246194
     10          1           0        2.054614    0.651705   -1.298374
     11          1           0        3.028193    1.004513    0.143432
     12          1           0        3.148309   -0.570318   -0.651505
     13          1           0        1.768030   -0.872469    1.352552
     14          1           0        0.357173    1.110123    2.012947
     15          1           0       -1.088729    2.240007    0.370217
     16          1           0        0.324324    1.988876   -0.678239
     17          1           0       -1.898650    0.729440   -1.592543
     18          1           0        0.371262   -2.244294   -0.303739
     19          1           0       -1.021211   -1.222604    1.845613
 ---------------------------------------------------------------------

 SCF Done:  E(RB3LYP) =  -423.193550681     A.U. after    1 cycles

 The electronic state is 1-A.
 Alpha  occ. eigenvalues --  -19.14765 -19.14276 -10.27499 -10.23349 -10.22875
 Alpha  occ. eigenvalues --  -10.19227 -10.18935 -10.18413 -10.17346  -1.09695
 Alpha  occ. eigenvalues --   -0.99316  -0.84125  -0.76272  -0.72484  -0.63377
 Alpha  occ. eigenvalues --   -0.61991  -0.59331  -0.54909  -0.53165  -0.47752
 Alpha  occ. eigenvalues --   -0.47103  -0.43908  -0.42260  -0.40702  -0.40160
 Alpha  occ. eigenvalues --   -0.39194  -0.37974  -0.37207  -0.33707  -0.31912
 Alpha  occ. eigenvalues --   -0.31586  -0.29732  -0.26515  -0.25142
 Alpha virt. eigenvalues --    0.08248   0.11044   0.11675   0.12922   0.13687
 Alpha virt. eigenvalues --    0.14245   0.14905   0.16174   0.16221   0.16696
 Alpha virt. eigenvalues --    0.17383   0.18186   0.19239   0.20291   0.22190

 Mulliken charges:
               1
     1  C   -0.419777
     2  C    0.018405
     3  C   -0.113570
     4  C   -0.240223
     5  C    0.172314
     6  O   -0.276409
     7  C    0.051682
     8  C    0.075084
     9  O   -0.242462
    10  H    0.129626
    11  H    0.113002
    12  H    0.115589
    13  H    0.072167
    14  H    0.068543
    15  H    0.108469
    16  H    0.108999
    17  H    0.091957
    18  H    0.075999
    19  H    0.090605
 Sum of Mulliken charges =   0.00000

 Dipole moment (field-independent basis, Debye):
    X=              1.1838    Y=              0.6312    Z=              1.1691  Tot=              1.7795
 Quadrupole moment (field-independent basis, Debye-Ang):
   XX=            -55.7747   YY=            -50.8660   ZZ=            -53.0879
   XY=             -2.0459   XZ=              1.3152   YZ=             -2.5436

  Exact polarizability:  77.586  -2.878  71.742   1.354  -2.037  68.147
 Approx polarizability: 108.677  -3.915 105.583   1.901  -2.541 106.461

                      1                      2                      3
                      A                      A                      A
 Frequencies --    173.5183               212.4412               257.6513
 Red. masses --      1.8797                 1.6572                 2.1581
 Frc consts  --      0.0333                 0.0441                 0.0844
 IR Inten    --      0.2418                 0.4095                 0.8786

                      4                      5                      6
                      A                      A                      A
 Frequencies --    422.8267               446.6130               532.3936
 Red. masses --      2.0378                 3.2172                 3.8747
 Frc consts  --      0.2146                 0.3781                 0.6471
 IR Inten    --      0.7024                 4.0912                 0.7642

                      7                      8                      9
                      A                      A                      A
 Frequencies --    595.6989               627.7939               665.3590
 Red. masses --      6.3526                 3.7184                 4.9787
 Frc consts  --      1.3282                 0.8635                 1.2986
 IR Inten    --     10.4137                 0.1561                 2.5327

                     10                     11                     12
                      A                      A                      A
 Frequencies --    752.4922               817.3962               829.0488
 Red. masses --      2.6972                 4.9978                 2.3818
 Frc consts  --      0.8998                 1.9674                 0.9645
 IR Inten    --      2.2848                 7.1096                 2.2944

                     13                     14                     15
                      A                      A                      A
 Frequencies --    849.4909               857.4978               872.9445
 Red. masses --      2.7020                 2.7955                 2.8587
 Frc consts  --      1.1488                 1.2111                 1.2835
 IR Inten    --     10.1193                 3.1949                45.2561

                     16                     17                     18
                      A                      A                      A
 Frequencies --    925.6148               954.1642               966.6455
 Red. masses --      2.3988                 2.3215                 2.0033
 Frc consts  --      1.2109                 1.2453                 1.1029
 IR Inten    --      6.1022                32.9734                23.1047

                     19                     20                     21
                      A                      A                      A
 Frequencies --    982.7759              1010.1508              1049.6663
 Red. masses --      1.8163                 2.7710                 2.4365
 Frc consts  --      1.0336                 1.6660                 1.5817
 IR Inten    --     25.2299                26.5385                 8.5257

                     22                     23                     24
                      A                      A                      A
 Frequencies --   1071.7508              1088.6534              1114.6998
 Red. masses --      2.2374                 2.4381                 1.7752
 Frc consts  --      1.5142                 1.7025                 1.2996
 IR Inten    --     44.3132                 3.4707                 1.2369

                     25                     26                     27
                      A                      A                      A
 Frequencies --   1119.9017              1147.2029              1171.8999
 Red. masses --      1.9177                 2.0283                 1.4913
 Frc consts  --      1.4170                 1.5727                 1.2067
 IR Inten    --     41.3415                15.0570                 1.3197

                     28                     29                     30
                      A                      A                      A
 Frequencies --   1199.3059              1223.5115              1245.5363
 Red. masses --      1.3855                 1.8107                 1.3564
 Frc consts  --      1.1742                 1.5970                 1.2398
 IR Inten    --      2.5331                 2.6715                 1.4855

                     31                     32                     33
                      A                      A                      A
 Frequencies --   1277.2707              1289.9397              1307.1969
 Red. masses --      1.5975                 1.5140                 1.3393
 Frc consts  --      1.5356                 1.4843                 1.3484
 IR Inten    --      0.6967                13.1388                 8.3143

                     34                     35                     36
                      A                      A                      A
 Frequencies --   1329.0232              1349.6696              1368.5983
 Red. masses --      1.3676                 1.5590                 1.4401
 Frc consts  --      1.4232                 1.6733                 1.5893
 IR Inten    --     11.9363                 6.6180                 8.1219

                     37                     38                     39
                      A                      A                      A
 Frequencies --   1384.0334              1412.8518              1479.1696
 Red. masses --      1.5366                 1.3033                 1.0940
 Frc consts  --      1.7342                 1.5328                 1.4102
 IR Inten    --      0.4618                 2.3247                 4.8861

                     40                     41                     42
                      A                      A                      A
 Frequencies --   1491.6674              1514.0071              3022.8636
 Red. masses --      1.0455                 1.0555                 1.0815
 Frc consts  --      1.3706                 1.4255                 5.8224
 IR Inten    --      3.3400                 3.7305                24.7685

                     43                     44                     45
                      A                      A                      A
 Frequencies --   3036.6020              3068.3568              3093.9384
 Red. masses --      1.0395                 1.0627                 1.1009
 Frc consts  --      5.6472                 5.8948                 6.2092
 IR Inten    --     28.0198                20.3536                19.3931

                     46                     47                     48
                      A                      A                      A
 Frequencies --   3099.9604              3108.4338              3123.6293
 Red. masses --      1.0899                 1.0888                 1.0999
 Frc consts  --      6.1707                 6.1987                 6.3229
 IR Inten    --     56.7082                30.3181                20.9255

                     49                     50                     51
                      A                      A                      A
 Frequencies --   3129.2267              3143.9968              3168.9969
 Red. masses --      1.1015                 1.0918                 1.0928
 Frc consts  --      6.3548                 6.3583                 6.4659
 IR Inten    --     16.2158                37.7438                17.8236

 - Thermochemistry -
 -------------------
 Temperature   298.150 Kelvin.  Pressure   1.00000 Atm.
 Atom     1 has atomic number  6 and mass  12.00000

 Molecular mass:   126.06808 amu.
 Principal axes and moments of inertia in atomic units:
                           1         2         3
     Eigenvalues --   579.971261048.317981067.84228
           X            0.99995  -0.01030   0.00022
           Y            0.00881   0.84362  -0.53686
           Z            0.00534   0.53684   0.84367
 This molecule is an asymmetric top.
 Rotational symmetry number  1.
 Warning -- assumption of classical behavior for rotation
           may cause significant error
 Rotational temperatures (Kelvin)      0.14934     0.08262     0.08111
 Rotational constants (GHZ):           3.11178     1.72156     1.69008
 Zero-point vibrational energy     426971.6 (Joules/Mol)
                                  102.04866 (Kcal/Mol)
 Warning -- explicit consideration of   7 degrees of freedom as
           vibrations may cause significant error
 Vibrational temperatures:    249.65   305.66   370.70   608.35   642.58
          (Kelvin)            765.99   857.08   903.25   957.30  1082.67
                             1176.05  1192.81  1222.23  1233.75  1255.97
                             1331.75  1372.83  1390.79  1413.99  1453.38
                             1510.23  1542.01  1566.33  1603.80  1611.29
                             1650.57  1686.10  1725.53  1760.36  1792.05
                             1837.71  1855.93  1880.76  1912.17  1941.87
                             1969.11  1991.31  2032.78  2128.19  2146.17
                             2178.32  4349.22  4368.99  4414.68  4451.48
                             4460.15  4472.34  4494.20  4502.25  4523.50
                             4559.47

 Zero-point correction=                           0.162625 (Hartree/Particle)
 Thermal correction to Energy=                    0.169213
 Thermal correction to Enthalpy=                  0.170157
 Thermal correction to Gibbs Free Energy=         0.131971
 Sum of electronic and zero-point Energies=           -423.030926
 Sum of electronic and thermal Energies=              -423.024338
 Sum of electronic and thermal Enthalpies=            -423.023393
 Sum of electronic and thermal Free Energies=         -423.061580

                     E (Thermal)             CV                S
                      KCal/Mol        Cal/Mol-Kelvin    Cal/Mol-Kelvin
 Total                  106.183             27.759             80.370
 Electronic               0.000              0.000              0.000
 Translational            0.889              2.981             40.409
 Rotational               0.889              2.981             27.964
 Vibrational            104.405             21.798             11.997
 Vibration     1          0.627              1.875              2.397
 Vibration     2          0.643              1.822              2.023
 Vibration     3          0.667              1.750              1.678
 Vibration     4          0.785              1.421              0.882
 Vibration     5          0.806              1.368              0.806
 Vibration     6          0.887              1.178              0.582
 Vibration     7          0.953              1.041              0.457

 Optimization completed.
    -- Stationary point found.
 Normal termination of Gaussian 09 at Tue Jan 28 00:33:27 2020.
