 Gaussian 09, Revision D.01,
 Gaussian 09:  ES64L-G09RevD.01 24-Apr-2013

 -----------------------------
 # b3lyp 6-31G(2df,p) opt Freq
 -----------------------------

 -----
 titel
 -----
 Symbolic Z-matrix:
 Charge =  0 Multiplicity = 1

 SCF Done:  E(RB3LYP) =  -423.153399886     A.U. after   14 cycles
 SCF Done:  E(RB3LYP) =  -423.153398320     A.U. after    8 cycles
 SCF Done:  E(RB3LYP) =  -423.153399888     A.U. after    7 cycles
 SCF Done:  E(RB3LYP) =  -423.153399924     A.U. after    7 cycles
 SCF Done:  E(RB3LYP) =  -423.153400006     A.U. after    6 cycles
 Optimization completed.
    -- Stationary point found.
 Normal termination of Gaussian 09 at Mon Jan 27 14:24:10 2020.

 ----------------------------------------------------------------------
 #N Geom=AllCheck Guess=TCheck SCRF=Check GenChk RB3LYP/6-31G(2df,p) Fr
 eq
 ----------------------------------------------------------------------

 Structure from the checkpoint file:  "/scratch/puck/g09_02a7df68-9a91-4094-b636-5b5b9be5c8ef/Gau-70752.chk"
 -----
 titel
 -----
 Charge =  0 Multiplicity = 1

                         Standard orientation:
 ---------------------------------------------------------------------
 Center     Atomic      Atomic             Coordinates (Angstroms)
 Number     Number       Type             X           Y           Z
 ---------------------------------------------------------------------
      1          6           0        3.723744   -0.935806    0.001167
      2          6           0        2.564195    0.043362   -0.000590
      3          8           0        2.736693    1.241817   -0.001196
      4          6           0        1.169497   -0.562996   -0.001260
      5          6           0        0.066133    0.482813    0.000766
      6          8           0       -1.172330   -0.201272   -0.000284
      7          6           0       -2.273260    0.685910    0.001154
      8          6           0       -3.521108   -0.066346    0.000124
      9          6           0       -4.564344   -0.660832   -0.000702
     10          1           0        4.668297   -0.390838   -0.002792
     11          1           0        3.674704   -1.583296    0.883895
     12          1           0        3.671516   -1.591623   -0.875144
     13          1           0        1.064519   -1.219170   -0.875057
     14          1           0        1.064739   -1.222634    0.869928
     15          1           0        0.155849    1.131974    0.885238
     16          1           0        0.155661    1.135139   -0.881364
     17          1           0       -2.237595    1.344264    0.886267
     18          1           0       -2.237718    1.346981   -0.881937
     19          1           0       -5.484022   -1.191791   -0.001159
 ---------------------------------------------------------------------

 SCF Done:  E(RB3LYP) =  -423.153400006     A.U. after    1 cycles

 The electronic state is 1-A.
 Alpha  occ. eigenvalues --  -19.14811 -19.13317 -10.27615 -10.25603 -10.23331
 Alpha  occ. eigenvalues --  -10.19629 -10.19264 -10.18468 -10.17812  -1.04526
 Alpha  occ. eigenvalues --   -1.04139  -0.79810  -0.76692  -0.73625  -0.69031
 Alpha  occ. eigenvalues --   -0.62874  -0.54372  -0.52611  -0.50176  -0.49879
 Alpha  occ. eigenvalues --   -0.47929  -0.46243  -0.44927  -0.43856  -0.42682
 Alpha  occ. eigenvalues --   -0.39250  -0.37658  -0.37526  -0.35099  -0.33162
 Alpha  occ. eigenvalues --   -0.27803  -0.27705  -0.25753  -0.24969
 Alpha virt. eigenvalues --   -0.01477   0.03194   0.05479   0.08316   0.09998
 Alpha virt. eigenvalues --    0.12571   0.13613   0.13901   0.15158   0.15489
 Alpha virt. eigenvalues --    0.16658   0.17783   0.18648   0.20269   0.21091

 Mulliken charges:
               1
     1  C   -0.473227
     2  C    0.377881
     3  O   -0.292670
     4  C   -0.317609
     5  C   -0.040267
     6  O   -0.251483
     7  C   -0.206901
     8  C    0.279449
     9  C   -0.414461
    10  H    0.144007
    11  H    0.140429
    12  H    0.140213
    13  H    0.132911
    14  H    0.132767
    15  H    0.104338
    16  H    0.104458
    17  H    0.119968
    18  H    0.119980
    19  H    0.200218
 Sum of Mulliken charges =   0.00000

 Dipole moment (field-independent basis, Debye):
    X=              0.1683    Y=             -1.4438    Z=              0.0039  Tot=              1.4536
 Quadrupole moment (field-independent basis, Debye-Ang):
   XX=            -49.5470   YY=            -54.4699   ZZ=            -52.4238
   XY=             -7.3139   XZ=              0.0065   YZ=              0.0034

  Exact polarizability: 110.074   7.776  72.983   0.020   0.002  56.048
 Approx polarizability: 132.270  21.443 119.154   0.035   0.005  85.224

                      1                      2                      3
                      A                      A                      A
 Frequencies --     31.2607                44.3686                79.1601
 Red. masses --      2.5675                 2.8072                 4.3343
 Frc consts  --      0.0015                 0.0033                 0.0160
 IR Inten    --      3.1169                 0.2189                 2.3022

                      4                      5                      6
                      A                      A                      A
 Frequencies --     96.4699               124.6492               130.0975
 Red. masses --      1.7052                 1.6044                 2.7249
 Frc consts  --      0.0094                 0.0147                 0.0272
 IR Inten    --      0.1941                 1.6810                 6.5319

                      7                      8                      9
                      A                      A                      A
 Frequencies --    165.8723               294.6227               308.0914
 Red. masses --      5.2225                 4.1347                 5.6359
 Frc consts  --      0.0847                 0.2115                 0.3152
 IR Inten    --      5.2780                 0.3823                 0.4277

                     10                     11                     12
                      A                      A                      A
 Frequencies --    334.6315               461.0226               480.7269
 Red. masses --      3.4925                 3.0013                 1.9311
 Frc consts  --      0.2304                 0.3758                 0.2629
 IR Inten    --      1.8708                 6.2113                 0.0559

                     13                     14                     15
                      A                      A                      A
 Frequencies --    534.6780               607.3728               607.7013
 Red. masses --      7.0516                 4.4303                 1.1924
 Frc consts  --      1.1878                 0.9629                 0.2594
 IR Inten    --      5.9683                10.9840                44.6388

                     16                     17                     18
                      A                      A                      A
 Frequencies --    676.4631               762.7014               840.7739
 Red. masses --      1.2411                 1.2428                 3.2983
 Frc consts  --      0.3346                 0.4260                 1.3737
 IR Inten    --     34.2342                 0.8421                 0.2092

                     19                     20                     21
                      A                      A                      A
 Frequencies --    937.4656               938.5252               973.7958
 Red. masses --      1.2435                 2.1867                 3.3098
 Frc consts  --      0.6439                 1.1349                 1.8492
 IR Inten    --      1.3239                17.9223                 6.8377

                     22                     23                     24
                      A                      A                      A
 Frequencies --   1028.0123              1031.4590              1108.3102
 Red. masses --      4.5129                 1.6192                 3.4068
 Frc consts  --      2.8100                 1.0149                 2.4656
 IR Inten    --     26.0505                 2.1461                 3.6686

                     25                     26                     27
                      A                      A                      A
 Frequencies --   1122.8808              1142.2958              1185.3963
 Red. masses --      2.0471                 5.5736                 2.2891
 Frc consts  --      1.5207                 4.2849                 1.8951
 IR Inten    --      5.0340               321.8334                 8.9543

                     28                     29                     30
                      A                      A                      A
 Frequencies --   1217.5043              1256.6169              1298.5331
 Red. masses --      1.2225                 1.0885                 1.0974
 Frc consts  --      1.0676                 1.0127                 1.0902
 IR Inten    --      2.5554                 5.2082                 0.3895

                     31                     32                     33
                      A                      A                      A
 Frequencies --   1331.1671              1383.7977              1390.5281
 Red. masses --      1.6294                 1.2779                 1.4587
 Frc consts  --      1.7012                 1.4418                 1.6618
 IR Inten    --      8.3588                17.9716               157.8923

                     34                     35                     36
                      A                      A                      A
 Frequencies --   1442.4730              1457.7868              1467.6858
 Red. masses --      1.2927                 1.1657                 1.1273
 Frc consts  --      1.5848                 1.4596                 1.4307
 IR Inten    --      0.9138                 0.7579                21.5545

                     37                     38                     39
                      A                      A                      A
 Frequencies --   1477.4937              1498.5616              1521.7129
 Red. masses --      1.0478                 1.0829                 1.0821
 Frc consts  --      1.3477                 1.4328                 1.4763
 IR Inten    --      8.3502                 2.0173                 2.4086

                     40                     41                     42
                      A                      A                      A
 Frequencies --   1806.7552              2248.3318              2952.6244
 Red. masses --     10.4630                 5.8956                 1.0543
 Frc consts  --     20.1236                17.5590                 5.4154
 IR Inten    --    134.6505                 1.9011                29.3701

                     43                     44                     45
                      A                      A                      A
 Frequencies --   2970.9363              2984.1853              3011.9030
 Red. masses --      1.1029                 1.0551                 1.1050
 Frc consts  --      5.7354                 5.5358                 5.9061
 IR Inten    --     39.8876                38.2072                29.9153

                     46                     47                     48
                      A                      A                      A
 Frequencies --   3030.1549              3039.3377              3065.1470
 Red. masses --      1.0551                 1.0419                 1.1000
 Frc consts  --      5.7077                 5.6706                 6.0892
 IR Inten    --      5.6081                 9.9924                13.4165

                     49                     50                     51
                      A                      A                      A
 Frequencies --   3098.1451              3153.3512              3506.3358
 Red. masses --      1.0983                 1.1019                 1.1639
 Frc consts  --      6.2113                 6.4555                 8.4307
 IR Inten    --     10.0160                 9.7028                61.7450

 - Thermochemistry -
 -------------------
 Temperature   298.150 Kelvin.  Pressure   1.00000 Atm.
 Atom     1 has atomic number  6 and mass  12.00000

 Molecular mass:   126.06808 amu.
 Principal axes and moments of inertia in atomic units:
                           1         2         3
     Eigenvalues --   268.679943437.380423661.47959
           X            0.99985  -0.01709   0.00001
           Y            0.01709   0.99985   0.00006
           Z           -0.00002  -0.00006   1.00000
 This molecule is an asymmetric top.
 Rotational symmetry number  1.
 Rotational temperatures (Kelvin)      0.32237     0.02520     0.02366
 Rotational constants (GHZ):           6.71707     0.52503     0.49290
 Zero-point vibrational energy     404695.9 (Joules/Mol)
                                   96.72464 (Kcal/Mol)
 Warning -- explicit consideration of  15 degrees of freedom as
           vibrations may cause significant error
 Vibrational temperatures:     44.98    63.84   113.89   138.80   179.34
          (Kelvin)            187.18   238.65   423.90   443.27   481.46
                              663.31   691.66   769.28   873.87   874.35
                              973.28  1097.36  1209.68  1348.80  1350.33
                             1401.07  1479.08  1484.04  1594.61  1615.57
                             1643.51  1705.52  1751.71  1807.99  1868.30
                             1915.25  1990.97  2000.66  2075.39  2097.43
                             2111.67  2125.78  2156.09  2189.40  2599.51
                             3234.84  4248.16  4274.51  4293.57  4333.45
                             4359.71  4372.92  4410.06  4457.53  4536.96
                             5044.83

 Zero-point correction=                           0.154141 (Hartree/Particle)
 Thermal correction to Energy=                    0.165080
 Thermal correction to Enthalpy=                  0.166025
 Thermal correction to Gibbs Free Energy=         0.115945
 Sum of electronic and zero-point Energies=           -422.999259
 Sum of electronic and thermal Energies=              -422.988320
 Sum of electronic and thermal Enthalpies=            -422.987375
 Sum of electronic and thermal Free Energies=         -423.037455

                     E (Thermal)             CV                S
                      KCal/Mol        Cal/Mol-Kelvin    Cal/Mol-Kelvin
 Total                  103.589             36.913            105.400
 Electronic               0.000              0.000              0.000
 Translational            0.889              2.981             40.409
 Rotational               0.889              2.981             29.604
 Vibrational            101.812             30.951             35.388
 Vibration     1          0.594              1.983              5.748
 Vibration     2          0.595              1.980              5.054
 Vibration     3          0.600              1.963              3.912
 Vibration     4          0.603              1.952              3.524
 Vibration     5          0.610              1.928              3.027
 Vibration     6          0.612              1.923              2.945
 Vibration     7          0.624              1.884              2.482
 Vibration     8          0.689              1.684              1.447
 Vibration     9          0.698              1.658              1.373
 Vibration    10          0.716              1.606              1.238
 Vibration    11          0.819              1.337              0.763
 Vibration    12          0.837              1.293              0.708
 Vibration    13          0.890              1.173              0.577
 Vibration    14          0.966              1.016              0.437
 Vibration    15          0.966              1.015              0.437

 Normal termination of Gaussian 09 at Mon Jan 27 15:00:27 2020.
