 Gaussian 09, Revision D.01,
 Gaussian 09:  ES64L-G09RevD.01 24-Apr-2013

 -----------------------------
 # b3lyp 6-31G(2df,p) opt Freq
 -----------------------------

 -----
 titel
 -----
 Symbolic Z-matrix:
 Charge =  0 Multiplicity = 1

 SCF Done:  E(RB3LYP) =  -423.210433424     A.U. after   14 cycles
 Optimization completed.
    -- Stationary point found.
 Normal termination of Gaussian 09 at Mon Jan 27 22:03:41 2020.

 ----------------------------------------------------------------------
 #N Geom=AllCheck Guess=TCheck SCRF=Check GenChk RB3LYP/6-31G(2df,p) Fr
 eq
 ----------------------------------------------------------------------

 Structure from the checkpoint file:  "/scratch/puck/g09_f8a1b385-543d-4761-a196-ed4902375a15/Gau-189662.chk"
 -----
 titel
 -----
 Charge =  0 Multiplicity = 1

                         Standard orientation:
 ---------------------------------------------------------------------
 Center     Atomic      Atomic             Coordinates (Angstroms)
 Number     Number       Type             X           Y           Z
 ---------------------------------------------------------------------
      1          6           0        0.581684    2.349047    0.537747
      2          6           0        0.318889    1.109662   -0.302724
      3          6           0       -0.676489    0.000020    0.199843
      4          6           0       -2.033769    0.000055   -0.438873
      5          8           0       -3.084956    0.000018    0.146893
      6          6           0        0.318847   -1.109658   -0.302721
      7          6           0        0.581605   -2.349045    0.537757
      8          6           0        1.380728   -0.000024   -0.350873
      9          8           0        2.573235   -0.000049   -0.253546
     10          1           0        0.848705    2.077967    1.563608
     11          1           0        1.412966    2.922178    0.117125
     12          1           0       -0.298241    2.998231    0.573567
     13          1           0        0.053833    1.385315   -1.333812
     14          1           0       -0.772807    0.000028    1.288121
     15          1           0       -1.996606   -0.000132   -1.556848
     16          1           0        0.053774   -1.385307   -1.333806
     17          1           0       -0.298321   -2.998230    0.573548
     18          1           0        1.412900   -2.922182    0.117166
     19          1           0        0.848594   -2.077967    1.563627
 ---------------------------------------------------------------------

 SCF Done:  E(RB3LYP) =  -423.210433424     A.U. after    1 cycles

 The electronic state is 1-A.
 Alpha  occ. eigenvalues --  -19.14804 -19.14680 -10.27862 -10.27719 -10.21619
 Alpha  occ. eigenvalues --  -10.21619 -10.21316 -10.19363 -10.19363  -1.05695
 Alpha  occ. eigenvalues --   -1.05382  -0.87496  -0.77060  -0.72206  -0.68223
 Alpha  occ. eigenvalues --   -0.61477  -0.58747  -0.52920  -0.48744  -0.47482
 Alpha  occ. eigenvalues --   -0.45997  -0.44956  -0.44805  -0.42452  -0.40804
 Alpha  occ. eigenvalues --   -0.40018  -0.39605  -0.38738  -0.37640  -0.36779
 Alpha  occ. eigenvalues --   -0.34841  -0.32628  -0.25909  -0.25035
 Alpha virt. eigenvalues --   -0.03191  -0.02614   0.08787   0.09342   0.10664
 Alpha virt. eigenvalues --    0.11729   0.12631   0.14194   0.14532   0.15822
 Alpha virt. eigenvalues --    0.15897   0.17772   0.17788   0.17871   0.23278

 Mulliken charges:
               1
     1  C   -0.412986
     2  C   -0.118495
     3  C   -0.106727
     4  C    0.157149
     5  O   -0.249746
     6  C   -0.118496
     7  C   -0.412987
     8  C    0.380642
     9  O   -0.297391
    10  H    0.128475
    11  H    0.140503
    12  H    0.130211
    13  H    0.106244
    14  H    0.100234
    15  H    0.067936
    16  H    0.106245
    17  H    0.130211
    18  H    0.140504
    19  H    0.128475
 Sum of Mulliken charges =   0.00000

 Dipole moment (field-independent basis, Debye):
    X=              0.1774    Y=              0.0000    Z=             -0.7624  Tot=              0.7828
 Quadrupole moment (field-independent basis, Debye-Ang):
   XX=            -72.8963   YY=            -49.0569   ZZ=            -50.6710
   XY=              0.0002   XZ=              2.6918   YZ=              0.0000

  Exact polarizability:  91.114   0.000  79.732  -0.545   0.000  64.882
 Approx polarizability: 144.897   0.000 102.964  -6.051   0.000 102.422

                      1                      2                      3
                      A                      A                      A
 Frequencies --     64.3556                68.8108               171.4487
 Red. masses --      4.8811                 5.3427                 1.0671
 Frc consts  --      0.0119                 0.0149                 0.0185
 IR Inten    --      5.2722                 5.7977                 0.3471

                      4                      5                      6
                      A                      A                      A
 Frequencies --    175.5689               177.6935               185.8214
 Red. masses --      3.1094                 1.0563                 3.0537
 Frc consts  --      0.0565                 0.0197                 0.0621
 IR Inten    --      3.2480                 0.7842                 3.0439

                      7                      8                      9
                      A                      A                      A
 Frequencies --    206.8925               269.5719               350.7050
 Red. masses --      2.6249                 2.7756                 2.7010
 Frc consts  --      0.0662                 0.1188                 0.1957
 IR Inten    --      3.9817                 1.2963                 0.0633

                     10                     11                     12
                      A                      A                      A
 Frequencies --    359.1005               452.8418               555.9561
 Red. masses --      4.0347                 5.5981                 3.9424
 Frc consts  --      0.3065                 0.6764                 0.7179
 IR Inten    --      0.8165                 3.5439                 1.0216

                     13                     14                     15
                      A                      A                      A
 Frequencies --    569.0279               697.3194               781.4854
 Red. masses --      3.0298                 3.5110                 2.5409
 Frc consts  --      0.5780                 1.0059                 0.9143
 IR Inten    --      0.8916                13.1176                13.3637

                     16                     17                     18
                      A                      A                      A
 Frequencies --    802.8419               894.6389               950.4116
 Red. masses --      3.1191                 1.7332                 4.2263
 Frc consts  --      1.1845                 0.8173                 2.2492
 IR Inten    --      0.7336                 5.3842                40.8380

                     19                     20                     21
                      A                      A                      A
 Frequencies --    964.8216              1007.1965              1054.0232
 Red. masses --      1.1751                 1.2636                 2.3487
 Frc consts  --      0.6445                 0.7552                 1.5374
 IR Inten    --      0.6725                 4.4463                23.6697

                     22                     23                     24
                      A                      A                      A
 Frequencies --   1069.9009              1106.7714              1113.0007
 Red. masses --      1.9916                 2.1132                 2.2055
 Frc consts  --      1.3432                 1.5251                 1.6097
 IR Inten    --      5.9148                17.4903                11.5271

                     25                     26                     27
                      A                      A                      A
 Frequencies --   1145.0325              1169.1120              1207.6035
 Red. masses --      2.3975                 2.3932                 1.7246
 Frc consts  --      1.8520                 1.9272                 1.4818
 IR Inten    --      6.6896                18.1182                14.4620

                     28                     29                     30
                      A                      A                      A
 Frequencies --   1225.7611              1234.4384              1292.2710
 Red. masses --      1.4143                 1.2722                 1.4806
 Frc consts  --      1.2520                 1.1422                 1.4568
 IR Inten    --      3.7882                 0.1943                 2.8581

                     31                     32                     33
                      A                      A                      A
 Frequencies --   1320.5819              1370.5369              1409.2822
 Red. masses --      1.6959                 1.7440                 1.2136
 Frc consts  --      1.7425                 1.9301                 1.4201
 IR Inten    --      2.3960                 5.6768                 0.4040

                     34                     35                     36
                      A                      A                      A
 Frequencies --   1410.0425              1425.3249              1491.6388
 Red. masses --      1.2323                 1.1952                 1.0434
 Frc consts  --      1.4436                 1.4305                 1.3678
 IR Inten    --      3.4023                 2.3811                 6.7649

                     37                     38                     39
                      A                      A                      A
 Frequencies --   1493.1316              1493.4705              1494.6446
 Red. masses --      1.0468                 1.0465                 1.0483
 Frc consts  --      1.3750                 1.3752                 1.3797
 IR Inten    --      9.8478                 0.1028                 4.6242

                     40                     41                     42
                      A                      A                      A
 Frequencies --   1829.9026              1888.2406              2824.2395
 Red. masses --     10.5396                12.6775                 1.0805
 Frc consts  --     20.7936                26.6316                 5.0780
 IR Inten    --    273.9126               242.4966                96.8512

                     43                     44                     45
                      A                      A                      A
 Frequencies --   3007.4635              3013.2127              3041.6944
 Red. masses --      1.0805                 1.0824                 1.0347
 Frc consts  --      5.7583                 5.7904                 5.6401
 IR Inten    --      0.1637                18.5934                27.1373

                     46                     47                     48
                      A                      A                      A
 Frequencies --   3042.1725              3094.4860              3113.3349
 Red. masses --      1.0347                 1.0861                 1.1024
 Frc consts  --      5.6422                 6.1276                 6.2954
 IR Inten    --      8.4451                 7.5426                 9.1036

                     49                     50                     51
                      A                      A                      A
 Frequencies --   3113.8668              3117.1569              3117.4623
 Red. masses --      1.1022                 1.1016                 1.1014
 Frc consts  --      6.2968                 6.3065                 6.3065
 IR Inten    --     23.5143                 1.6979                24.2286

 - Thermochemistry -
 -------------------
 Temperature   298.150 Kelvin.  Pressure   1.00000 Atm.
 Atom     1 has atomic number  6 and mass  12.00000

 Molecular mass:   126.06808 amu.
 Principal axes and moments of inertia in atomic units:
                           1         2         3
     Eigenvalues --   849.574631375.023902024.49456
           X            0.99990   0.00001   0.01394
           Y           -0.00001   1.00000   0.00000
           Z           -0.01394   0.00000   0.99990
 This molecule is an asymmetric top.
 Rotational symmetry number  1.
 Warning -- assumption of classical behavior for rotation
           may cause significant error
 Rotational temperatures (Kelvin)      0.10195     0.06299     0.04278
 Rotational constants (GHZ):           2.12429     1.31252     0.89145
 Zero-point vibrational energy     409340.0 (Joules/Mol)
                                   97.83462 (Kcal/Mol)
 Warning -- explicit consideration of  13 degrees of freedom as
           vibrations may cause significant error
 Vibrational temperatures:     92.59    99.00   246.68   252.60   255.66
          (Kelvin)            267.36   297.67   387.85   504.59   516.66
                              651.54   799.90   818.70  1003.29  1124.38
                             1155.11  1287.18  1367.43  1388.16  1449.13
                             1516.50  1539.35  1592.40  1601.36  1647.44
                             1682.09  1737.47  1763.59  1776.08  1859.29
                             1900.02  1971.89  2027.64  2028.73  2050.72
                             2146.13  2148.28  2148.77  2150.46  2632.82
                             2716.75  4063.45  4327.06  4335.34  4376.31
                             4377.00  4452.27  4479.39  4480.15  4484.89
                             4485.33

 Zero-point correction=                           0.155909 (Hartree/Particle)
 Thermal correction to Energy=                    0.165795
 Thermal correction to Enthalpy=                  0.166739
 Thermal correction to Gibbs Free Energy=         0.120550
 Sum of electronic and zero-point Energies=           -423.054524
 Sum of electronic and thermal Energies=              -423.044639
 Sum of electronic and thermal Enthalpies=            -423.043695
 Sum of electronic and thermal Free Energies=         -423.089883

                     E (Thermal)             CV                S
                      KCal/Mol        Cal/Mol-Kelvin    Cal/Mol-Kelvin
 Total                  104.038             34.813             97.212
 Electronic               0.000              0.000              0.000
 Translational            0.889              2.981             40.409
 Rotational               0.889              2.981             29.249
 Vibrational            102.260             28.851             27.554
 Vibration     1          0.597              1.971              4.319
 Vibration     2          0.598              1.969              4.187
 Vibration     3          0.626              1.878              2.420
 Vibration     4          0.628              1.872              2.375
 Vibration     5          0.628              1.870              2.353
 Vibration     6          0.632              1.859              2.269
 Vibration     7          0.641              1.830              2.071
 Vibration     8          0.674              1.729              1.599
 Vibration     9          0.728              1.574              1.163
 Vibration    10          0.734              1.557              1.126
 Vibration    11          0.811              1.355              0.787
 Vibration    12          0.911              1.127              0.532
 Vibration    13          0.925              1.098              0.506

 Optimization completed.
    -- Stationary point found.
 Normal termination of Gaussian 09 at Mon Jan 27 22:43:35 2020.
