 Gaussian 09, Revision D.01,
 Gaussian 09:  ES64L-G09RevD.01 24-Apr-2013

 -----------------------------
 # b3lyp 6-31G(2df,p) opt Freq
 -----------------------------

 -----
 titel
 -----
 Symbolic Z-matrix:
 Charge =  0 Multiplicity = 1

 SCF Done:  E(RB3LYP) =  -423.177297217     A.U. after   14 cycles
 Optimization completed.
    -- Stationary point found.
 Normal termination of Gaussian 09 at Tue Jan 28 03:55:47 2020.

 ----------------------------------------------------------------------
 #N Geom=AllCheck Guess=TCheck SCRF=Check GenChk RB3LYP/6-31G(2df,p) Fr
 eq
 ----------------------------------------------------------------------

 Structure from the checkpoint file:  "/scratch/puck/g09_c1f099b6-5464-493c-a1e6-2c6e82d831eb/Gau-192811.chk"
 -----
 titel
 -----
 Charge =  0 Multiplicity = 1

                         Standard orientation:
 ---------------------------------------------------------------------
 Center     Atomic      Atomic             Coordinates (Angstroms)
 Number     Number       Type             X           Y           Z
 ---------------------------------------------------------------------
      1          8           0        1.931448   -1.562050   -0.000700
      2          6           0        1.002341   -0.522405   -0.263795
      3          6           0        1.669256    0.820247    0.040006
      4          6           0        0.693569    1.952751   -0.171357
      5          6           0       -0.622705    1.812738   -0.001357
      6          6           0       -1.225964    0.537550    0.492395
      7          6           0       -2.083561   -0.374760   -0.426765
      8          8           0       -1.256889   -1.519313   -0.116689
      9          6           0       -0.280559   -0.681304    0.552531
     10          1           0        1.506000   -2.394056   -0.235165
     11          1           0        0.716081   -0.524208   -1.327195
     12          1           0        2.051369    0.812879    1.070614
     13          1           0        2.546073    0.937255   -0.604790
     14          1           0        1.098233    2.910774   -0.486454
     15          1           0       -1.291439    2.652572   -0.175754
     16          1           0       -1.738104    0.702964    1.446265
     17          1           0       -3.126664   -0.533782   -0.133216
     18          1           0       -2.042152   -0.113230   -1.492287
     19          1           0       -0.030127   -1.069156    1.547158
 ---------------------------------------------------------------------

 SCF Done:  E(RB3LYP) =  -423.177297217     A.U. after    1 cycles

 The electronic state is 1-A.
 Alpha  occ. eigenvalues --  -19.13322 -19.13296 -10.23213 -10.22829 -10.22807
 Alpha  occ. eigenvalues --  -10.19740 -10.18781 -10.18578 -10.18563  -1.03954
 Alpha  occ. eigenvalues --   -1.01377  -0.82522  -0.75151  -0.72180  -0.68413
 Alpha  occ. eigenvalues --   -0.60903  -0.57851  -0.53010  -0.51461  -0.48833
 Alpha  occ. eigenvalues --   -0.48272  -0.45190  -0.43353  -0.41873  -0.39432
 Alpha  occ. eigenvalues --   -0.38704  -0.36781  -0.35888  -0.34769  -0.31535
 Alpha  occ. eigenvalues --   -0.30311  -0.27418  -0.24949  -0.24043
 Alpha virt. eigenvalues --    0.01389   0.07225   0.09004   0.09568   0.11932
 Alpha virt. eigenvalues --    0.12345   0.14315   0.15624   0.16430   0.17120
 Alpha virt. eigenvalues --    0.18331   0.19034   0.19756   0.22115   0.23899

 Mulliken charges:
               1
     1  O   -0.445616
     2  C    0.116940
     3  C   -0.270869
     4  C   -0.072302
     5  C   -0.072843
     6  C   -0.102669
     7  C   -0.092371
     8  O   -0.302675
     9  C    0.079573
    10  H    0.288585
    11  H    0.075369
    12  H    0.119868
    13  H    0.115157
    14  H    0.092884
    15  H    0.089756
    16  H    0.093730
    17  H    0.105155
    18  H    0.100376
    19  H    0.081952
 Sum of Mulliken charges =   0.00000

 Dipole moment (field-independent basis, Debye):
    X=             -0.9650    Y=              1.3837    Z=             -0.1074  Tot=              1.6904
 Quadrupole moment (field-independent basis, Debye-Ang):
   XX=            -54.3209   YY=            -52.7614   ZZ=            -52.4493
   XY=             -0.7173   XZ=             -1.0265   YZ=              0.0633

  Exact polarizability:  91.186   1.499  77.194   0.134  -2.555  59.360
 Approx polarizability: 134.403   2.487 107.928   0.346  -3.498  92.718

                      1                      2                      3
                      A                      A                      A
 Frequencies --     94.6367               138.6425               254.3106
 Red. masses --      3.5741                 2.5331                 3.1423
 Frc consts  --      0.0189                 0.0287                 0.1197
 IR Inten    --      1.2335                 1.2986                 4.8435

                      4                      5                      6
                      A                      A                      A
 Frequencies --    267.7665               338.5137               365.0152
 Red. masses --      3.4514                 1.1603                 2.5779
 Frc consts  --      0.1458                 0.0783                 0.2024
 IR Inten    --      2.4971                65.8145                38.8186

                      7                      8                      9
                      A                      A                      A
 Frequencies --    445.2689               463.7037               501.0441
 Red. masses --      6.8505                 2.7349                 4.6693
 Frc consts  --      0.8002                 0.3465                 0.6906
 IR Inten    --      6.3738                 3.9121                 2.2118

                     10                     11                     12
                      A                      A                      A
 Frequencies --    506.0611               705.7252               739.5343
 Red. masses --      3.5455                 2.2738                 1.6098
 Frc consts  --      0.5350                 0.6672                 0.5187
 IR Inten    --      5.2978                 8.5222                14.9183

                     13                     14                     15
                      A                      A                      A
 Frequencies --    767.1983               869.4695               902.9901
 Red. masses --      2.5789                 2.2162                 2.7521
 Frc consts  --      0.8943                 0.9871                 1.3221
 IR Inten    --     18.6222                 3.9597                15.0067

                     16                     17                     18
                      A                      A                      A
 Frequencies --    938.8518               974.6860               994.7687
 Red. masses --      2.4340                 2.1898                 1.8092
 Frc consts  --      1.2641                 1.2257                 1.0548
 IR Inten    --      4.6095                 8.2202                21.0078

                     19                     20                     21
                      A                      A                      A
 Frequencies --   1004.8243              1018.2625              1043.4578
 Red. masses --      1.7183                 5.1673                 2.4527
 Frc consts  --      1.0222                 3.1567                 1.5734
 IR Inten    --     21.5936                44.0726                13.9482

                     22                     23                     24
                      A                      A                      A
 Frequencies --   1050.3823              1087.4392              1107.3430
 Red. masses --      2.9157                 1.8284                 5.3128
 Frc consts  --      1.8954                 1.2739                 3.8383
 IR Inten    --     44.9700                11.3286                70.8345

                     25                     26                     27
                      A                      A                      A
 Frequencies --   1120.4611              1162.6892              1177.2402
 Red. masses --      1.7869                 1.1444                 1.1911
 Frc consts  --      1.3217                 0.9115                 0.9726
 IR Inten    --      2.5031                 0.7671                 5.2657

                     28                     29                     30
                      A                      A                      A
 Frequencies --   1203.6124              1260.0749              1273.1168
 Red. masses --      1.2547                 1.3810                 1.2718
 Frc consts  --      1.0709                 1.2919                 1.2145
 IR Inten    --      0.7198                 8.2946                16.3141

                     31                     32                     33
                      A                      A                      A
 Frequencies --   1280.4391              1304.8596              1322.5361
 Red. masses --      1.2669                 1.2616                 1.4311
 Frc consts  --      1.2238                 1.2656                 1.4748
 IR Inten    --     11.0593                 1.9916                 9.5720

                     34                     35                     36
                      A                      A                      A
 Frequencies --   1341.4561              1362.1702              1402.1058
 Red. masses --      1.4500                 1.5873                 1.6234
 Frc consts  --      1.5374                 1.7352                 1.8803
 IR Inten    --      5.8678                 1.3587                10.9778

                     37                     38                     39
                      A                      A                      A
 Frequencies --   1413.8982              1431.3168              1485.4674
 Red. masses --      1.6217                 1.4435                 1.0951
 Frc consts  --      1.9100                 1.7424                 1.4237
 IR Inten    --      5.0369                 5.3634                 3.2162

                     40                     41                     42
                      A                      A                      A
 Frequencies --   1522.3436              1709.0357              2980.0298
 Red. masses --      1.0981                 6.7770                 1.0821
 Frc consts  --      1.4994                11.6625                 5.6618
 IR Inten    --      1.1345                 1.7872                17.5885

                     43                     44                     45
                      A                      A                      A
 Frequencies --   3012.1319              3016.7731              3035.6720
 Red. masses --      1.0590                 1.0679                 1.0856
 Frc consts  --      5.6613                 5.7264                 5.8940
 IR Inten    --     64.4666                33.9902                19.5726

                     46                     47                     48
                      A                      A                      A
 Frequencies --   3047.2503              3071.5569              3075.0162
 Red. masses --      1.0870                 1.1056                 1.0932
 Frc consts  --      5.9472                 6.1455                 6.0905
 IR Inten    --     30.2041                63.9288                19.7984

                     49                     50                     51
                      A                      A                      A
 Frequencies --   3146.1757              3171.2461              3808.0001
 Red. masses --      1.0840                 1.0966                 1.0661
 Frc consts  --      6.3216                 6.4976                 9.1084
 IR Inten    --      6.6427                32.4241                24.4181

 - Thermochemistry -
 -------------------
 Temperature   298.150 Kelvin.  Pressure   1.00000 Atm.
 Atom     1 has atomic number  8 and mass  15.99491

 Molecular mass:   126.06808 amu.
 Principal axes and moments of inertia in atomic units:
                           1         2         3
     Eigenvalues --   817.37686 950.254971620.60370
           X            0.99990   0.01442  -0.00023
           Y           -0.01442   0.99989  -0.00384
           Z            0.00017   0.00385   0.99999
 This molecule is an asymmetric top.
 Rotational symmetry number  1.
 Warning -- assumption of classical behavior for rotation
           may cause significant error
 Rotational temperatures (Kelvin)      0.10597     0.09115     0.05345
 Rotational constants (GHZ):           2.20797     1.89922     1.11362
 Zero-point vibrational energy     422979.0 (Joules/Mol)
                                  101.09441 (Kcal/Mol)
 Warning -- explicit consideration of  10 degrees of freedom as
           vibrations may cause significant error
 Vibrational temperatures:    136.16   199.48   365.90   385.26   487.05
          (Kelvin)            525.17   640.64   667.17   720.89   728.11
                             1015.38  1064.02  1103.83  1250.97  1299.20
                             1350.80  1402.35  1431.25  1445.72  1465.05
                             1501.30  1511.26  1564.58  1593.22  1612.09
                             1672.85  1693.78  1731.73  1812.96  1831.73
                             1842.26  1877.40  1902.83  1930.05  1959.86
                             2017.31  2034.28  2059.34  2137.25  2190.31
                             2458.92  4287.59  4333.78  4340.46  4367.65
                             4384.31  4419.28  4424.26  4526.64  4562.71
                             5478.86

 Zero-point correction=                           0.161104 (Hartree/Particle)
 Thermal correction to Energy=                    0.168875
 Thermal correction to Enthalpy=                  0.169819
 Thermal correction to Gibbs Free Energy=         0.128843
 Sum of electronic and zero-point Energies=           -423.016193
 Sum of electronic and thermal Energies=              -423.008423
 Sum of electronic and thermal Enthalpies=            -423.007478
 Sum of electronic and thermal Free Energies=         -423.048454

                     E (Thermal)             CV                S
                      KCal/Mol        Cal/Mol-Kelvin    Cal/Mol-Kelvin
 Total                  105.970             30.578             86.240
 Electronic               0.000              0.000              0.000
 Translational            0.889              2.981             40.409
 Rotational               0.889              2.981             28.622
 Vibrational            104.193             24.616             17.209
 Vibration     1          0.603              1.953              3.562
 Vibration     2          0.614              1.915              2.823
 Vibration     3          0.665              1.756              1.701
 Vibration     4          0.673              1.732              1.611
 Vibration     5          0.719              1.599              1.219
 Vibration     6          0.738              1.544              1.101
 Vibration     7          0.805              1.371              0.810
 Vibration     8          0.821              1.331              0.755
 Vibration     9          0.856              1.248              0.656
 Vibration    10          0.861              1.237              0.643

 Optimization completed.
    -- Stationary point found.
 Normal termination of Gaussian 09 at Tue Jan 28 04:43:20 2020.
