 Gaussian 09, Revision D.01,
 Gaussian 09:  ES64L-G09RevD.01 24-Apr-2013

 -----------------------------
 # b3lyp 6-31G(2df,p) opt Freq
 -----------------------------

 -----
 titel
 -----
 Symbolic Z-matrix:
 Charge =  0 Multiplicity = 1

 SCF Done:  E(RB3LYP) =  -423.228521969     A.U. after   14 cycles
 Optimization completed.
    -- Stationary point found.
 Normal termination of Gaussian 09 at Tue Jan 28 03:51:47 2020.

 ----------------------------------------------------------------------
 #N Geom=AllCheck Guess=TCheck SCRF=Check GenChk RB3LYP/6-31G(2df,p) Fr
 eq
 ----------------------------------------------------------------------

 Structure from the checkpoint file:  "/scratch/puck/g09_dadec64e-310b-429c-a8ec-fcafdf335442/Gau-8687.chk"
 -----
 titel
 -----
 Charge =  0 Multiplicity = 1

                         Standard orientation:
 ---------------------------------------------------------------------
 Center     Atomic      Atomic             Coordinates (Angstroms)
 Number     Number       Type             X           Y           Z
 ---------------------------------------------------------------------
      1          6           0        2.735297    0.553854    0.217866
      2          6           0        1.361268    0.334499   -0.403495
      3          6           0        1.018727   -1.153548   -0.728221
      4          6           0        0.041705   -1.196747    0.484356
      5          6           0       -1.442729   -1.411602    0.183613
      6          8           0       -1.954869   -0.142450   -0.257691
      7          6           0       -1.107458    0.883696    0.044055
      8          8           0       -1.391489    2.025967   -0.174384
      9          6           0        0.186955    0.336702    0.626973
     10          1           0        2.904350   -0.123787    1.062900
     11          1           0        3.526818    0.373046   -0.517332
     12          1           0        2.842807    1.580067    0.584316
     13          1           0        1.215852    1.031998   -1.232975
     14          1           0        0.514424   -1.289191   -1.689287
     15          1           0        1.861134   -1.847796   -0.680815
     16          1           0        0.386279   -1.807594    1.318839
     17          1           0       -1.624073   -2.139929   -0.612328
     18          1           0       -2.005524   -1.717804    1.073193
     19          1           0        0.386206    0.791743    1.599200
 ---------------------------------------------------------------------

 SCF Done:  E(RB3LYP) =  -423.228521969     A.U. after    1 cycles

 The electronic state is 1-A.
 Alpha  occ. eigenvalues --  -19.17719 -19.11746 -10.29814 -10.24747 -10.20569
 Alpha  occ. eigenvalues --  -10.20289 -10.20215 -10.19361 -10.18482  -1.09402
 Alpha  occ. eigenvalues --   -1.01559  -0.86699  -0.75536  -0.72088  -0.68974
 Alpha  occ. eigenvalues --   -0.62543  -0.56556  -0.55172  -0.51575  -0.48864
 Alpha  occ. eigenvalues --   -0.47341  -0.44939  -0.43599  -0.41771  -0.41480
 Alpha  occ. eigenvalues --   -0.39990  -0.38824  -0.35341  -0.34179  -0.34082
 Alpha  occ. eigenvalues --   -0.31803  -0.30893  -0.28834  -0.25874
 Alpha virt. eigenvalues --    0.01228   0.07562   0.08916   0.10018   0.10425
 Alpha virt. eigenvalues --    0.13543   0.13732   0.14403   0.14972   0.16114
 Alpha virt. eigenvalues --    0.16590   0.17362   0.19169   0.19898   0.22215

 Mulliken charges:
               1
     1  C   -0.409717
     2  C    0.030663
     3  C   -0.254617
     4  C   -0.030220
     5  C   -0.102344
     6  O   -0.224864
     7  C    0.437496
     8  O   -0.346616
     9  C   -0.189836
    10  H    0.113450
    11  H    0.119641
    12  H    0.125934
    13  H    0.095228
    14  H    0.110241
    15  H    0.104667
    16  H    0.083959
    17  H    0.121587
    18  H    0.115252
    19  H    0.100094
 Sum of Mulliken charges =   0.00000

 Dipole moment (field-independent basis, Debye):
    X=              2.4418    Y=             -3.4361    Z=              1.0575  Tot=              4.3460
 Quadrupole moment (field-independent basis, Debye-Ang):
   XX=            -56.6017   YY=            -56.9105   ZZ=            -51.2087
   XY=              5.7363   XZ=             -1.8958   YZ=              0.5960

  Exact polarizability:  80.980   2.474  80.200  -0.485  -0.002  62.681
 Approx polarizability: 105.860   0.242 122.882   0.832  -1.359  96.675

                      1                      2                      3
                      A                      A                      A
 Frequencies --     67.0965               143.4522               175.4340
 Red. masses --      2.8601                 5.3402                 3.4413
 Frc consts  --      0.0076                 0.0647                 0.0624
 IR Inten    --      0.6347                 0.6479                 4.7118

                      4                      5                      6
                      A                      A                      A
 Frequencies --    250.0260               255.7978               332.3196
 Red. masses --      1.5274                 1.4618                 2.8181
 Frc consts  --      0.0563                 0.0564                 0.1834
 IR Inten    --      0.0223                 0.3506                 0.1858

                      7                      8                      9
                      A                      A                      A
 Frequencies --    395.7506               482.6930               617.8114
 Red. masses --      1.8345                 6.2180                 4.3723
 Frc consts  --      0.1693                 0.8536                 0.9833
 IR Inten    --      0.8238                 3.9150                 2.1300

                     10                     11                     12
                      A                      A                      A
 Frequencies --    684.5476               712.6977               740.7584
 Red. masses --      6.6648                 4.4854                 3.1895
 Frc consts  --      1.8401                 1.3423                 1.0312
 IR Inten    --      6.0373                 0.6238                 2.5746

                     13                     14                     15
                      A                      A                      A
 Frequencies --    816.2457               843.4831               867.8560
 Red. masses --      2.2864                 2.6618                 2.2275
 Frc consts  --      0.8975                 1.1158                 0.9885
 IR Inten    --      0.6937                 2.5056                 1.2818

                     16                     17                     18
                      A                      A                      A
 Frequencies --    908.5929               927.6532               941.6322
 Red. masses --      1.7284                 2.1754                 2.4158
 Frc consts  --      0.8407                 1.1030                 1.2620
 IR Inten    --      4.2970                 3.8016                 5.1280

                     19                     20                     21
                      A                      A                      A
 Frequencies --    991.9641              1012.3815              1059.1752
 Red. masses --      1.3852                 2.3838                 2.3538
 Frc consts  --      0.8031                 1.4395                 1.5558
 IR Inten    --      3.3253                47.4313                18.3742

                     22                     23                     24
                      A                      A                      A
 Frequencies --   1086.9058              1097.1349              1137.2221
 Red. masses --      1.8317                 2.5930                 2.1748
 Frc consts  --      1.2750                 1.8390                 1.6571
 IR Inten    --     27.0649                28.2356                14.2826

                     25                     26                     27
                      A                      A                      A
 Frequencies --   1166.9423              1175.6050              1206.9402
 Red. masses --      2.8564                 1.6208                 1.4956
 Frc consts  --      2.2918                 1.3198                 1.2836
 IR Inten    --    143.9331                10.7454                14.5516

                     28                     29                     30
                      A                      A                      A
 Frequencies --   1223.4511              1249.3165              1272.2266
 Red. masses --      1.3535                 1.3331                 1.5946
 Frc consts  --      1.1936                 1.2259                 1.5206
 IR Inten    --      1.0351                 1.0739                 1.0346

                     31                     32                     33
                      A                      A                      A
 Frequencies --   1273.6675              1286.3705              1330.9190
 Red. masses --      1.4491                 1.5314                 1.6018
 Frc consts  --      1.3850                 1.4931                 1.6717
 IR Inten    --      1.4654                13.9229                 1.6889

                     34                     35                     36
                      A                      A                      A
 Frequencies --   1370.3102              1400.3388              1410.0014
 Red. masses --      1.4528                 1.4390                 1.2507
 Frc consts  --      1.6073                 1.6625                 1.4650
 IR Inten    --     14.8439                22.6155                 1.3588

                     37                     38                     39
                      A                      A                      A
 Frequencies --   1482.5017              1494.3769              1497.2140
 Red. masses --      1.0997                 1.0502                 1.0472
 Frc consts  --      1.4241                 1.3817                 1.3831
 IR Inten    --      2.7245                 3.3024                 3.1048

                     40                     41                     42
                      A                      A                      A
 Frequencies --   1519.1146              1873.9121              3025.2795
 Red. masses --      1.0877                12.8722                 1.0354
 Frc consts  --      1.4789                26.6319                 5.5834
 IR Inten    --      2.5266               338.1797                23.3521

                     43                     44                     45
                      A                      A                      A
 Frequencies --   3034.3598              3055.5680              3065.8714
 Red. masses --      1.0616                 1.0621                 1.0841
 Frc consts  --      5.7588                 5.8426                 6.0037
 IR Inten    --     50.4416                23.2784                 9.1869

                     46                     47                     48
                      A                      A                      A
 Frequencies --   3087.6587              3093.0385              3095.4136
 Red. masses --      1.1035                 1.0914                 1.0960
 Frc consts  --      6.1985                 6.1518                 6.1874
 IR Inten    --     25.3039                17.0349                25.4449

                     49                     50                     51
                      A                      A                      A
 Frequencies --   3100.5470              3104.3307              3117.1278
 Red. masses --      1.1018                 1.0969                 1.0985
 Frc consts  --      6.2404                 6.2283                 6.2888
 IR Inten    --     15.5113                12.0160                42.0857

 - Thermochemistry -
 -------------------
 Temperature   298.150 Kelvin.  Pressure   1.00000 Atm.
 Atom     1 has atomic number  6 and mass  12.00000

 Molecular mass:   126.06808 amu.
 Principal axes and moments of inertia in atomic units:
                           1         2         3
     Eigenvalues --   676.047781174.097231629.62532
           X            0.99807   0.06213  -0.00222
           Y           -0.06211   0.99804   0.00816
           Z            0.00272  -0.00801   0.99996
 This molecule is an asymmetric top.
 Rotational symmetry number  1.
 Warning -- assumption of classical behavior for rotation
           may cause significant error
 Rotational temperatures (Kelvin)      0.12812     0.07377     0.05315
 Rotational constants (GHZ):           2.66955     1.53713     1.10746
 Zero-point vibrational energy     422048.7 (Joules/Mol)
                                  100.87206 (Kcal/Mol)
 Warning -- explicit consideration of   9 degrees of freedom as
           vibrations may cause significant error
 Vibrational temperatures:     96.54   206.40   252.41   359.73   368.04
          (Kelvin)            478.13   569.40   694.49   888.89   984.91
                             1025.41  1065.78  1174.39  1213.58  1248.65
                             1307.26  1334.68  1354.80  1427.21  1456.59
                             1523.92  1563.81  1578.53  1636.21  1678.97
                             1691.43  1736.52  1760.27  1797.49  1830.45
                             1832.52  1850.80  1914.89  1971.57  2014.77
                             2028.67  2132.99  2150.07  2154.15  2185.66
                             2696.14  4352.70  4365.76  4396.28  4411.10
                             4442.45  4450.19  4453.60  4460.99  4466.43
                             4484.85

 Zero-point correction=                           0.160750 (Hartree/Particle)
 Thermal correction to Energy=                    0.168706
 Thermal correction to Enthalpy=                  0.169650
 Thermal correction to Gibbs Free Energy=         0.127910
 Sum of electronic and zero-point Energies=           -423.067772
 Sum of electronic and thermal Energies=              -423.059816
 Sum of electronic and thermal Enthalpies=            -423.058872
 Sum of electronic and thermal Free Energies=         -423.100612

                     E (Thermal)             CV                S
                      KCal/Mol        Cal/Mol-Kelvin    Cal/Mol-Kelvin
 Total                  105.864             30.333             87.849
 Electronic               0.000              0.000              0.000
 Translational            0.889              2.981             40.409
 Rotational               0.889              2.981             28.649
 Vibrational            104.087             24.371             18.791
 Vibration     1          0.598              1.970              4.237
 Vibration     2          0.616              1.910              2.757
 Vibration     3          0.627              1.873              2.376
 Vibration     4          0.663              1.763              1.730
 Vibration     5          0.666              1.753              1.690
 Vibration     6          0.714              1.611              1.249
 Vibration     7          0.762              1.479              0.978
 Vibration     8          0.839              1.288              0.703
 Vibration     9          0.978              0.994              0.420

 Optimization completed.
    -- Stationary point found.
 Normal termination of Gaussian 09 at Tue Jan 28 04:33:41 2020.
