 Gaussian 09, Revision D.01,
 Gaussian 09:  ES64L-G09RevD.01 24-Apr-2013

 -----------------------------
 # b3lyp 6-31G(2df,p) opt Freq
 -----------------------------

 -----
 titel
 -----
 Symbolic Z-matrix:
 Charge =  0 Multiplicity = 1

 SCF Done:  E(RB3LYP) =  -423.177639364     A.U. after   14 cycles
 Optimization completed.
    -- Stationary point found.
 Normal termination of Gaussian 09 at Mon Jan 27 23:03:21 2020.

 ----------------------------------------------------------------------
 #N Geom=AllCheck Guess=TCheck SCRF=Check GenChk RB3LYP/6-31G(2df,p) Fr
 eq
 ----------------------------------------------------------------------

 Structure from the checkpoint file:  "/scratch/puck/g09_114edb72-e665-4cb0-8372-e7618be736db/Gau-102363.chk"
 -----
 titel
 -----
 Charge =  0 Multiplicity = 1

                         Standard orientation:
 ---------------------------------------------------------------------
 Center     Atomic      Atomic             Coordinates (Angstroms)
 Number     Number       Type             X           Y           Z
 ---------------------------------------------------------------------
      1          6           0       -2.332934   -1.330430    0.112103
      2          6           0       -0.973923   -0.730617   -0.042684
      3          6           0        0.210656   -1.245097    0.299002
      4          6           0        1.334624   -0.279625    0.070631
      5          8           0        2.586390   -0.743077   -0.326349
      6          6           0        1.296867    0.955817    0.919837
      7          6           0        0.674749    0.972191   -0.473407
      8          6           0       -0.816927    0.685997   -0.609128
      9          8           0       -1.679510    1.633233    0.014303
     10          1           0       -2.822285   -1.448712   -0.863674
     11          1           0       -2.296089   -2.308469    0.598622
     12          1           0       -2.978169   -0.666800    0.698442
     13          1           0        0.378549   -2.223012    0.739070
     14          1           0        2.477233   -1.199910   -1.168269
     15          1           0        0.674394    0.955873    1.809993
     16          1           0        2.226817    1.506897    1.012533
     17          1           0        1.171037    1.581558   -1.218489
     18          1           0       -1.119400    0.708045   -1.664716
     19          1           0       -1.325792    1.803858    0.894727
 ---------------------------------------------------------------------

 SCF Done:  E(RB3LYP) =  -423.177639364     A.U. after    1 cycles

 The electronic state is 1-A.
 Alpha  occ. eigenvalues --  -19.14625 -19.13456 -10.24103 -10.23421 -10.18989
 Alpha  occ. eigenvalues --  -10.18664 -10.18595 -10.18040 -10.17888  -1.03270
 Alpha  occ. eigenvalues --   -1.01575  -0.87482  -0.78625  -0.69838  -0.69091
 Alpha  occ. eigenvalues --   -0.59252  -0.58160  -0.54000  -0.52604  -0.49342
 Alpha  occ. eigenvalues --   -0.45659  -0.43750  -0.42657  -0.40966  -0.40405
 Alpha  occ. eigenvalues --   -0.39811  -0.37232  -0.36074  -0.33768  -0.32520
 Alpha  occ. eigenvalues --   -0.29856  -0.27409  -0.26017  -0.22448
 Alpha virt. eigenvalues --    0.00695   0.08052   0.08713   0.10232   0.12124
 Alpha virt. eigenvalues --    0.13573   0.14534   0.15720   0.16679   0.17473
 Alpha virt. eigenvalues --    0.18026   0.19735   0.21546   0.22130   0.24004

 Mulliken charges:
               1
     1  C   -0.484832
     2  C    0.286217
     3  C   -0.302715
     4  C    0.408689
     5  O   -0.466646
     6  C   -0.326636
     7  C   -0.161648
     8  C    0.028454
     9  O   -0.428484
    10  H    0.125853
    11  H    0.120294
    12  H    0.137359
    13  H    0.095508
    14  H    0.280849
    15  H    0.104082
    16  H    0.123409
    17  H    0.092300
    18  H    0.088081
    19  H    0.279864
 Sum of Mulliken charges =   0.00000

 Dipole moment (field-independent basis, Debye):
    X=             -0.0398    Y=             -0.8561    Z=             -0.2788  Tot=              0.9012
 Quadrupole moment (field-independent basis, Debye-Ang):
   XX=            -58.9324   YY=            -52.7556   ZZ=            -48.8432
   XY=              3.2369   XZ=             -3.4222   YZ=              3.0209

  Exact polarizability:  91.974   0.894  74.788   3.271  -0.070  64.427
 Approx polarizability: 133.510  -9.536 109.213   8.998  -0.890 102.022

                      1                      2                      3
                      A                      A                      A
 Frequencies --    125.8275               163.7778               182.3597
 Red. masses --      3.1017                 1.3143                 2.2676
 Frc consts  --      0.0289                 0.0208                 0.0444
 IR Inten    --      2.0067                 1.0817                 4.4503

                      4                      5                      6
                      A                      A                      A
 Frequencies --    234.2032               262.3273               298.7590
 Red. masses --      2.3018                 1.9164                 1.4587
 Frc consts  --      0.0744                 0.0777                 0.0767
 IR Inten    --      6.3471                25.7387                11.9813

                      7                      8                      9
                      A                      A                      A
 Frequencies --    328.3504               361.7122               402.2864
 Red. masses --      2.8045                 1.4568                 2.9495
 Frc consts  --      0.1781                 0.1123                 0.2812
 IR Inten    --      7.2561               127.7657                 6.8910

                     10                     11                     12
                      A                      A                      A
 Frequencies --    455.8897               509.0449               559.7896
 Red. masses --      3.1106                 2.8316                 4.7169
 Frc consts  --      0.3809                 0.4323                 0.8709
 IR Inten    --      6.6255                 0.5411                 4.8747

                     13                     14                     15
                      A                      A                      A
 Frequencies --    589.0314               661.1338               746.4775
 Red. masses --      3.6977                 2.7208                 3.2860
 Frc consts  --      0.7559                 0.7007                 1.0788
 IR Inten    --      6.2965                 2.3941                 4.5720

                     16                     17                     18
                      A                      A                      A
 Frequencies --    827.7279               870.1744               900.1274
 Red. masses --      2.9047                 1.7220                 2.0604
 Frc consts  --      1.1725                 0.7682                 0.9836
 IR Inten    --      0.3574                12.0159                13.9199

                     19                     20                     21
                      A                      A                      A
 Frequencies --    913.6222               950.6990               961.7173
 Red. masses --      2.4595                 1.8425                 1.7284
 Frc consts  --      1.2096                 0.9812                 0.9419
 IR Inten    --     28.1242                 3.1624                 2.1379

                     22                     23                     24
                      A                      A                      A
 Frequencies --   1009.5791              1047.7711              1054.8621
 Red. masses --      1.4799                 3.5718                 1.4159
 Frc consts  --      0.8887                 2.3103                 0.9282
 IR Inten    --      8.5540                93.7176                12.9304

                     25                     26                     27
                      A                      A                      A
 Frequencies --   1071.2790              1083.6702              1098.0943
 Red. masses --      1.3872                 1.4502                 2.5514
 Frc consts  --      0.9380                 1.0034                 1.8126
 IR Inten    --     12.2336                 4.1052                35.2721

                     28                     29                     30
                      A                      A                      A
 Frequencies --   1160.2958              1228.1930              1257.4026
 Red. masses --      1.9271                 1.7803                 1.4303
 Frc consts  --      1.5286                 1.5823                 1.3324
 IR Inten    --     31.0118                20.0556                13.2789

                     31                     32                     33
                      A                      A                      A
 Frequencies --   1261.4505              1294.8408              1328.5885
 Red. masses --      1.8719                 1.6754                 2.0530
 Frc consts  --      1.7550                 1.6550                 2.1351
 IR Inten    --     33.5095                20.8973                 7.0626

                     34                     35                     36
                      A                      A                      A
 Frequencies --   1350.3846              1404.1107              1408.0518
 Red. masses --      2.2537                 1.5268                 1.4309
 Frc consts  --      2.4213                 1.7735                 1.6714
 IR Inten    --     92.5102                 7.3880                 2.3596

                     37                     38                     39
                      A                      A                      A
 Frequencies --   1422.3812              1472.4310              1475.5778
 Red. masses --      1.2230                 1.0620                 1.3657
 Frc consts  --      1.4579                 1.3566                 1.7520
 IR Inten    --     61.8747                 2.7510                16.9533

                     40                     41                     42
                      A                      A                      A
 Frequencies --   1489.9486              1712.7858              3017.8386
 Red. masses --      1.0897                 7.5270                 1.0744
 Frc consts  --      1.4253                13.0100                 5.7651
 IR Inten    --     19.3927                 8.6388                20.0059

                     43                     44                     45
                      A                      A                      A
 Frequencies --   3021.4785              3074.0179              3117.2842
 Red. masses --      1.0494                 1.0932                 1.1007
 Frc consts  --      5.6446                 6.0866                 6.3021
 IR Inten    --     43.8061                13.3889                16.3858

                     46                     47                     48
                      A                      A                      A
 Frequencies --   3117.5031              3182.3131              3188.9709
 Red. masses --      1.0551                 1.0938                 1.0927
 Frc consts  --      6.0415                 6.5266                 6.5472
 IR Inten    --     13.1775                15.3867                 4.9076

                     49                     50                     51
                      A                      A                      A
 Frequencies --   3212.1446              3789.0091              3797.1684
 Red. masses --      1.1141                 1.0659                 1.0655
 Frc consts  --      6.7728                 9.0160                 9.0519
 IR Inten    --      9.6920                17.5742                 8.7477

 - Thermochemistry -
 -------------------
 Temperature   298.150 Kelvin.  Pressure   1.00000 Atm.
 Atom     1 has atomic number  6 and mass  12.00000

 Molecular mass:   126.06808 amu.
 Principal axes and moments of inertia in atomic units:
                           1         2         3
     Eigenvalues --   654.101861273.452281690.05159
           X            0.99827   0.05873  -0.00294
           Y           -0.05871   0.99825   0.00753
           Z            0.00337  -0.00734   0.99997
 This molecule is an asymmetric top.
 Rotational symmetry number  1.
 Warning -- assumption of classical behavior for rotation
           may cause significant error
 Rotational temperatures (Kelvin)      0.13242     0.06801     0.05125
 Rotational constants (GHZ):           2.75911     1.41720     1.06786
 Zero-point vibrational energy     415430.0 (Joules/Mol)
                                   99.29014 (Kcal/Mol)
 Warning -- explicit consideration of  13 degrees of freedom as
           vibrations may cause significant error
 Vibrational temperatures:    181.04   235.64   262.37   336.97   377.43
          (Kelvin)            429.85   472.42   520.42   578.80   655.92
                              732.40   805.41   847.48   951.22  1074.01
                             1190.91  1251.99  1295.08  1314.50  1367.84
                             1383.70  1452.56  1507.51  1517.71  1541.33
                             1559.16  1579.91  1669.40  1767.09  1809.12
                             1814.94  1862.98  1911.54  1942.90  2020.20
                             2025.87  2046.49  2118.50  2123.02  2143.70
                             2464.31  4341.99  4347.23  4422.82  4485.07
                             4485.39  4578.63  4588.21  4621.55  5451.53
                             5463.27

 Zero-point correction=                           0.158229 (Hartree/Particle)
 Thermal correction to Energy=                    0.167079
 Thermal correction to Enthalpy=                  0.168023
 Thermal correction to Gibbs Free Energy=         0.125341
 Sum of electronic and zero-point Energies=           -423.019410
 Sum of electronic and thermal Energies=              -423.010561
 Sum of electronic and thermal Enthalpies=            -423.009616
 Sum of electronic and thermal Free Energies=         -423.052298

                     E (Thermal)             CV                S
                      KCal/Mol        Cal/Mol-Kelvin    Cal/Mol-Kelvin
 Total                  104.844             34.514             89.832
 Electronic               0.000              0.000              0.000
 Translational            0.889              2.981             40.409
 Rotational               0.889              2.981             28.733
 Vibrational            103.066             28.552             20.690
 Vibration     1          0.611              1.927              3.009
 Vibration     2          0.623              1.887              2.506
 Vibration     3          0.630              1.864              2.304
 Vibration     4          0.654              1.789              1.846
 Vibration     5          0.670              1.742              1.646
 Vibration     6          0.692              1.676              1.424
 Vibration     7          0.712              1.619              1.268
 Vibration     8          0.736              1.551              1.115
 Vibration     9          0.768              1.465              0.954
 Vibration    10          0.814              1.348              0.778
 Vibration    11          0.864              1.230              0.636
 Vibration    12          0.915              1.118              0.524
 Vibration    13          0.946              1.055              0.469

 Optimization completed.
    -- Stationary point found.
 Normal termination of Gaussian 09 at Mon Jan 27 23:47:28 2020.
