 Gaussian 09, Revision D.01,
 Gaussian 09:  ES64L-G09RevD.01 24-Apr-2013

 -----------------------------
 # b3lyp 6-31G(2df,p) opt Freq
 -----------------------------

 -----
 titel
 -----
 Symbolic Z-matrix:
 Charge =  0 Multiplicity = 1

 SCF Done:  E(RB3LYP) =  -423.192465554     A.U. after   12 cycles
 Optimization completed.
    -- Stationary point found.
 Normal termination of Gaussian 09 at Mon Jan 27 17:03:32 2020.

 ----------------------------------------------------------------------
 #N Geom=AllCheck Guess=TCheck SCRF=Check GenChk RB3LYP/6-31G(2df,p) Fr
 eq
 ----------------------------------------------------------------------

 Structure from the checkpoint file:  "/scratch/puck/g09_6e477d04-893d-46a2-a1a9-7631cf0f06dd/Gau-49241.chk"
 -----
 titel
 -----
 Charge =  0 Multiplicity = 1

                         Standard orientation:
 ---------------------------------------------------------------------
 Center     Atomic      Atomic             Coordinates (Angstroms)
 Number     Number       Type             X           Y           Z
 ---------------------------------------------------------------------
      1          6           0        2.363648   -0.000162   -0.460396
      2          6           0        0.917893   -0.000110   -0.045409
      3          6           0        0.299369   -0.761695    1.094727
      4          6           0       -0.912952   -1.501380    0.548467
      5          8           0       -0.987220   -1.170680   -0.841119
      6          6           0       -0.230970   -0.000007   -1.074071
      7          8           0       -0.987043    1.170785   -0.841125
      8          6           0       -0.912619    1.501587    0.548422
      9          6           0        0.299545    0.761652    1.094701
     10          1           0        3.020260   -0.002654    0.415193
     11          1           0        2.606299   -0.884468   -1.060280
     12          1           0        2.607611    0.886479   -1.056291
     13          1           0        0.919412   -1.259806    1.832098
     14          1           0       -0.792115   -2.586564    0.637469
     15          1           0       -1.848052   -1.222140    1.054089
     16          1           0        0.056785   -0.000036   -2.126488
     17          1           0       -0.791505    2.586750    0.637333
     18          1           0       -1.847765    1.222632    1.054119
     19          1           0        0.919688    1.259646    1.832065
 ---------------------------------------------------------------------

 SCF Done:  E(RB3LYP) =  -423.192465554     A.U. after    1 cycles

 The electronic state is 1-A.
 Alpha  occ. eigenvalues --  -19.13416 -19.13415 -10.27017 -10.22898 -10.22898
 Alpha  occ. eigenvalues --  -10.19919 -10.19694 -10.19673 -10.18718  -1.06725
 Alpha  occ. eigenvalues --   -1.00068  -0.87370  -0.75251  -0.70365  -0.70305
 Alpha  occ. eigenvalues --   -0.60537  -0.57699  -0.57279  -0.51951  -0.47071
 Alpha  occ. eigenvalues --   -0.45171  -0.43743  -0.43555  -0.42589  -0.42497
 Alpha  occ. eigenvalues --   -0.41203  -0.39192  -0.37930  -0.32225  -0.31342
 Alpha  occ. eigenvalues --   -0.28932  -0.27772  -0.26825  -0.24958
 Alpha virt. eigenvalues --    0.08103   0.10632   0.10838   0.11181   0.13155
 Alpha virt. eigenvalues --    0.14270   0.14662   0.15079   0.15825   0.17017
 Alpha virt. eigenvalues --    0.17260   0.17987   0.19949   0.20660   0.21812

 Mulliken charges:
               1
     1  C   -0.514380
     2  C    0.318601
     3  C   -0.137610
     4  C   -0.102885
     5  O   -0.257278
     6  C    0.126144
     7  O   -0.257281
     8  C   -0.102880
     9  C   -0.137584
    10  H    0.119996
    11  H    0.126846
    12  H    0.126841
    13  H    0.090208
    14  H    0.107153
    15  H    0.102095
    16  H    0.092561
    17  H    0.107149
    18  H    0.102093
    19  H    0.090209
 Sum of Mulliken charges =   0.00000

 Dipole moment (field-independent basis, Debye):
    X=              1.9212    Y=             -0.0002    Z=              2.0375  Tot=              2.8005
 Quadrupole moment (field-independent basis, Debye-Ang):
   XX=            -53.7234   YY=            -52.9454   ZZ=            -52.4684
   XY=              0.0000   XZ=             -3.0260   YZ=              0.0001

  Exact polarizability:  73.798   0.002  75.503  -4.078   0.000  70.202
 Approx polarizability: 100.692   0.003 110.352  -4.023   0.000 108.533

                      1                      2                      3
                      A                      A                      A
 Frequencies --    116.8110               195.0300               211.0637
 Red. masses --      4.4700                 1.0469                 2.2475
 Frc consts  --      0.0359                 0.0235                 0.0590
 IR Inten    --      2.2872                 0.0113                 0.4774

                      4                      5                      6
                      A                      A                      A
 Frequencies --    242.4644               273.8999               475.1565
 Red. masses --      2.0956                 2.6986                 2.5043
 Frc consts  --      0.0726                 0.1193                 0.3331
 IR Inten    --      1.1904                 1.6210                 0.0072

                      7                      8                      9
                      A                      A                      A
 Frequencies --    487.9897               589.2606               625.6141
 Red. masses --      5.1622                 4.0814                 6.5135
 Frc consts  --      0.7243                 0.8350                 1.5020
 IR Inten    --      5.0805                 2.4647                 1.8136

                     10                     11                     12
                      A                      A                      A
 Frequencies --    732.6302               739.3322               756.1668
 Red. masses --      3.5154                 4.4711                 7.3944
 Frc consts  --      1.1117                 1.4399                 2.4911
 IR Inten    --      0.9460                 0.8111                 2.6490

                     13                     14                     15
                      A                      A                      A
 Frequencies --    870.0992               877.8092               925.2709
 Red. masses --      2.1287                 1.7803                 3.0209
 Frc consts  --      0.9495                 0.8083                 1.5238
 IR Inten    --      1.1591                 1.5080                64.8076

                     16                     17                     18
                      A                      A                      A
 Frequencies --    935.5905               953.8857               979.9577
 Red. masses --      2.8200                 1.4764                 2.2152
 Frc consts  --      1.4543                 0.7915                 1.2534
 IR Inten    --     20.6713                 9.8793                82.0451

                     19                     20                     21
                      A                      A                      A
 Frequencies --    984.6274              1005.9257              1059.7753
 Red. masses --      2.6315                 3.2039                 1.9817
 Frc consts  --      1.5031                 1.9101                 1.3113
 IR Inten    --      6.9578                62.0033                31.3554

                     22                     23                     24
                      A                      A                      A
 Frequencies --   1071.2709              1089.6084              1104.0136
 Red. masses --      2.2436                 2.6347                 2.8456
 Frc consts  --      1.5171                 1.8430                 2.0435
 IR Inten    --     32.0507                35.6829                11.0168

                     25                     26                     27
                      A                      A                      A
 Frequencies --   1107.8090              1136.9333              1219.0812
 Red. masses --      1.8953                 1.9503                 1.4071
 Frc consts  --      1.3704                 1.4854                 1.2321
 IR Inten    --     14.2336                 9.8290                 8.0376

                     28                     29                     30
                      A                      A                      A
 Frequencies --   1224.8640              1234.4950              1249.8862
 Red. masses --      1.0901                 1.5519                 1.7380
 Frc consts  --      0.9636                 1.3934                 1.5998
 IR Inten    --      1.1496                 3.8129                 1.1406

                     31                     32                     33
                      A                      A                      A
 Frequencies --   1313.6550              1328.9755              1356.4131
 Red. masses --      1.9765                 1.3673                 1.3013
 Frc consts  --      2.0096                 1.4229                 1.4106
 IR Inten    --     11.6760                 0.2773                 0.1471

                     34                     35                     36
                      A                      A                      A
 Frequencies --   1374.7317              1386.9840              1418.1623
 Red. masses --      1.4982                 1.3145                 1.2506
 Frc consts  --      1.6683                 1.4899                 1.4820
 IR Inten    --     10.3467                11.4188                 2.5394

                     37                     38                     39
                      A                      A                      A
 Frequencies --   1463.1961              1488.9198              1500.7834
 Red. masses --      3.4226                 1.0444                 1.0651
 Frc consts  --      4.3173                 1.3641                 1.4134
 IR Inten    --      3.2883                 3.6130                 5.6301

                     40                     41                     42
                      A                      A                      A
 Frequencies --   1516.6084              1533.9555              3003.1173
 Red. masses --      1.0922                 1.0854                 1.0658
 Frc consts  --      1.4802                 1.5047                 5.6632
 IR Inten    --      0.3340                 0.9171                13.7797

                     43                     44                     45
                      A                      A                      A
 Frequencies --   3005.9878              3026.8535              3058.4985
 Red. masses --      1.0656                 1.0356                 1.0979
 Frc consts  --      5.6733                 5.5902                 6.0510
 IR Inten    --    110.1057                31.8161                72.4245

                     46                     47                     48
                      A                      A                      A
 Frequencies --   3060.3822              3088.1334              3101.3179
 Red. masses --      1.0985                 1.1012                 1.1002
 Frc consts  --      6.0616                 6.1877                 6.2347
 IR Inten    --      2.9905                20.7888                13.3199

                     49                     50                     51
                      A                      A                      A
 Frequencies --   3114.2186              3166.4556              3176.2774
 Red. masses --      1.0900                 1.0895                 1.0918
 Frc consts  --      6.2286                 6.4363                 6.4898
 IR Inten    --     34.1996                 7.2925                17.8762

 - Thermochemistry -
 -------------------
 Temperature   298.150 Kelvin.  Pressure   1.00000 Atm.
 Atom     1 has atomic number  6 and mass  12.00000

 Molecular mass:   126.06808 amu.
 Principal axes and moments of inertia in atomic units:
                           1         2         3
     Eigenvalues --   801.54128 912.168871061.62593
           X            0.99687  -0.00002  -0.07912
           Y            0.00002   1.00000   0.00001
           Z            0.07912  -0.00001   0.99687
 This molecule is an asymmetric top.
 Rotational symmetry number  1.
 Warning -- assumption of classical behavior for rotation
           may cause significant error
 Rotational temperatures (Kelvin)      0.10806     0.09495     0.08159
 Rotational constants (GHZ):           2.25159     1.97852     1.69998
 Zero-point vibrational energy     424434.7 (Joules/Mol)
                                  101.44234 (Kcal/Mol)
 Warning -- explicit consideration of   8 degrees of freedom as
           vibrations may cause significant error
 Vibrational temperatures:    168.06   280.60   303.67   348.85   394.08
          (Kelvin)            683.64   702.11   847.81   900.12  1054.09
                             1063.73  1087.95  1251.88  1262.97  1331.26
                             1346.10  1372.43  1409.94  1416.66  1447.30
                             1524.78  1541.32  1567.70  1588.43  1593.89
                             1635.79  1753.98  1762.30  1776.16  1798.31
                             1890.05  1912.10  1951.57  1977.93  1995.56
                             2040.42  2105.21  2142.22  2159.29  2182.06
                             2207.02  4320.81  4324.94  4354.96  4400.49
                             4403.20  4443.13  4462.10  4480.66  4555.82
                             4569.95

 Zero-point correction=                           0.161659 (Hartree/Particle)
 Thermal correction to Energy=                    0.169000
 Thermal correction to Enthalpy=                  0.169944
 Thermal correction to Gibbs Free Energy=         0.130025
 Sum of electronic and zero-point Energies=           -423.030807
 Sum of electronic and thermal Energies=              -423.023466
 Sum of electronic and thermal Enthalpies=            -423.022522
 Sum of electronic and thermal Free Energies=         -423.062441

                     E (Thermal)             CV                S
                      KCal/Mol        Cal/Mol-Kelvin    Cal/Mol-Kelvin
 Total                  106.049             29.067             84.017
 Electronic               0.000              0.000              0.000
 Translational            0.889              2.981             40.409
 Rotational               0.889              2.981             28.142
 Vibrational            104.271             23.106             15.467
 Vibration     1          0.608              1.935              3.152
 Vibration     2          0.636              1.847              2.179
 Vibration     3          0.643              1.824              2.034
 Vibration     4          0.659              1.775              1.785
 Vibration     5          0.676              1.722              1.571
 Vibration     6          0.832              1.305              0.723
 Vibration     7          0.844              1.277              0.689
 Vibration     8          0.947              1.055              0.468

 Normal termination of Gaussian 09 at Mon Jan 27 17:50:55 2020.
