 Gaussian 09, Revision D.01,
 Gaussian 09:  ES64L-G09RevD.01 24-Apr-2013

 -----------------------------
 # b3lyp 6-31G(2df,p) opt Freq
 -----------------------------

 -----
 titel
 -----
 Symbolic Z-matrix:
 Charge =  0 Multiplicity = 1

 SCF Done:  E(RB3LYP) =  -423.008606988     A.U. after   14 cycles
 Optimization completed.
    -- Stationary point found.
 Normal termination of Gaussian 09 at Mon Jan 27 16:04:22 2020.

 ----------------------------------------------------------------------
 #N Geom=AllCheck Guess=TCheck SCRF=Check GenChk RB3LYP/6-31G(2df,p) Fr
 eq
 ----------------------------------------------------------------------

 Structure from the checkpoint file:  "/scratch/puck/g09_0b447b9d-30aa-4d24-a2e6-9872ead4e643/Gau-56142.chk"
 -----
 titel
 -----
 Charge =  0 Multiplicity = 1

                         Standard orientation:
 ---------------------------------------------------------------------
 Center     Atomic      Atomic             Coordinates (Angstroms)
 Number     Number       Type             X           Y           Z
 ---------------------------------------------------------------------
      1          6           0       -0.804562    1.726473   -0.542674
      2          6           0       -0.882635    0.279386   -0.060141
      3          6           0       -2.187730    0.035315    0.694945
      4          6           0       -0.424983   -0.838605   -1.010809
      5          8           0       -0.251662   -1.775176    0.169245
      6          6           0        0.385101   -0.455218    0.542786
      7          6           0        1.576138    0.340163    1.105984
      8          8           0        1.845307    0.735554   -0.298587
      9          6           0        1.105251   -0.474658   -0.740941
     10          1           0       -1.721444    1.971255   -1.090913
     11          1           0       -0.751603    2.411718    0.311026
     12          1           0        0.051061    1.926537   -1.184710
     13          1           0       -3.045904    0.216512    0.037948
     14          1           0       -2.248048   -0.985405    1.071354
     15          1           0       -2.274917    0.730628    1.537307
     16          1           0       -0.918031   -1.295785   -1.874489
     17          1           0        1.360269    1.206542    1.737126
     18          1           0        2.401084   -0.254630    1.511894
     19          1           0        1.798886   -1.287536   -0.956704
 ---------------------------------------------------------------------

 SCF Done:  E(RB3LYP) =  -423.008606988     A.U. after    1 cycles

 The electronic state is 1-A.
 Alpha  occ. eigenvalues --  -19.15479 -19.15132 -10.26265 -10.25778 -10.24994
 Alpha  occ. eigenvalues --  -10.23438 -10.20861 -10.17401 -10.17169  -1.07165
 Alpha  occ. eigenvalues --   -1.02074  -0.80864  -0.73974  -0.71344  -0.68274
 Alpha  occ. eigenvalues --   -0.63853  -0.61146  -0.50960  -0.50488  -0.47486
 Alpha  occ. eigenvalues --   -0.46046  -0.44621  -0.42901  -0.42247  -0.40959
 Alpha  occ. eigenvalues --   -0.38140  -0.37251  -0.36034  -0.34536  -0.32947
 Alpha  occ. eigenvalues --   -0.30529  -0.28302  -0.25700  -0.24219
 Alpha virt. eigenvalues --    0.02274   0.04744   0.08070   0.10381   0.11595
 Alpha virt. eigenvalues --    0.11840   0.13215   0.13972   0.14965   0.16023
 Alpha virt. eigenvalues --    0.17447   0.17519   0.19731   0.20336   0.21258

 Mulliken charges:
               1
     1  C   -0.469468
     2  C    0.319193
     3  C   -0.464488
     4  C   -0.047260
     5  O   -0.365517
     6  C    0.263531
     7  C   -0.190435
     8  O   -0.302315
     9  C    0.069368
    10  H    0.111470
    11  H    0.115716
    12  H    0.143109
    13  H    0.112974
    14  H    0.139417
    15  H    0.112239
    16  H    0.092734
    17  H    0.126710
    18  H    0.128641
    19  H    0.104381
 Sum of Mulliken charges =   0.00000

 Dipole moment (field-independent basis, Debye):
    X=             -0.4077    Y=              0.6791    Z=              0.3632  Tot=              0.8714
 Quadrupole moment (field-independent basis, Debye-Ang):
   XX=            -53.8314   YY=            -57.6924   ZZ=            -50.1677
   XY=             -2.8553   XZ=              3.4539   YZ=              2.9939

  Exact polarizability:  84.417  -0.042  73.521   4.666   5.496  70.062
 Approx polarizability: 119.206   8.264 117.561   6.559   6.300 111.968

                      1                      2                      3
                      A                      A                      A
 Frequencies --    164.9904               178.4073               208.0407
 Red. masses --      1.3171                 2.1620                 1.2933
 Frc consts  --      0.0211                 0.0405                 0.0330
 IR Inten    --      0.0363                 0.4351                 0.4933

                      4                      5                      6
                      A                      A                      A
 Frequencies --    254.8074               290.5561               351.1906
 Red. masses --      1.8521                 2.8415                 3.9547
 Frc consts  --      0.0708                 0.1413                 0.2874
 IR Inten    --      1.5070                 4.8323                 8.5906

                      7                      8                      9
                      A                      A                      A
 Frequencies --    386.7276               399.5413               447.0338
 Red. masses --      2.7353                 3.3301                 2.3842
 Frc consts  --      0.2410                 0.3132                 0.2807
 IR Inten    --      5.9970                 6.7350                 2.1439

                     10                     11                     12
                      A                      A                      A
 Frequencies --    527.0160               583.5232               644.2812
 Red. masses --      5.7101                 4.9885                 3.2531
 Frc consts  --      0.9344                 1.0008                 0.7956
 IR Inten    --      3.6303                 4.7133                 3.0456

                     13                     14                     15
                      A                      A                      A
 Frequencies --    691.7686               778.1300               816.5985
 Red. masses --      3.7238                 6.0750                 5.9803
 Frc consts  --      1.0499                 2.1672                 2.3496
 IR Inten    --     19.8456                12.7409                41.0245

                     16                     17                     18
                      A                      A                      A
 Frequencies --    830.3689               867.0415               885.2697
 Red. masses --      3.1222                 4.9062                 2.7972
 Frc consts  --      1.2684                 2.1731                 1.2916
 IR Inten    --      5.9991                11.6399                 9.9786

                     19                     20                     21
                      A                      A                      A
 Frequencies --    902.6456               957.0887               969.4351
 Red. masses --      3.2073                 1.4075                 1.9348
 Frc consts  --      1.5397                 0.7596                 1.0713
 IR Inten    --     31.4798                 0.1190                 2.4458

                     22                     23                     24
                      A                      A                      A
 Frequencies --   1002.3595              1013.3672              1078.9523
 Red. masses --      1.6482                 1.3311                 1.6832
 Frc consts  --      0.9757                 0.8053                 1.1545
 IR Inten    --     24.7685                 4.0335                 7.8615

                     25                     26                     27
                      A                      A                      A
 Frequencies --   1118.8361              1131.8744              1157.0222
 Red. masses --      1.8699                 1.2192                 1.7995
 Frc consts  --      1.3791                 0.9203                 1.4193
 IR Inten    --     10.7218                 5.6701                 7.5340

                     28                     29                     30
                      A                      A                      A
 Frequencies --   1179.1933              1191.3550              1236.3463
 Red. masses --      2.0192                 1.9442                 3.7569
 Frc consts  --      1.6543                 1.6258                 3.3835
 IR Inten    --     13.7386                 1.9193                 7.0091

                     31                     32                     33
                      A                      A                      A
 Frequencies --   1273.5184              1293.7172              1304.2554
 Red. masses --      1.5078                 2.7951                 1.6549
 Frc consts  --      1.4408                 2.7563                 1.6586
 IR Inten    --      1.2896                 2.1220                10.5025

                     34                     35                     36
                      A                      A                      A
 Frequencies --   1353.5930              1399.2733              1422.9588
 Red. masses --      2.1454                 1.2693                 1.2150
 Frc consts  --      2.3160                 1.4643                 1.4494
 IR Inten    --      3.6608                 8.6938                 5.1184

                     37                     38                     39
                      A                      A                      A
 Frequencies --   1483.0597              1485.7836              1493.7318
 Red. masses --      1.0523                 1.0462                 1.0961
 Frc consts  --      1.3637                 1.3608                 1.4409
 IR Inten    --      5.7921                 2.3198                 0.2445

                     40                     41                     42
                      A                      A                      A
 Frequencies --   1507.9316              1513.8947              3031.5461
 Red. masses --      1.0757                 1.0490                 1.0408
 Frc consts  --      1.4411                 1.4165                 5.6359
 IR Inten    --      0.2529                10.6296                 7.6534

                     43                     44                     45
                      A                      A                      A
 Frequencies --   3037.1160              3042.2361              3068.9675
 Red. masses --      1.0413                 1.0536                 1.0898
 Frc consts  --      5.6591                 5.7454                 6.0473
 IR Inten    --     54.4924                51.6741                57.0404

                     46                     47                     48
                      A                      A                      A
 Frequencies --   3083.7136              3089.7577              3112.1982
 Red. masses --      1.1002                 1.0997                 1.1112
 Frc consts  --      6.1639                 6.1855                 6.3412
 IR Inten    --      2.9024                40.7287                11.0707

                     49                     50                     51
                      A                      A                      A
 Frequencies --   3113.6394              3151.9955              3163.4943
 Red. masses --      1.0898                 1.0969                 1.0953
 Frc consts  --      6.2250                 6.4209                 6.4584
 IR Inten    --     42.2001                 7.6017                 8.1787

 - Thermochemistry -
 -------------------
 Temperature   298.150 Kelvin.  Pressure   1.00000 Atm.
 Atom     1 has atomic number  6 and mass  12.00000

 Molecular mass:   126.06808 amu.
 Principal axes and moments of inertia in atomic units:
                           1         2         3
     Eigenvalues --   694.93093 992.438461228.06183
           X            0.99778  -0.06605   0.00907
           Y            0.06579   0.99749   0.02621
           Z           -0.01078  -0.02556   0.99962
 This molecule is an asymmetric top.
 Rotational symmetry number  1.
 Warning -- assumption of classical behavior for rotation
           may cause significant error
 Rotational temperatures (Kelvin)      0.12464     0.08727     0.07053
 Rotational constants (GHZ):           2.59701     1.81849     1.46958
 Zero-point vibrational energy     410738.7 (Joules/Mol)
                                   98.16891 (Kcal/Mol)
 Warning -- explicit consideration of  11 degrees of freedom as
           vibrations may cause significant error
 Vibrational temperatures:    237.38   256.69   299.32   366.61   418.04
          (Kelvin)            505.28   556.41   574.85   643.18   758.26
                              839.56   926.98   995.30  1119.55  1174.90
                             1194.71  1247.48  1273.70  1298.70  1377.04
                             1394.80  1442.17  1458.01  1552.37  1609.75
                             1628.51  1664.69  1696.59  1714.09  1778.82
                             1832.31  1861.37  1876.53  1947.52  2013.24
                             2047.32  2133.79  2137.71  2149.14  2169.57
                             2178.15  4361.71  4369.73  4377.09  4415.55
                             4436.77  4445.47  4477.75  4479.83  4535.01
                             4551.56

 Zero-point correction=                           0.156442 (Hartree/Particle)
 Thermal correction to Energy=                    0.164616
 Thermal correction to Enthalpy=                  0.165560
 Thermal correction to Gibbs Free Energy=         0.124501
 Sum of electronic and zero-point Energies=           -422.852165
 Sum of electronic and thermal Energies=              -422.843991
 Sum of electronic and thermal Enthalpies=            -422.843047
 Sum of electronic and thermal Free Energies=         -422.884106

                     E (Thermal)             CV                S
                      KCal/Mol        Cal/Mol-Kelvin    Cal/Mol-Kelvin
 Total                  103.298             32.825             86.416
 Electronic               0.000              0.000              0.000
 Translational            0.889              2.981             40.409
 Rotational               0.889              2.981             28.229
 Vibrational            101.521             26.863             17.779
 Vibration     1          0.623              1.885              2.492
 Vibration     2          0.629              1.869              2.345
 Vibration     3          0.641              1.828              2.061
 Vibration     4          0.665              1.755              1.697
 Vibration     5          0.687              1.691              1.471
 Vibration     6          0.728              1.573              1.161
 Vibration     7          0.755              1.499              1.013
 Vibration     8          0.766              1.471              0.964
 Vibration     9          0.806              1.367              0.805
 Vibration    10          0.882              1.190              0.594
 Vibration    11          0.940              1.067              0.479

 Normal termination of Gaussian 09 at Mon Jan 27 16:50:11 2020.
