 Gaussian 09, Revision D.01,
 Gaussian 09:  ES64L-G09RevD.01 24-Apr-2013

 -----------------------------
 # b3lyp 6-31G(2df,p) opt Freq
 -----------------------------

 -----
 titel
 -----
 Symbolic Z-matrix:
 Charge =  0 Multiplicity = 1

 SCF Done:  E(RB3LYP) =  -423.125651310     A.U. after   13 cycles
 Optimization completed.
    -- Stationary point found.
 Normal termination of Gaussian 09 at Tue Jan 28 02:57:02 2020.

 ----------------------------------------------------------------------
 #N Geom=AllCheck Guess=TCheck SCRF=Check GenChk RB3LYP/6-31G(2df,p) Fr
 eq
 ----------------------------------------------------------------------

 Structure from the checkpoint file:  "/scratch/puck/g09_23d25308-1ce9-4760-8a17-4e1e47ab6f14/Gau-89752.chk"
 -----
 titel
 -----
 Charge =  0 Multiplicity = 1

                         Standard orientation:
 ---------------------------------------------------------------------
 Center     Atomic      Atomic             Coordinates (Angstroms)
 Number     Number       Type             X           Y           Z
 ---------------------------------------------------------------------
      1          6           0       -0.635560    2.211470   -0.242738
      2          6           0       -0.206999    0.771735   -0.079339
      3          6           0        1.048943    0.353915   -0.890356
      4          8           0        1.286905   -1.051126   -0.695070
      5          6           0        1.725651   -0.135149    0.324490
      6          6           0        0.510883    0.227978    1.210321
      7          6           0       -0.572673   -0.870749    1.371086
      8          6           0       -1.300468   -0.346952    0.084134
      9          8           0       -1.511380   -1.235565   -0.976366
     10          1           0       -1.109690    2.367281   -1.219437
     11          1           0       -1.358035    2.498352    0.528594
     12          1           0        0.216079    2.898519   -0.172249
     13          1           0        1.434441    0.786546   -1.807815
     14          1           0        2.776786   -0.186071    0.585644
     15          1           0        0.729338    0.888619    2.049256
     16          1           0       -0.212817   -1.898519    1.289752
     17          1           0       -1.165691   -0.773917    2.283501
     18          1           0       -2.276805    0.091996    0.313054
     19          1           0       -0.656462   -1.652773   -1.144400
 ---------------------------------------------------------------------

 SCF Done:  E(RB3LYP) =  -423.125651310     A.U. after    1 cycles

 The electronic state is 1-A.
 Alpha  occ. eigenvalues --  -19.16508 -19.12235 -10.24503 -10.24265 -10.22539
 Alpha  occ. eigenvalues --  -10.19407 -10.19232 -10.18350 -10.17703  -1.08691
 Alpha  occ. eigenvalues --   -1.00815  -0.84909  -0.73839  -0.71157  -0.65427
 Alpha  occ. eigenvalues --   -0.61240  -0.60107  -0.53721  -0.51533  -0.48532
 Alpha  occ. eigenvalues --   -0.46724  -0.43338  -0.42638  -0.41267  -0.40762
 Alpha  occ. eigenvalues --   -0.38910  -0.37363  -0.36981  -0.34067  -0.32569
 Alpha  occ. eigenvalues --   -0.29575  -0.27033  -0.26215  -0.24226
 Alpha virt. eigenvalues --    0.06863   0.07862   0.08963   0.10442   0.12766
 Alpha virt. eigenvalues --    0.13451   0.14178   0.14938   0.15887   0.16367
 Alpha virt. eigenvalues --    0.17146   0.18728   0.19511   0.20756   0.21275

 Mulliken charges:
               1
     1  C   -0.508839
     2  C    0.298163
     3  C   -0.034938
     4  O   -0.260640
     5  C    0.016120
     6  C   -0.120136
     7  C   -0.279531
     8  C    0.095369
     9  O   -0.441504
    10  H    0.127909
    11  H    0.120659
    12  H    0.116096
    13  H    0.104845
    14  H    0.107613
    15  H    0.074192
    16  H    0.107092
    17  H    0.100577
    18  H    0.083008
    19  H    0.293945
 Sum of Mulliken charges =   0.00000

 Dipole moment (field-independent basis, Debye):
    X=              1.4820    Y=              1.9798    Z=              1.2343  Tot=              2.7640
 Quadrupole moment (field-independent basis, Debye-Ang):
   XX=            -54.1579   YY=            -54.0586   ZZ=            -52.3666
   XY=             -1.0949   XZ=             -1.8430   YZ=             -1.7754

  Exact polarizability:  75.644  -1.698  72.765  -0.517  -2.617  72.534
 Approx polarizability: 108.614  -3.210 107.169   2.332   0.311 111.941

                      1                      2                      3
                      A                      A                      A
 Frequencies --    154.0778               209.7635               233.3304
 Red. masses --      3.4942                 1.5178                 1.6612
 Frc consts  --      0.0489                 0.0393                 0.0533
 IR Inten    --      2.8741                 0.1971                 0.7778

                      4                      5                      6
                      A                      A                      A
 Frequencies --    247.2775               272.7233               335.5269
 Red. masses --      4.2787                 2.6885                 3.7703
 Frc consts  --      0.1541                 0.1178                 0.2501
 IR Inten    --      0.1287                 1.1057                 4.1105

                      7                      8                      9
                      A                      A                      A
 Frequencies --    429.2753               491.6190               549.8993
 Red. masses --      2.5757                 2.4623                 2.4942
 Frc consts  --      0.2796                 0.3506                 0.4444
 IR Inten    --      2.4717                 6.5961                18.7228

                     10                     11                     12
                      A                      A                      A
 Frequencies --    566.5720               662.0166               689.5447
 Red. masses --      1.4530                 3.5574                 3.8145
 Frc consts  --      0.2748                 0.9186                 1.0686
 IR Inten    --     69.8617                 6.4425                 7.7978

                     13                     14                     15
                      A                      A                      A
 Frequencies --    774.5794               807.9772               819.4085
 Red. masses --      3.0007                 4.5884                 2.7242
 Frc consts  --      1.0607                 1.7649                 1.0777
 IR Inten    --      0.5003                 9.6802                 3.0993

                     16                     17                     18
                      A                      A                      A
 Frequencies --    843.7601               874.7013               897.8585
 Red. masses --      1.7449                 2.4712                 2.1778
 Frc consts  --      0.7319                 1.1140                 1.0344
 IR Inten    --     23.3255                 1.3367                 7.2700

                     19                     20                     21
                      A                      A                      A
 Frequencies --    933.5342               966.7106              1001.4756
 Red. masses --      1.8828                 1.8383                 2.1304
 Frc consts  --      0.9668                 1.0122                 1.2589
 IR Inten    --      6.9607                 5.1094                17.4402

                     22                     23                     24
                      A                      A                      A
 Frequencies --   1026.7771              1057.5242              1088.3228
 Red. masses --      2.4380                 1.2875                 2.2016
 Frc consts  --      1.5144                 0.8484                 1.5364
 IR Inten    --      5.1945                 0.4257                 9.4114

                     25                     26                     27
                      A                      A                      A
 Frequencies --   1098.3603              1145.9924              1163.2537
 Red. masses --      1.5207                 2.1697                 1.9223
 Frc consts  --      1.0809                 1.6788                 1.5326
 IR Inten    --     16.8059               106.9054                 2.4336

                     28                     29                     30
                      A                      A                      A
 Frequencies --   1171.9077              1221.3597              1222.4432
 Red. masses --      1.5828                 3.0308                 1.3155
 Frc consts  --      1.2807                 2.6638                 1.1582
 IR Inten    --     17.0421                 4.7911                 7.9662

                     31                     32                     33
                      A                      A                      A
 Frequencies --   1239.4240              1253.7788              1290.0047
 Red. masses --      1.3084                 1.7647                 1.6431
 Frc consts  --      1.1842                 1.6344                 1.6110
 IR Inten    --      1.8862                 5.8339                 3.1034

                     34                     35                     36
                      A                      A                      A
 Frequencies --   1310.4548              1337.0433              1380.1870
 Red. masses --      1.5304                 2.3684                 2.9504
 Frc consts  --      1.5484                 2.4945                 3.3114
 IR Inten    --      2.8521                 7.8247                 6.4196

                     37                     38                     39
                      A                      A                      A
 Frequencies --   1409.3133              1452.5300              1466.8696
 Red. masses --      1.2657                 1.2084                 1.1210
 Frc consts  --      1.4812                 1.5022                 1.4212
 IR Inten    --      0.9835                80.6509                 4.6745

                     40                     41                     42
                      A                      A                      A
 Frequencies --   1490.9591              1493.0919              3018.4927
 Red. masses --      1.0515                 1.0497                 1.0355
 Frc consts  --      1.3772                 1.3787                 5.5586
 IR Inten    --      5.2926                 8.0592                27.8250

                     43                     44                     45
                      A                      A                      A
 Frequencies --   3055.7726              3067.6991              3080.8741
 Red. masses --      1.0844                 1.0617                 1.1007
 Frc consts  --      5.9659                 5.8868                 6.1554
 IR Inten    --     29.6455                31.6647                21.4367

                     46                     47                     48
                      A                      A                      A
 Frequencies --   3093.0218              3113.6197              3126.2339
 Red. masses --      1.1005                 1.0916                 1.1044
 Frc consts  --      6.2032                 6.2350                 6.3593
 IR Inten    --     21.9872                11.8274                27.6207

                     49                     50                     51
                      A                      A                      A
 Frequencies --   3166.5734              3184.0871              3767.7909
 Red. masses --      1.0879                 1.1005                 1.0646
 Frc consts  --      6.4271                 6.5737                 8.9046
 IR Inten    --     17.9904                26.4353                42.3330

 - Thermochemistry -
 -------------------
 Temperature   298.150 Kelvin.  Pressure   1.00000 Atm.
 Atom     1 has atomic number  6 and mass  12.00000

 Molecular mass:   126.06808 amu.
 Principal axes and moments of inertia in atomic units:
                           1         2         3
     Eigenvalues --   863.79427 921.378621125.06682
           X            0.99095  -0.13229  -0.02264
           Y            0.13050   0.98913  -0.06781
           Z            0.03137   0.06424   0.99744
 This molecule is an asymmetric top.
 Rotational symmetry number  1.
 Warning -- assumption of classical behavior for rotation
           may cause significant error
 Rotational temperatures (Kelvin)      0.10027     0.09400     0.07699
 Rotational constants (GHZ):           2.08932     1.95874     1.60412
 Zero-point vibrational energy     417229.9 (Joules/Mol)
                                   99.72034 (Kcal/Mol)
 Warning -- explicit consideration of  10 degrees of freedom as
           vibrations may cause significant error
 Vibrational temperatures:    221.68   301.80   335.71   355.78   392.39
          (Kelvin)            482.75   617.63   707.33   791.18   815.17
                              952.49   992.10  1114.45  1162.50  1178.94
                             1213.98  1258.50  1291.82  1343.15  1390.88
                             1440.90  1477.30  1521.54  1565.85  1580.29
                             1648.83  1673.66  1686.11  1757.26  1758.82
                             1783.25  1803.91  1856.03  1885.45  1923.70
                             1985.78  2027.69  2089.86  2110.50  2145.15
                             2148.22  4342.93  4396.57  4413.73  4432.69
                             4450.16  4479.80  4497.95  4555.99  4581.19
                             5421.00

 Zero-point correction=                           0.158914 (Hartree/Particle)
 Thermal correction to Energy=                    0.166732
 Thermal correction to Enthalpy=                  0.167676
 Thermal correction to Gibbs Free Energy=         0.127194
 Sum of electronic and zero-point Energies=           -422.966737
 Sum of electronic and thermal Energies=              -422.958919
 Sum of electronic and thermal Enthalpies=            -422.957975
 Sum of electronic and thermal Free Energies=         -422.998457

                     E (Thermal)             CV                S
                      KCal/Mol        Cal/Mol-Kelvin    Cal/Mol-Kelvin
 Total                  104.626             31.700             85.201
 Electronic               0.000              0.000              0.000
 Translational            0.889              2.981             40.409
 Rotational               0.889              2.981             28.284
 Vibrational            102.848             25.739             16.508
 Vibration     1          0.620              1.898              2.621
 Vibration     2          0.642              1.826              2.046
 Vibration     3          0.654              1.790              1.853
 Vibration     4          0.661              1.767              1.750
 Vibration     5          0.676              1.724              1.579
 Vibration     6          0.717              1.605              1.233
 Vibration     7          0.791              1.406              0.861
 Vibration     8          0.847              1.269              0.679
 Vibration     9          0.905              1.140              0.544
 Vibration    10          0.922              1.104              0.511

 Normal termination of Gaussian 09 at Tue Jan 28 03:54:16 2020.
