 Gaussian 09, Revision D.01,
 Gaussian 09:  ES64L-G09RevD.01 24-Apr-2013

 -----------------------------
 # b3lyp 6-31G(2df,p) opt Freq
 -----------------------------

 -----
 titel
 -----
 Symbolic Z-matrix:
 Charge =  0 Multiplicity = 1

 SCF Done:  E(RB3LYP) =  -423.099376246     A.U. after   14 cycles
 Optimization completed.
    -- Stationary point found.
 Normal termination of Gaussian 09 at Tue Jan 28 09:18:29 2020.

 ----------------------------------------------------------------------
 #N Geom=AllCheck Guess=TCheck SCRF=Check GenChk RB3LYP/6-31G(2df,p) Fr
 eq
 ----------------------------------------------------------------------

 Structure from the checkpoint file:  "/scratch/puck/g09_7d97c6b8-373e-4015-967f-f4997f3d91e1/Gau-46251.chk"
 -----
 titel
 -----
 Charge =  0 Multiplicity = 1

                         Standard orientation:
 ---------------------------------------------------------------------
 Center     Atomic      Atomic             Coordinates (Angstroms)
 Number     Number       Type             X           Y           Z
 ---------------------------------------------------------------------
      1          6           0       -2.935854   -0.261384    0.073900
      2          6           0       -1.740739    0.500770   -0.516514
      3          6           0       -0.414200    0.017786   -0.001110
      4          6           0        0.190914    0.423348    1.336010
      5          6           0        0.955565    0.693765    0.082500
      6          8           0        1.372703    1.969511   -0.241130
      7          6           0        1.616060   -0.616616   -0.476474
      8          8           0        1.308053   -1.716975    0.392096
      9          6           0        0.312482   -1.264471   -0.541550
     10          1           0       -3.881133    0.107050   -0.336862
     11          1           0       -2.870444   -1.332310   -0.146055
     12          1           0       -2.969683   -0.149604    1.162043
     13          1           0       -1.762833    0.417489   -1.612438
     14          1           0       -1.837570    1.570312   -0.292537
     15          1           0       -0.262228    1.317694    1.754053
     16          1           0        0.524832   -0.314146    2.055334
     17          1           0        1.300551    2.085819   -1.195398
     18          1           0        2.499796   -0.689117   -1.101313
     19          1           0       -0.092708   -1.992664   -1.235128
 ---------------------------------------------------------------------

 SCF Done:  E(RB3LYP) =  -423.099376246     A.U. after    1 cycles

 The electronic state is 1-A.
 Alpha  occ. eigenvalues --  -19.15681 -19.15386 -10.24093 -10.23799 -10.23653
 Alpha  occ. eigenvalues --  -10.19501 -10.19111 -10.18215 -10.17643  -1.07889
 Alpha  occ. eigenvalues --   -1.03871  -0.86531  -0.76467  -0.69405  -0.65401
 Alpha  occ. eigenvalues --   -0.62048  -0.57254  -0.56450  -0.50906  -0.49062
 Alpha  occ. eigenvalues --   -0.46967  -0.44343  -0.43008  -0.40260  -0.39683
 Alpha  occ. eigenvalues --   -0.37858  -0.37304  -0.36189  -0.34716  -0.33922
 Alpha  occ. eigenvalues --   -0.31970  -0.28206  -0.25194  -0.21846
 Alpha virt. eigenvalues --    0.05805   0.06734   0.09418   0.11049   0.11815
 Alpha virt. eigenvalues --    0.13320   0.14360   0.15295   0.16067   0.17303
 Alpha virt. eigenvalues --    0.17511   0.18594   0.19447   0.20086   0.21576

 Mulliken charges:
               1
     1  C   -0.369618
     2  C   -0.301028
     3  C    0.223468
     4  C   -0.360608
     5  C    0.290773
     6  O   -0.448058
     7  C   -0.067918
     8  O   -0.235114
     9  C   -0.029233
    10  H    0.110993
    11  H    0.117586
    12  H    0.123592
    13  H    0.091398
    14  H    0.106203
    15  H    0.116563
    16  H    0.133037
    17  H    0.287434
    18  H    0.106168
    19  H    0.104363
 Sum of Mulliken charges =   0.00000

 Dipole moment (field-independent basis, Debye):
    X=             -1.1189    Y=              0.6282    Z=             -2.3593  Tot=              2.6857
 Quadrupole moment (field-independent basis, Debye-Ang):
   XX=            -53.6933   YY=            -56.6970   ZZ=            -49.7780
   XY=              0.3906   XZ=             -3.3595   YZ=             -0.2291

  Exact polarizability:  83.629   0.799  72.129  -1.215   1.703  68.336
 Approx polarizability: 114.239   4.066 109.829   0.944  -0.278 105.925

                      1                      2                      3
                      A                      A                      A
 Frequencies --     73.8682               113.2287               202.2952
 Red. masses --      2.4908                 3.3737                 1.2996
 Frc consts  --      0.0080                 0.0255                 0.0313
 IR Inten    --      0.4762                 1.4389                 1.0322

                      4                      5                      6
                      A                      A                      A
 Frequencies --    234.8709               289.0845               322.2580
 Red. masses --      2.7839                 2.1605                 2.4414
 Frc consts  --      0.0905                 0.1064                 0.1494
 IR Inten    --      1.5499                 6.5033                 2.4946

                      7                      8                      9
                      A                      A                      A
 Frequencies --    335.7433               366.6024               437.4885
 Red. masses --      1.3129                 4.0963                 2.9109
 Frc consts  --      0.0872                 0.3244                 0.3283
 IR Inten    --     95.9809                 5.6520                 9.1786

                     10                     11                     12
                      A                      A                      A
 Frequencies --    525.8307               557.8816               598.5481
 Red. masses --      3.5119                 4.1170                 3.2930
 Frc consts  --      0.5721                 0.7549                 0.6951
 IR Inten    --      3.2800                 5.8905                 9.4483

                     13                     14                     15
                      A                      A                      A
 Frequencies --    748.3052               775.7292               786.5000
 Red. masses --      3.6833                 1.3928                 3.0488
 Frc consts  --      1.2152                 0.4938                 1.1112
 IR Inten    --     18.8232                 3.7604                 6.0701

                     16                     17                     18
                      A                      A                      A
 Frequencies --    805.0406               815.1140               878.5913
 Red. masses --      2.4445                 4.2827                 2.0308
 Frc consts  --      0.9334                 1.6765                 0.9236
 IR Inten    --      8.3739                 2.3015                19.9741

                     19                     20                     21
                      A                      A                      A
 Frequencies --    893.2583               969.5594               975.5322
 Red. masses --      2.0494                 3.0478                 2.4359
 Frc consts  --      0.9635                 1.6880                 1.3658
 IR Inten    --      1.3688                16.5065                13.4390

                     22                     23                     24
                      A                      A                      A
 Frequencies --    979.9630              1009.4996              1041.6588
 Red. masses --      1.8939                 1.3915                 1.3223
 Frc consts  --      1.0716                 0.8355                 0.8453
 IR Inten    --      7.7777                 1.0942                 0.8896

                     25                     26                     27
                      A                      A                      A
 Frequencies --   1088.1633              1099.1236              1126.0749
 Red. masses --      1.6061                 1.5549                 1.9230
 Frc consts  --      1.1205                 1.1068                 1.4367
 IR Inten    --      0.3535                 2.9638                13.7422

                     28                     29                     30
                      A                      A                      A
 Frequencies --   1181.4152              1194.0902              1233.5158
 Red. masses --      1.7598                 1.4324                 1.6402
 Frc consts  --      1.4472                 1.2033                 1.4704
 IR Inten    --     12.3649                 1.0916                28.9656

                     31                     32                     33
                      A                      A                      A
 Frequencies --   1303.1069              1315.1513              1327.2387
 Red. masses --      1.8145                 1.4690                 1.7432
 Frc consts  --      1.8154                 1.4970                 1.8092
 IR Inten    --    124.3672                18.5235                17.5872

                     34                     35                     36
                      A                      A                      A
 Frequencies --   1367.7353              1373.8542              1408.9054
 Red. masses --      3.9466                 2.0519                 1.4044
 Frc consts  --      4.3499                 2.2818                 1.6425
 IR Inten    --     10.3623                 8.4968                 5.8100

                     37                     38                     39
                      A                      A                      A
 Frequencies --   1410.6022              1480.2723              1492.6952
 Red. masses --      1.3197                 1.1544                 1.8089
 Frc consts  --      1.5472                 1.4903                 2.3747
 IR Inten    --      2.2708                 6.6761                17.8431

                     40                     41                     42
                      A                      A                      A
 Frequencies --   1497.4024              1505.7398              3004.4720
 Red. masses --      1.0549                 1.0803                 1.0649
 Frc consts  --      1.3935                 1.4430                 5.6635
 IR Inten    --      5.1782                 2.7797                34.6102

                     43                     44                     45
                      A                      A                      A
 Frequencies --   3034.1983              3049.0380              3102.2751
 Red. masses --      1.0351                 1.0951                 1.1015
 Frc consts  --      5.6147                 5.9983                 6.2457
 IR Inten    --     26.2202                13.3474                35.9738

                     46                     47                     48
                      A                      A                      A
 Frequencies --   3109.4903              3134.1984              3169.6812
 Red. masses --      1.1022                 1.0538                 1.0872
 Frc consts  --      6.2791                 6.0990                 6.4358
 IR Inten    --     30.5675                10.6127                16.9926

                     49                     50                     51
                      A                      A                      A
 Frequencies --   3185.1825              3227.7555              3784.9752
 Red. masses --      1.1020                 1.1156                 1.0661
 Frc consts  --      6.5872                 6.8476                 8.9988
 IR Inten    --     18.7500                 3.1215                17.3316

 - Thermochemistry -
 -------------------
 Temperature   298.150 Kelvin.  Pressure   1.00000 Atm.
 Atom     1 has atomic number  6 and mass  12.00000

 Molecular mass:   126.06808 amu.
 Principal axes and moments of inertia in atomic units:
                           1         2         3
     Eigenvalues --   750.035571214.150311606.16852
           X            0.99995   0.00644  -0.00761
           Y           -0.00636   0.99992   0.01107
           Z            0.00768  -0.01102   0.99991
 This molecule is an asymmetric top.
 Rotational symmetry number  1.
 Warning -- assumption of classical behavior for rotation
           may cause significant error
 Rotational temperatures (Kelvin)      0.11548     0.07134     0.05393
 Rotational constants (GHZ):           2.40621     1.48642     1.12363
 Zero-point vibrational energy     412369.5 (Joules/Mol)
                                   98.55869 (Kcal/Mol)
 Warning -- explicit consideration of  12 degrees of freedom as
           vibrations may cause significant error
 Vibrational temperatures:    106.28   162.91   291.06   337.93   415.93
          (Kelvin)            463.66   483.06   527.46   629.45   756.55
                              802.67   861.18  1076.64  1116.10  1131.60
                             1158.27  1172.77  1264.10  1285.20  1394.98
                             1403.57  1409.95  1452.44  1498.71  1565.62
                             1581.39  1620.17  1699.79  1718.03  1774.75
                             1874.88  1892.21  1909.60  1967.86  1976.67
                             2027.10  2029.54  2129.78  2147.65  2154.43
                             2166.42  4322.76  4365.53  4386.88  4463.48
                             4473.86  4509.41  4560.46  4582.76  4644.01
                             5445.73

 Zero-point correction=                           0.157063 (Hartree/Particle)
 Thermal correction to Energy=                    0.165753
 Thermal correction to Enthalpy=                  0.166697
 Thermal correction to Gibbs Free Energy=         0.123797
 Sum of electronic and zero-point Energies=           -422.942313
 Sum of electronic and thermal Energies=              -422.933624
 Sum of electronic and thermal Enthalpies=            -422.932679
 Sum of electronic and thermal Free Energies=         -422.975579

                     E (Thermal)             CV                S
                      KCal/Mol        Cal/Mol-Kelvin    Cal/Mol-Kelvin
 Total                  104.011             33.636             90.291
 Electronic               0.000              0.000              0.000
 Translational            0.889              2.981             40.409
 Rotational               0.889              2.981             28.771
 Vibrational            102.234             27.675             21.111
 Vibration     1          0.599              1.966              4.048
 Vibration     2          0.607              1.938              3.213
 Vibration     3          0.639              1.837              2.112
 Vibration     4          0.655              1.787              1.841
 Vibration     5          0.686              1.694              1.479
 Vibration     6          0.707              1.631              1.299
 Vibration     7          0.717              1.604              1.232
 Vibration     8          0.740              1.541              1.094
 Vibration     9          0.798              1.388              0.835
 Vibration    10          0.881              1.193              0.597
 Vibration    11          0.913              1.122              0.528
 Vibration    12          0.957              1.035              0.452

 Normal termination of Gaussian 09 at Tue Jan 28 10:04:09 2020.
