 Gaussian 09, Revision D.01,
 Gaussian 09:  ES64L-G09RevD.01 24-Apr-2013

 -----------------------------
 # b3lyp 6-31G(2df,p) opt Freq
 -----------------------------

 -----
 titel
 -----
 Symbolic Z-matrix:
 Charge =  0 Multiplicity = 1

 SCF Done:  E(RB3LYP) =  -423.208884668     A.U. after   14 cycles
 Optimization completed.
    -- Stationary point found.
 Normal termination of Gaussian 09 at Mon Jan 27 18:36:55 2020.

 ----------------------------------------------------------------------
 #N Geom=AllCheck Guess=TCheck SCRF=Check GenChk RB3LYP/6-31G(2df,p) Fr
 eq
 ----------------------------------------------------------------------

 Structure from the checkpoint file:  "/scratch/puck/g09_0e3cac2d-132e-4503-b0eb-3ee5a5e2acac/Gau-36491.chk"
 -----
 titel
 -----
 Charge =  0 Multiplicity = 1

                         Standard orientation:
 ---------------------------------------------------------------------
 Center     Atomic      Atomic             Coordinates (Angstroms)
 Number     Number       Type             X           Y           Z
 ---------------------------------------------------------------------
      1          6           0        2.189753    0.410599    0.955552
      2          6           0        0.945349    0.229897    0.110809
      3          6           0        0.258663    1.533241   -0.331188
      4          6           0       -1.187563    1.135823   -0.667698
      5          6           0       -1.491301   -0.044409    0.262767
      6          8           0       -2.575921   -0.368210    0.672800
      7          6           0       -0.172284   -0.735238    0.596293
      8          6           0        0.328207   -1.649367   -0.546782
      9          8           0        1.207604   -0.625764   -1.045001
     10          1           0        2.945903    0.971651    0.396210
     11          1           0        1.962815    0.962140    1.873823
     12          1           0        2.620121   -0.557161    1.228496
     13          1           0        0.273667    2.249048    0.499126
     14          1           0        0.794845    1.983288   -1.171021
     15          1           0       -1.927818    1.928545   -0.548085
     16          1           0       -1.257559    0.770572   -1.700054
     17          1           0       -0.154478   -1.143015    1.606280
     18          1           0        0.877186   -2.531959   -0.195309
     19          1           0       -0.413082   -1.964602   -1.290370
 ---------------------------------------------------------------------

 SCF Done:  E(RB3LYP) =  -423.208884668     A.U. after    1 cycles

 The electronic state is 1-A.
 Alpha  occ. eigenvalues --  -19.13821 -19.13273 -10.26979 -10.24896 -10.24329
 Alpha  occ. eigenvalues --  -10.19783 -10.19287 -10.19262 -10.18523  -1.04918
 Alpha  occ. eigenvalues --   -1.03989  -0.82709  -0.75602  -0.74419  -0.65961
 Alpha  occ. eigenvalues --   -0.64587  -0.55798  -0.53176  -0.49787  -0.49081
 Alpha  occ. eigenvalues --   -0.46189  -0.44229  -0.43451  -0.41828  -0.41026
 Alpha  occ. eigenvalues --   -0.40592  -0.39384  -0.37768  -0.35290  -0.34601
 Alpha  occ. eigenvalues --   -0.31796  -0.31434  -0.25910  -0.23983
 Alpha virt. eigenvalues --   -0.02219   0.07406   0.08866   0.10798   0.11642
 Alpha virt. eigenvalues --    0.12687   0.14029   0.14756   0.15798   0.16102
 Alpha virt. eigenvalues --    0.18197   0.18341   0.19916   0.20509   0.21709

 Mulliken charges:
               1
     1  C   -0.457683
     2  C    0.425577
     3  C   -0.257400
     4  C   -0.333052
     5  C    0.404569
     6  O   -0.319618
     7  C   -0.223658
     8  C   -0.092801
     9  O   -0.326704
    10  H    0.129261
    11  H    0.119080
    12  H    0.123262
    13  H    0.105630
    14  H    0.116678
    15  H    0.127000
    16  H    0.140831
    17  H    0.096018
    18  H    0.109963
    19  H    0.113048
 Sum of Mulliken charges =   0.00000

 Dipole moment (field-independent basis, Debye):
    X=              1.7814    Y=              0.7447    Z=              0.3190  Tot=              1.9570
 Quadrupole moment (field-independent basis, Debye-Ang):
   XX=            -62.5423   YY=            -49.3420   ZZ=            -53.6192
   XY=             -1.2071   XZ=              5.6598   YZ=             -0.0921

  Exact polarizability:  81.590   0.701  76.564   1.274  -1.133  65.444
 Approx polarizability: 116.162   3.449 107.759  -6.103  -1.449 102.219

                      1                      2                      3
                      A                      A                      A
 Frequencies --     83.7241               146.1618               210.4963
 Red. masses --      4.4104                 2.3231                 1.4537
 Frc consts  --      0.0182                 0.0292                 0.0380
 IR Inten    --      5.2254                 3.5095                 0.2421

                      4                      5                      6
                      A                      A                      A
 Frequencies --    224.1711               275.0265               342.3765
 Red. masses --      1.4585                 3.0263                 2.8513
 Frc consts  --      0.0432                 0.1349                 0.1969
 IR Inten    --      0.2906                 0.4995                 1.5552

                      7                      8                      9
                      A                      A                      A
 Frequencies --    367.1013               455.0151               515.6338
 Red. masses --      2.7584                 3.9614                 2.5004
 Frc consts  --      0.2190                 0.4832                 0.3917
 IR Inten    --      8.3458                 5.1217                 3.0345

                     10                     11                     12
                      A                      A                      A
 Frequencies --    562.2003               638.5926               678.0934
 Red. masses --      3.5555                 2.8253                 4.4135
 Frc consts  --      0.6621                 0.6788                 1.1957
 IR Inten    --      1.9071                 0.4569                 1.3402

                     13                     14                     15
                      A                      A                      A
 Frequencies --    748.7012               801.7997               866.1583
 Red. masses --      3.0112                 1.8510                 3.1838
 Frc consts  --      0.9945                 0.7011                 1.4073
 IR Inten    --      2.8418                 4.9622                19.9315

                     16                     17                     18
                      A                      A                      A
 Frequencies --    882.4071               923.7337               958.3309
 Red. masses --      2.1335                 1.8564                 1.5778
 Frc consts  --      0.9788                 0.9333                 0.8538
 IR Inten    --      5.0001                 9.7997                 2.9658

                     19                     20                     21
                      A                      A                      A
 Frequencies --    985.3398               996.9855              1012.1736
 Red. masses --      2.9216                 1.9418                 1.9046
 Frc consts  --      1.6713                 1.1372                 1.1497
 IR Inten    --     21.8097                 5.3974                10.3535

                     22                     23                     24
                      A                      A                      A
 Frequencies --   1035.9774              1105.9257              1112.4963
 Red. masses --      3.5107                 2.5093                 1.7534
 Frc consts  --      2.2200                 1.8083                 1.2786
 IR Inten    --     71.0902                 0.9693                11.2428

                     25                     26                     27
                      A                      A                      A
 Frequencies --   1160.6245              1174.5992              1185.1043
 Red. masses --      1.3527                 1.7539                 1.6520
 Frc consts  --      1.0736                 1.4257                 1.3670
 IR Inten    --     14.2221                24.0908                 1.3853

                     28                     29                     30
                      A                      A                      A
 Frequencies --   1207.4709              1235.1155              1269.3414
 Red. masses --      2.0880                 1.7746                 1.9327
 Frc consts  --      1.7936                 1.5950                 1.8347
 IR Inten    --     27.2858                13.4078                22.1463

                     31                     32                     33
                      A                      A                      A
 Frequencies --   1281.9351              1296.4056              1347.4822
 Red. masses --      1.8107                 1.4291                 1.4207
 Frc consts  --      1.7532                 1.4151                 1.5199
 IR Inten    --     19.0424                 2.6045                 5.6851

                     34                     35                     36
                      A                      A                      A
 Frequencies --   1359.1684              1410.1977              1451.7265
 Red. masses --      1.8269                 1.3145                 1.0805
 Frc consts  --      1.9885                 1.5401                 1.3417
 IR Inten    --      6.8987                 9.3635                 8.1932

                     37                     38                     39
                      A                      A                      A
 Frequencies --   1476.6151              1483.7448              1490.4742
 Red. masses --      1.0984                 1.0578                 1.0518
 Frc consts  --      1.4111                 1.3721                 1.3767
 IR Inten    --      3.1183                 2.8888                 3.5473

                     40                     41                     42
                      A                      A                      A
 Frequencies --   1526.9650              1843.9571              3014.6789
 Red. masses --      1.0952                12.3088                 1.0561
 Frc consts  --      1.5045                24.6586                 5.6550
 IR Inten    --      0.1052               223.3600                72.4297

                     43                     44                     45
                      A                      A                      A
 Frequencies --   3033.6422              3041.0579              3044.4135
 Red. masses --      1.0385                 1.0658                 1.0614
 Frc consts  --      5.6308                 5.8072                 5.7958
 IR Inten    --      8.2930                 5.5357                28.4594

                     46                     47                     48
                      A                      A                      A
 Frequencies --   3060.2527              3098.8139              3106.3114
 Red. masses --      1.1097                 1.0998                 1.1010
 Frc consts  --      6.1230                 6.2222                 6.2593
 IR Inten    --     31.0760                 5.0901                22.3984

                     49                     50                     51
                      A                      A                      A
 Frequencies --   3113.4691              3123.4592              3125.3970
 Red. masses --      1.1018                 1.0956                 1.0893
 Frc consts  --      6.2927                 6.2978                 6.2693
 IR Inten    --     17.9122                12.6485                12.2169

 - Thermochemistry -
 -------------------
 Temperature   298.150 Kelvin.  Pressure   1.00000 Atm.
 Atom     1 has atomic number  6 and mass  12.00000

 Molecular mass:   126.06808 amu.
 Principal axes and moments of inertia in atomic units:
                           1         2         3
     Eigenvalues --   664.771481198.551121399.16827
           X            0.99869  -0.00102   0.05120
           Y            0.00181   0.99988  -0.01534
           Z           -0.05117   0.01541   0.99857
 This molecule is an asymmetric top.
 Rotational symmetry number  1.
 Warning -- assumption of classical behavior for rotation
           may cause significant error
 Rotational temperatures (Kelvin)      0.13029     0.07227     0.06190
 Rotational constants (GHZ):           2.71483     1.50577     1.28987
 Zero-point vibrational energy     418041.3 (Joules/Mol)
                                   99.91426 (Kcal/Mol)
 Warning -- explicit consideration of  10 degrees of freedom as
           vibrations may cause significant error
 Vibrational temperatures:    120.46   210.29   302.86   322.53   395.70
          (Kelvin)            492.60   528.18   654.66   741.88   808.88
                              918.79   975.62  1077.21  1153.61  1246.21
                             1269.59  1329.05  1378.82  1417.68  1434.44
                             1456.29  1490.54  1591.18  1600.63  1669.88
                             1689.98  1705.10  1737.28  1777.05  1826.30
                             1844.42  1865.24  1938.72  1955.54  2028.96
                             2088.71  2124.52  2134.78  2144.46  2196.96
                             2653.04  4337.45  4364.73  4375.40  4380.23
                             4403.02  4458.50  4469.28  4479.58  4493.96
                             4496.74

 Zero-point correction=                           0.159224 (Hartree/Particle)
 Thermal correction to Energy=                    0.167373
 Thermal correction to Enthalpy=                  0.168317
 Thermal correction to Gibbs Free Energy=         0.126593
 Sum of electronic and zero-point Energies=           -423.049661
 Sum of electronic and thermal Energies=              -423.041512
 Sum of electronic and thermal Enthalpies=            -423.040568
 Sum of electronic and thermal Free Energies=         -423.082292

                     E (Thermal)             CV                S
                      KCal/Mol        Cal/Mol-Kelvin    Cal/Mol-Kelvin
 Total                  105.028             31.475             87.816
 Electronic               0.000              0.000              0.000
 Translational            0.889              2.981             40.409
 Rotational               0.889              2.981             28.502
 Vibrational            103.250             25.513             18.906
 Vibration     1          0.601              1.960              3.802
 Vibration     2          0.617              1.907              2.722
 Vibration     3          0.643              1.825              2.039
 Vibration     4          0.649              1.804              1.925
 Vibration     5          0.677              1.720              1.564
 Vibration     6          0.722              1.591              1.201
 Vibration     7          0.740              1.540              1.092
 Vibration     8          0.813              1.350              0.781
 Vibration     9          0.871              1.215              0.620
 Vibration    10          0.918              1.113              0.519

 Optimization completed.
    -- Stationary point found.
 Normal termination of Gaussian 09 at Mon Jan 27 19:23:44 2020.
