 Gaussian 09, Revision D.01,
 Gaussian 09:  ES64L-G09RevD.01 24-Apr-2013

 -----------------------------
 # b3lyp 6-31G(2df,p) opt Freq
 -----------------------------

 -----
 titel
 -----
 Symbolic Z-matrix:
 Charge =  0 Multiplicity = 1

 SCF Done:  E(RB3LYP) =  -423.139352995     A.U. after   13 cycles
 Optimization completed.
    -- Stationary point found.
 Normal termination of Gaussian 09 at Mon Jan 27 22:52:59 2020.

 ----------------------------------------------------------------------
 #N Geom=AllCheck Guess=TCheck SCRF=Check GenChk RB3LYP/6-31G(2df,p) Fr
 eq
 ----------------------------------------------------------------------

 Structure from the checkpoint file:  "/scratch/puck/g09_b1fd800f-905b-47c5-95fb-9b2d3c4a5030/Gau-75003.chk"
 -----
 titel
 -----
 Charge =  0 Multiplicity = 1

                         Standard orientation:
 ---------------------------------------------------------------------
 Center     Atomic      Atomic             Coordinates (Angstroms)
 Number     Number       Type             X           Y           Z
 ---------------------------------------------------------------------
      1          8           0       -2.732961   -0.459548    0.153606
      2          6           0       -1.696183    0.487575    0.076569
      3          6           0       -0.549726    0.312460   -0.961024
      4          6           0        0.320810    1.178587   -0.000353
      5          6           0        1.831933    0.996597   -0.113572
      6          6           0        2.184427   -0.441946    0.270326
      7          8           0        1.233479   -1.364117   -0.241738
      8          6           0       -0.091617   -0.920574   -0.120177
      9          6           0       -0.454364    0.183232    0.936385
     10          1           0       -3.354327   -0.282173   -0.559218
     11          1           0       -2.076224    1.513986    0.169277
     12          1           0       -0.604119    0.395559   -2.048542
     13          1           0        0.020628    2.228705    0.080668
     14          1           0        2.153333    1.221429   -1.138006
     15          1           0        2.362311    1.689851    0.548977
     16          1           0        3.160499   -0.750023   -0.114263
     17          1           0        2.214799   -0.525007    1.368092
     18          1           0       -0.734314   -1.797684   -0.155594
     19          1           0       -0.418400    0.119088    2.024750
 ---------------------------------------------------------------------

 SCF Done:  E(RB3LYP) =  -423.139352995     A.U. after    1 cycles

 The electronic state is 1-A.
 Alpha  occ. eigenvalues --  -19.13979 -19.13315 -10.23711 -10.22892 -10.22339
 Alpha  occ. eigenvalues --  -10.19722 -10.19459 -10.18856 -10.18222  -1.03493
 Alpha  occ. eigenvalues --   -1.02327  -0.89711  -0.76951  -0.67368  -0.63604
 Alpha  occ. eigenvalues --   -0.62876  -0.60381  -0.51470  -0.50334  -0.49766
 Alpha  occ. eigenvalues --   -0.49100  -0.45099  -0.43207  -0.40368  -0.39373
 Alpha  occ. eigenvalues --   -0.38418  -0.36840  -0.34545  -0.31921  -0.31223
 Alpha  occ. eigenvalues --   -0.30487  -0.28244  -0.26387  -0.23557
 Alpha virt. eigenvalues --    0.07806   0.09579   0.12156   0.12934   0.13355
 Alpha virt. eigenvalues --    0.14297   0.14349   0.14918   0.16150   0.16670
 Alpha virt. eigenvalues --    0.18557   0.19116   0.19679   0.21894   0.22445

 Mulliken charges:
               1
     1  O   -0.443259
     2  C    0.137961
     3  C   -0.150313
     4  C   -0.002994
     5  C   -0.260876
     6  C   -0.064972
     7  O   -0.281728
     8  C    0.164731
     9  C   -0.145086
    10  H    0.284842
    11  H    0.065108
    12  H    0.064131
    13  H    0.061123
    14  H    0.103826
    15  H    0.099254
    16  H    0.104076
    17  H    0.092925
    18  H    0.096390
    19  H    0.074861
 Sum of Mulliken charges =   0.00000

 Dipole moment (field-independent basis, Debye):
    X=             -0.2388    Y=              2.0540    Z=             -0.5922  Tot=              2.1510
 Quadrupole moment (field-independent basis, Debye-Ang):
   XX=            -48.9409   YY=            -55.7555   ZZ=            -52.0431
   XY=              0.1690   XZ=              4.9384   YZ=             -0.1597

  Exact polarizability:  88.357   1.192  69.185   2.164  -0.398  66.331
 Approx polarizability: 115.433   1.844 106.329   1.891   0.300 106.052

                      1                      2                      3
                      A                      A                      A
 Frequencies --    197.7485               233.7536               246.5703
 Red. masses --      2.7620                 3.0214                 2.0825
 Frc consts  --      0.0636                 0.0973                 0.0746
 IR Inten    --      8.4846                 2.9515                 2.6746

                      4                      5                      6
                      A                      A                      A
 Frequencies --    272.7661               354.0229               441.8973
 Red. masses --      1.2975                 3.7629                 2.7061
 Frc consts  --      0.0569                 0.2779                 0.3113
 IR Inten    --     86.2295                13.4691                 3.6370

                      7                      8                      9
                      A                      A                      A
 Frequencies --    461.7189               530.2717               586.2477
 Red. masses --      4.6593                 6.6256                 3.9833
 Frc consts  --      0.5852                 1.0977                 0.8066
 IR Inten    --      3.4913                 2.4711                 5.0476

                     10                     11                     12
                      A                      A                      A
 Frequencies --    702.4484               761.5523               814.1974
 Red. masses --      2.8060                 2.9683                 2.6925
 Frc consts  --      0.8158                 1.0143                 1.0516
 IR Inten    --      7.5970                 0.9171                 5.2186

                     13                     14                     15
                      A                      A                      A
 Frequencies --    830.1862               845.6401               911.2323
 Red. masses --      2.6789                 2.4897                 1.9720
 Frc consts  --      1.0878                 1.0490                 0.9648
 IR Inten    --      1.1966                 9.5236                36.7464

                     16                     17                     18
                      A                      A                      A
 Frequencies --    922.8551               927.3193               983.4315
 Red. masses --      2.1156                 2.3801                 2.4288
 Frc consts  --      1.0616                 1.2059                 1.3840
 IR Inten    --      0.9928                 2.6531                29.7410

                     19                     20                     21
                      A                      A                      A
 Frequencies --   1020.3441              1046.0225              1067.9289
 Red. masses --      1.1427                 3.1673                 2.2009
 Frc consts  --      0.7009                 2.0419                 1.4789
 IR Inten    --      2.4840                 4.4117                17.4087

                     22                     23                     24
                      A                      A                      A
 Frequencies --   1087.5834              1090.3748              1101.6684
 Red. masses --      1.5710                 1.6639                 3.9363
 Frc consts  --      1.0948                 1.1655                 2.8147
 IR Inten    --      0.4934                 3.0674                 2.3825

                     25                     26                     27
                      A                      A                      A
 Frequencies --   1149.0230              1156.8025              1163.6409
 Red. masses --      3.5135                 1.5808                 2.2445
 Frc consts  --      2.7331                 1.2463                 1.7906
 IR Inten    --    123.9076                29.9132                21.2895

                     28                     29                     30
                      A                      A                      A
 Frequencies --   1202.4237              1214.8329              1241.9669
 Red. masses --      1.4252                 1.5115                 1.5981
 Frc consts  --      1.2141                 1.3143                 1.4524
 IR Inten    --      3.0876                78.0169                22.8800

                     31                     32                     33
                      A                      A                      A
 Frequencies --   1246.8378              1268.9052              1282.1557
 Red. masses --      1.6380                 1.3757                 1.5535
 Frc consts  --      1.5003                 1.3051                 1.5046
 IR Inten    --     14.0182                 1.5995                67.1529

                     34                     35                     36
                      A                      A                      A
 Frequencies --   1315.4201              1349.4723              1366.5753
 Red. masses --      1.3923                 1.4935                 1.2885
 Frc consts  --      1.4194                 1.6025                 1.4178
 IR Inten    --     26.3138                 3.8060                 4.7837

                     37                     38                     39
                      A                      A                      A
 Frequencies --   1407.8472              1422.8985              1445.4431
 Red. masses --      1.3195                 1.3645                 1.4009
 Frc consts  --      1.5408                 1.6277                 1.7244
 IR Inten    --     17.4073                11.1584                 2.6433

                     40                     41                     42
                      A                      A                      A
 Frequencies --   1486.3692              1512.1733              2979.7608
 Red. masses --      1.0880                 1.0947                 1.0716
 Frc consts  --      1.4162                 1.4748                 5.6058
 IR Inten    --      1.8105                 1.0708                49.5642

                     43                     44                     45
                      A                      A                      A
 Frequencies --   3010.2121              3026.4295              3047.9102
 Red. masses --      1.0843                 1.0614                 1.0843
 Frc consts  --      5.7891                 5.7279                 5.9349
 IR Inten    --     54.2456                24.5435                63.1368

                     46                     47                     48
                      A                      A                      A
 Frequencies --   3069.1591              3087.3279              3091.8479
 Red. masses --      1.0995                 1.0943                 1.0907
 Frc consts  --      6.1020                 6.1456                 6.1433
 IR Inten    --     37.6396                39.6032                71.5266

                     49                     50                     51
                      A                      A                      A
 Frequencies --   3105.2786              3142.5634              3822.4679
 Red. masses --      1.0914                 1.0891                 1.0662
 Frc consts  --      6.2009                 6.3373                 9.1783
 IR Inten    --     33.5416                23.6113                30.7614

 - Thermochemistry -
 -------------------
 Temperature   298.150 Kelvin.  Pressure   1.00000 Atm.
 Atom     1 has atomic number  8 and mass  15.99491

 Molecular mass:   126.06808 amu.
 Principal axes and moments of inertia in atomic units:
                           1         2         3
     Eigenvalues --   467.749121291.891411499.78331
           X            0.99989   0.00900   0.01208
           Y           -0.00885   0.99988  -0.01293
           Z           -0.01220   0.01283   0.99984
 This molecule is an asymmetric top.
 Rotational symmetry number  1.
 Warning -- assumption of classical behavior for rotation
           may cause significant error
 Rotational temperatures (Kelvin)      0.18517     0.06704     0.05775
 Rotational constants (GHZ):           3.85835     1.39698     1.20333
 Zero-point vibrational energy     424994.5 (Joules/Mol)
                                  101.57611 (Kcal/Mol)
 Warning -- explicit consideration of   9 degrees of freedom as
           vibrations may cause significant error
 Vibrational temperatures:    284.52   336.32   354.76   392.45   509.36
          (Kelvin)            635.79   664.31   762.94   843.48  1010.67
                             1095.70  1171.45  1194.45  1216.69  1311.06
                             1327.78  1334.20  1414.94  1468.05  1504.99
                             1536.51  1564.79  1568.80  1585.05  1653.19
                             1664.38  1674.22  1730.02  1747.87  1786.91
                             1793.92  1825.67  1844.73  1892.59  1941.59
                             1966.19  2025.58  2047.23  2079.67  2138.55
                             2175.68  4287.21  4331.02  4354.35  4385.26
                             4415.83  4441.97  4448.47  4467.80  4521.44
                             5499.67

 Zero-point correction=                           0.161872 (Hartree/Particle)
 Thermal correction to Energy=                    0.168952
 Thermal correction to Enthalpy=                  0.169896
 Thermal correction to Gibbs Free Energy=         0.130773
 Sum of electronic and zero-point Energies=           -422.977481
 Sum of electronic and thermal Energies=              -422.970401
 Sum of electronic and thermal Enthalpies=            -422.969457
 Sum of electronic and thermal Free Energies=         -423.008580

                     E (Thermal)             CV                S
                      KCal/Mol        Cal/Mol-Kelvin    Cal/Mol-Kelvin
 Total                  106.019             29.233             82.342
 Electronic               0.000              0.000              0.000
 Translational            0.889              2.981             40.409
 Rotational               0.889              2.981             28.296
 Vibrational            104.242             23.272             13.637
 Vibration     1          0.637              1.843              2.154
 Vibration     2          0.654              1.789              1.850
 Vibration     3          0.661              1.768              1.755
 Vibration     4          0.676              1.724              1.579
 Vibration     5          0.730              1.567              1.148
 Vibration     6          0.802              1.379              0.821
 Vibration     7          0.819              1.335              0.761
 Vibration     8          0.885              1.183              0.587
 Vibration     9          0.943              1.061              0.474

 Optimization completed.
    -- Stationary point found.
 Normal termination of Gaussian 09 at Mon Jan 27 23:40:52 2020.
