 Gaussian 09, Revision D.01,
 Gaussian 09:  ES64L-G09RevD.01 24-Apr-2013

 -----------------------------
 # b3lyp 6-31G(2df,p) opt Freq
 -----------------------------

 -----
 titel
 -----
 Symbolic Z-matrix:
 Charge =  0 Multiplicity = 1

 SCF Done:  E(RB3LYP) =  -423.173190658     A.U. after   13 cycles
 Optimization completed.
    -- Stationary point found.
 Normal termination of Gaussian 09 at Mon Jan 27 19:01:39 2020.

 ----------------------------------------------------------------------
 #N Geom=AllCheck Guess=TCheck SCRF=Check GenChk RB3LYP/6-31G(2df,p) Fr
 eq
 ----------------------------------------------------------------------

 Structure from the checkpoint file:  "/scratch/puck/g09_fac6832a-679f-4d41-81e9-42ea4d1c6dc0/Gau-183067.chk"
 -----
 titel
 -----
 Charge =  0 Multiplicity = 1

                         Standard orientation:
 ---------------------------------------------------------------------
 Center     Atomic      Atomic             Coordinates (Angstroms)
 Number     Number       Type             X           Y           Z
 ---------------------------------------------------------------------
      1          6           0        2.136443   -0.835927   -0.016859
      2          6           0        0.690128   -0.407048   -0.064097
      3          8           0       -0.126794   -1.538134   -0.312471
      4          6           0       -1.437611   -1.233135    0.185516
      5          6           0       -1.356097    0.266396    0.437246
      6          8           0       -1.126023    0.847709   -0.872120
      7          6           0        0.309297    0.891385   -0.884004
      8          6           0        0.611514    1.715260    0.388978
      9          6           0        0.046370    0.449973    1.076197
     10          1           0        2.403182   -1.332205   -0.955138
     11          1           0        2.811593    0.011507    0.122412
     12          1           0        2.295696   -1.549045    0.797413
     13          1           0       -2.184070   -1.471770   -0.577759
     14          1           0       -1.648222   -1.815652    1.095499
     15          1           0       -2.216180    0.730262    0.922005
     16          1           0        0.673736    1.129386   -1.882515
     17          1           0        1.671631    1.869975    0.592571
     18          1           0        0.056687    2.649319    0.489119
     19          1           0        0.158218    0.220204    2.135254
 ---------------------------------------------------------------------

 SCF Done:  E(RB3LYP) =  -423.173190658     A.U. after    1 cycles

 The electronic state is 1-A.
 Alpha  occ. eigenvalues --  -19.13579 -19.13565 -10.23853 -10.23450 -10.23114
 Alpha  occ. eigenvalues --  -10.22337 -10.19497 -10.18609 -10.18073  -1.06592
 Alpha  occ. eigenvalues --   -1.00911  -0.83394  -0.76338  -0.71860  -0.66045
 Alpha  occ. eigenvalues --   -0.62650  -0.56943  -0.54269  -0.51886  -0.48787
 Alpha  occ. eigenvalues --   -0.47836  -0.45379  -0.41734  -0.40265  -0.39846
 Alpha  occ. eigenvalues --   -0.37635  -0.37112  -0.35928  -0.34352  -0.34193
 Alpha  occ. eigenvalues --   -0.31916  -0.30888  -0.25877  -0.22437
 Alpha virt. eigenvalues --    0.09288   0.10065   0.11475   0.11620   0.13751
 Alpha virt. eigenvalues --    0.13961   0.14830   0.15526   0.15955   0.16409
 Alpha virt. eigenvalues --    0.17539   0.17807   0.20645   0.21182   0.21798

 Mulliken charges:
               1
     1  C   -0.482815
     2  C    0.464314
     3  O   -0.320417
     4  C   -0.080620
     5  C    0.053648
     6  O   -0.284902
     7  C    0.027567
     8  C   -0.262406
     9  C   -0.140600
    10  H    0.133516
    11  H    0.120115
    12  H    0.126349
    13  H    0.114614
    14  H    0.086435
    15  H    0.080472
    16  H    0.078773
    17  H    0.105730
    18  H    0.106591
    19  H    0.073636
 Sum of Mulliken charges =   0.00000

 Dipole moment (field-independent basis, Debye):
    X=              0.7154    Y=              0.6218    Z=              1.5812  Tot=              1.8435
 Quadrupole moment (field-independent basis, Debye-Ang):
   XX=            -50.2103   YY=            -55.7285   ZZ=            -52.7972
   XY=              2.1725   XZ=             -2.8557   YZ=             -0.3183

  Exact polarizability:  80.463   3.301  74.263  -2.776  -0.953  66.653
 Approx polarizability: 112.231   3.255 107.235  -2.571  -1.655 105.511

                      1                      2                      3
                      A                      A                      A
 Frequencies --    195.2367               233.2672               280.5794
 Red. masses --      1.0388                 2.9157                 2.7358
 Frc consts  --      0.0233                 0.0935                 0.1269
 IR Inten    --      0.2320                 2.6126                 2.0007

                      4                      5                      6
                      A                      A                      A
 Frequencies --    332.7337               403.4187               437.9379
 Red. masses --      2.5659                 3.0912                 2.7096
 Frc consts  --      0.1674                 0.2964                 0.3062
 IR Inten    --      1.2507                 2.0557                 2.9003

                      7                      8                      9
                      A                      A                      A
 Frequencies --    500.1629               581.2460               650.3368
 Red. masses --      2.7301                 4.1772                 4.0437
 Frc consts  --      0.4024                 0.8315                 1.0077
 IR Inten    --      1.9785                 1.9331                 0.8495

                     10                     11                     12
                      A                      A                      A
 Frequencies --    708.0605               748.4688               828.1421
 Red. masses --      4.9198                 3.8131                 2.7094
 Frc consts  --      1.4532                 1.2586                 1.0948
 IR Inten    --      9.2048                 4.0631                 0.8446

                     13                     14                     15
                      A                      A                      A
 Frequencies --    860.5124               871.9113               897.1407
 Red. masses --      3.0681                 2.2909                 2.2907
 Frc consts  --      1.3385                 1.0261                 1.0863
 IR Inten    --     25.6814                 4.4974                10.2230

                     16                     17                     18
                      A                      A                      A
 Frequencies --    911.3284               938.5503               957.1232
 Red. masses --      2.5687                 2.1820                 1.8146
 Frc consts  --      1.2569                 1.1325                 0.9794
 IR Inten    --      3.1369                14.2362                15.8240

                     19                     20                     21
                      A                      A                      A
 Frequencies --    971.6638               997.4142              1030.8460
 Red. masses --      2.3770                 1.6486                 2.2138
 Frc consts  --      1.3223                 0.9663                 1.3860
 IR Inten    --      9.3134                 7.8613                 8.0493

                     22                     23                     24
                      A                      A                      A
 Frequencies --   1059.9929              1071.0767              1092.9597
 Red. masses --      2.7935                 2.4051                 1.8108
 Frc consts  --      1.8493                 1.6257                 1.2745
 IR Inten    --     34.4896                69.5800                24.9393

                     25                     26                     27
                      A                      A                      A
 Frequencies --   1118.0373              1167.7445              1172.0584
 Red. masses --      1.5155                 1.7202                 1.9395
 Frc consts  --      1.1161                 1.3820                 1.5698
 IR Inten    --      6.4673                 3.4437                 6.9878

                     28                     29                     30
                      A                      A                      A
 Frequencies --   1187.0386              1207.1328              1233.6425
 Red. masses --      2.3113                 1.2691                 1.6311
 Frc consts  --      1.9188                 1.0896                 1.4626
 IR Inten    --     39.5902                 5.4276                10.9558

                     31                     32                     33
                      A                      A                      A
 Frequencies --   1250.7641              1274.1081              1292.1522
 Red. masses --      1.4619                 1.4834                 2.2081
 Frc consts  --      1.3475                 1.4188                 2.1722
 IR Inten    --      7.8870                 1.3629                13.8633

                     34                     35                     36
                      A                      A                      A
 Frequencies --   1308.2581              1349.6406              1381.1398
 Red. masses --      2.0508                 1.6514                 1.4666
 Frc consts  --      2.0680                 1.7723                 1.6483
 IR Inten    --      9.6858                 3.2492                 2.9185

                     37                     38                     39
                      A                      A                      A
 Frequencies --   1416.5049              1480.2942              1489.0716
 Red. masses --      1.3627                 1.0537                 1.1097
 Frc consts  --      1.6110                 1.3604                 1.4497
 IR Inten    --      7.7837                 4.2837                 1.7174

                     40                     41                     42
                      A                      A                      A
 Frequencies --   1501.1918              1509.5381              2988.1886
 Red. masses --      1.0623                 1.0981                 1.0688
 Frc consts  --      1.4105                 1.4743                 5.6230
 IR Inten    --      4.2892                 0.5697                78.0539

                     43                     44                     45
                      A                      A                      A
 Frequencies --   3045.2382              3082.7047              3083.2890
 Red. masses --      1.0359                 1.0572                 1.0951
 Frc consts  --      5.6600                 5.9191                 6.1341
 IR Inten    --     19.4468                23.1735                23.2411

                     46                     47                     48
                      A                      A                      A
 Frequencies --   3108.4023              3110.1194              3125.8359
 Red. masses --      1.0898                 1.1012                 1.0895
 Frc consts  --      6.2039                 6.2757                 6.2722
 IR Inten    --     34.4271                15.3453                51.9985

                     49                     50                     51
                      A                      A                      A
 Frequencies --   3128.0358              3134.0994              3146.1481
 Red. masses --      1.1006                 1.0931                 1.1084
 Frc consts  --      6.3450                 6.3259                 6.4643
 IR Inten    --     21.4671                19.5040                20.1551

 - Thermochemistry -
 -------------------
 Temperature   298.150 Kelvin.  Pressure   1.00000 Atm.
 Atom     1 has atomic number  6 and mass  12.00000

 Molecular mass:   126.06808 amu.
 Principal axes and moments of inertia in atomic units:
                           1         2         3
     Eigenvalues --   722.35310 795.525271130.74527
           X            0.99524   0.09499  -0.02192
           Y           -0.09494   0.99548   0.00302
           Z            0.02211  -0.00093   0.99976
 This molecule is an asymmetric top.
 Rotational symmetry number  1.
 Warning -- assumption of classical behavior for rotation
           may cause significant error
 Rotational temperatures (Kelvin)      0.11991     0.10888     0.07660
 Rotational constants (GHZ):           2.49842     2.26862     1.59606
 Zero-point vibrational energy     423780.0 (Joules/Mol)
                                  101.28586 (Kcal/Mol)
 Warning -- explicit consideration of   8 degrees of freedom as
           vibrations may cause significant error
 Vibrational temperatures:    280.90   335.62   403.69   478.73   580.43
          (Kelvin)            630.09   719.62   836.28   935.69  1018.74
                             1076.88  1191.51  1238.08  1254.48  1290.78
                             1311.20  1350.36  1377.09  1398.01  1435.05
                             1483.16  1525.09  1541.04  1572.52  1608.60
                             1680.12  1686.33  1707.88  1736.79  1774.93
                             1799.57  1833.16  1859.12  1882.29  1941.83
                             1987.15  2038.03  2129.81  2142.44  2159.88
                             2171.89  4299.33  4381.41  4435.32  4436.16
                             4472.29  4474.76  4497.38  4500.54  4509.26
                             4526.60

 Zero-point correction=                           0.161409 (Hartree/Particle)
 Thermal correction to Energy=                    0.168245
 Thermal correction to Enthalpy=                  0.169190
 Thermal correction to Gibbs Free Energy=         0.130693
 Sum of electronic and zero-point Energies=           -423.011781
 Sum of electronic and thermal Energies=              -423.004945
 Sum of electronic and thermal Enthalpies=            -423.004001
 Sum of electronic and thermal Free Energies=         -423.042498

                     E (Thermal)             CV                S
                      KCal/Mol        Cal/Mol-Kelvin    Cal/Mol-Kelvin
 Total                  105.576             28.767             81.024
 Electronic               0.000              0.000              0.000
 Translational            0.889              2.981             40.409
 Rotational               0.889              2.981             27.965
 Vibrational            103.798             22.805             12.650
 Vibration     1          0.636              1.847              2.178
 Vibration     2          0.654              1.790              1.854
 Vibration     3          0.680              1.710              1.530
 Vibration     4          0.715              1.610              1.247
 Vibration     5          0.769              1.463              0.950
 Vibration     6          0.798              1.387              0.833
 Vibration     7          0.856              1.250              0.658
 Vibration     8          0.938              1.072              0.483

 Normal termination of Gaussian 09 at Mon Jan 27 19:45:43 2020.
