 Gaussian 09, Revision D.01,
 Gaussian 09:  ES64L-G09RevD.01 24-Apr-2013

 -----------------------------
 # b3lyp 6-31G(2df,p) opt Freq
 -----------------------------

 -----
 titel
 -----
 Symbolic Z-matrix:
 Charge =  0 Multiplicity = 1

 SCF Done:  E(RB3LYP) =  -423.152773253     A.U. after   14 cycles
 SCF Done:  E(RB3LYP) =  -423.152773165     A.U. after    7 cycles
 SCF Done:  E(RB3LYP) =  -423.152773199     A.U. after    8 cycles
 SCF Done:  E(RB3LYP) =  -423.152772388     A.U. after    9 cycles
 SCF Done:  E(RB3LYP) =  -423.152773581     A.U. after    9 cycles
 Optimization completed.
    -- Stationary point found.
 Normal termination of Gaussian 09 at Tue Jan 28 12:25:19 2020.

 ----------------------------------------------------------------------
 #N Geom=AllCheck Guess=TCheck SCRF=Check GenChk RB3LYP/6-31G(2df,p) Fr
 eq
 ----------------------------------------------------------------------

 Structure from the checkpoint file:  "/scratch/puck/g09_8b9ab705-596e-4cf5-9179-ed2e66d1cb55/Gau-92503.chk"
 -----
 titel
 -----
 Charge =  0 Multiplicity = 1

                         Standard orientation:
 ---------------------------------------------------------------------
 Center     Atomic      Atomic             Coordinates (Angstroms)
 Number     Number       Type             X           Y           Z
 ---------------------------------------------------------------------
      1          6           0        3.176542   -1.462670    0.261093
      2          6           0        2.289203   -0.368383   -0.304019
      3          8           0        0.948440   -0.640883    0.092245
      4          6           0        0.014422    0.310685   -0.389758
      5          6           0        0.129831    1.608484    0.435383
      6          8           0        0.233051    2.708655   -0.033662
      7          6           0       -1.339179   -0.202860   -0.228817
      8          6           0       -2.476221   -0.561806   -0.060659
      9          6           0       -3.844758   -1.017475    0.126522
     10          1           0        3.120433   -1.477840    1.353053
     11          1           0        2.862524   -2.441228   -0.112385
     12          1           0        4.217152   -1.294483   -0.031521
     13          1           0        2.611192    0.619112    0.061852
     14          1           0        2.352153   -0.340970   -1.403581
     15          1           0        0.212242    0.566262   -1.442440
     16          1           0        0.120134    1.416088    1.530961
     17          1           0       -3.876992   -1.907204    0.764429
     18          1           0       -4.457101   -0.243980    0.602436
     19          1           0       -4.312704   -1.273785   -0.829945
 ---------------------------------------------------------------------

 SCF Done:  E(RB3LYP) =  -423.152773581     A.U. after    1 cycles

 The electronic state is 1-A.
 Alpha  occ. eigenvalues --  -19.15389 -19.14811 -10.27487 -10.26231 -10.23700
 Alpha  occ. eigenvalues --  -10.21198 -10.19126 -10.18155 -10.18019  -1.05866
 Alpha  occ. eigenvalues --   -1.04238  -0.80336  -0.77397  -0.73380  -0.68312
 Alpha  occ. eigenvalues --   -0.62260  -0.59348  -0.51764  -0.51427  -0.48333
 Alpha  occ. eigenvalues --   -0.46193  -0.44734  -0.44248  -0.43458  -0.43364
 Alpha  occ. eigenvalues --   -0.39646  -0.39017  -0.38071  -0.36486  -0.33550
 Alpha  occ. eigenvalues --   -0.29238  -0.27336  -0.26697  -0.23931
 Alpha virt. eigenvalues --   -0.03519   0.03637   0.06080   0.10061   0.10490
 Alpha virt. eigenvalues --    0.11860   0.14057   0.15181   0.15248   0.16536
 Alpha virt. eigenvalues --    0.17176   0.18181   0.18651   0.19129   0.19648

 Mulliken charges:
               1
     1  C   -0.386898
     2  C   -0.039947
     3  O   -0.255200
     4  C   -0.122610
     5  C    0.144962
     6  O   -0.235638
     7  C   -0.008857
     8  C    0.155677
     9  C   -0.501907
    10  H    0.129985
    11  H    0.131465
    12  H    0.119478
    13  H    0.102187
    14  H    0.097937
    15  H    0.107838
    16  H    0.093744
    17  H    0.157215
    18  H    0.155648
    19  H    0.154921
 Sum of Mulliken charges =   0.00000

 Dipole moment (field-independent basis, Debye):
    X=             -0.4855    Y=             -1.9021    Z=              0.1232  Tot=              1.9670
 Quadrupole moment (field-independent basis, Debye-Ang):
   XX=            -40.1576   YY=            -61.8189   ZZ=            -52.0371
   XY=              1.4482   XZ=             -1.3025   YZ=              1.3240

  Exact polarizability: 112.615   9.562  76.624  -2.745  -1.617  63.115
 Approx polarizability: 146.867  19.777 112.773  -7.169  -7.185  94.322

 ******    1 imaginary frequencies (negative Signs) ******

                      1                      2                      3
                      A                      A                      A
 Frequencies --    -20.3419                52.8287                61.2622
 Red. masses --      1.0188                 5.0939                 2.7000
 Frc consts  --      0.0002                 0.0084                 0.0060
 IR Inten    --      0.0069                 4.4256                 0.4469

                      4                      5                      6
                      A                      A                      A
 Frequencies --     75.7016                83.6153               139.4282
 Red. masses --      2.3626                 3.8586                 2.9824
 Frc consts  --      0.0080                 0.0159                 0.0342
 IR Inten    --      3.6906                 1.9859                 2.3075

                      7                      8                      9
                      A                      A                      A
 Frequencies --    224.9461               247.7947               278.6960
 Red. masses --      3.0892                 1.2146                 2.8860
 Frc consts  --      0.0921                 0.0439                 0.1321
 IR Inten    --      2.8135                 0.1165                 1.8340

                     10                     11                     12
                      A                      A                      A
 Frequencies --    333.2521               340.5464               373.8855
 Red. masses --      3.7533                 4.0197                 4.0986
 Frc consts  --      0.2456                 0.2747                 0.3376
 IR Inten    --      6.7430                17.4068                 3.6434

                     13                     14                     15
                      A                      A                      A
 Frequencies --    456.5670               494.6479               565.6381
 Red. masses --      4.8399                 6.9389                 4.2354
 Frc consts  --      0.5944                 1.0003                 0.7984
 IR Inten    --      9.7935                 7.9480                 0.5775

                     16                     17                     18
                      A                      A                      A
 Frequencies --    797.7142               820.2960               914.6516
 Red. masses --      3.4849                 1.0904                 2.1915
 Frc consts  --      1.3066                 0.4323                 1.0802
 IR Inten    --      0.6801                 0.2374                 7.9244

                     19                     20                     21
                      A                      A                      A
 Frequencies --   1002.4150              1035.7200              1038.7721
 Red. masses --      2.1831                 4.0772                 2.9055
 Frc consts  --      1.2925                 2.5769                 1.8472
 IR Inten    --      3.3546                17.2622                 6.3323

                     22                     23                     24
                      A                      A                      A
 Frequencies --   1052.1408              1055.6672              1114.6428
 Red. masses --      1.4448                 1.6193                 6.0857
 Frc consts  --      0.9424                 1.0632                 4.4549
 IR Inten    --      0.2510                 4.8021               206.9629

                     25                     26                     27
                      A                      A                      A
 Frequencies --   1142.6154              1177.3611              1186.1154
 Red. masses --      2.4666                 2.3438                 1.6071
 Frc consts  --      1.8974                 1.9142                 1.3321
 IR Inten    --     24.0820                22.9990                 9.0483

                     28                     29                     30
                      A                      A                      A
 Frequencies --   1267.0476              1299.8123              1336.8931
 Red. masses --      1.3812                 1.1076                 1.3305
 Frc consts  --      1.3065                 1.1025                 1.4010
 IR Inten    --      8.3311                 2.4387                76.6700

                     31                     32                     33
                      A                      A                      A
 Frequencies --   1395.0045              1402.3249              1412.9350
 Red. masses --      1.1899                 1.2310                 1.2479
 Frc consts  --      1.3643                 1.4263                 1.4678
 IR Inten    --      4.2891                 0.1472                 4.9030

                     34                     35                     36
                      A                      A                      A
 Frequencies --   1435.6797              1474.5372              1476.0740
 Red. masses --      1.4258                 1.0392                 1.0395
 Frc consts  --      1.7315                 1.3312                 1.3345
 IR Inten    --     15.5962                 6.1423                 6.1213

                     37                     38                     39
                      A                      A                      A
 Frequencies --   1482.9405              1499.0340              1527.6285
 Red. masses --      1.0400                 1.0458                 1.0863
 Frc consts  --      1.3475                 1.3845                 1.4936
 IR Inten    --      4.5520                 2.6453                 5.0498

                     40                     41                     42
                      A                      A                      A
 Frequencies --   1838.2190              2369.3480              2896.1403
 Red. masses --     10.4368                11.8745                 1.0848
 Frc consts  --     20.7785                39.2757                 5.3608
 IR Inten    --    174.0174                33.1165                73.3466

                     43                     44                     45
                      A                      A                      A
 Frequencies --   2972.3732              2988.9514              3002.9786
 Red. masses --      1.0561                 1.0815                 1.1058
 Frc consts  --      5.4974                 5.6925                 5.8754
 IR Inten    --     32.6026                39.2309                38.8337

                     46                     47                     48
                      A                      A                      A
 Frequencies --   3031.3515              3046.9887              3094.2830
 Red. masses --      1.0347                 1.0346                 1.1003
 Frc consts  --      5.6017                 5.6596                 6.2069
 IR Inten    --     23.0608                15.8418                 7.2310

                     49                     50                     51
                      A                      A                      A
 Frequencies --   3095.7013              3122.0126              3125.0916
 Red. masses --      1.1003                 1.1015                 1.1028
 Frc consts  --      6.2124                 6.3258                 6.3459
 IR Inten    --      6.9573                21.7517                23.0935

 - Thermochemistry -
 -------------------
 Temperature   298.150 Kelvin.  Pressure   1.00000 Atm.
 Atom     1 has atomic number  6 and mass  12.00000

 Molecular mass:   126.06808 amu.
 Principal axes and moments of inertia in atomic units:
                           1         2         3
     Eigenvalues --   838.847842111.506242828.98931
           X            0.99998  -0.00591  -0.00276
           Y            0.00591   0.99998  -0.00189
           Z            0.00277   0.00188   0.99999
 This molecule is an asymmetric top.
 Rotational symmetry number  1.
 Warning -- assumption of classical behavior for rotation
           may cause significant error
 Rotational temperatures (Kelvin)      0.10325     0.04102     0.03062
 Rotational constants (GHZ):           2.15145     0.85472     0.63795
    1 imaginary frequencies ignored.
 Zero-point vibrational energy     404698.3 (Joules/Mol)
                                   96.72521 (Kcal/Mol)
 Warning -- explicit consideration of  14 degrees of freedom as
           vibrations may cause significant error
 Vibrational temperatures:     76.01    88.14   108.92   120.30   200.61
          (Kelvin)            323.65   356.52   400.98   479.47   489.97
                              537.94   656.90   711.69   813.83  1147.73
                             1180.22  1315.98  1442.25  1490.17  1494.56
                             1513.79  1518.87  1603.72  1643.97  1693.96
                             1706.55  1823.00  1870.14  1923.49  2007.10
                             2017.63  2032.90  2065.62  2121.53  2123.74
                             2133.62  2156.77  2197.91  2644.78  3408.96
                             4166.89  4276.58  4300.43  4320.61  4361.43
                             4383.93  4451.98  4454.02  4491.87  4496.30

 Zero-point correction=                           0.154141 (Hartree/Particle)
 Thermal correction to Energy=                    0.164571
 Thermal correction to Enthalpy=                  0.165515
 Thermal correction to Gibbs Free Energy=         0.116966
 Sum of electronic and zero-point Energies=           -422.998632
 Sum of electronic and thermal Energies=              -422.988202
 Sum of electronic and thermal Enthalpies=            -422.987258
 Sum of electronic and thermal Free Energies=         -423.035807

                     E (Thermal)             CV                S
                      KCal/Mol        Cal/Mol-Kelvin    Cal/Mol-Kelvin
 Total                  103.270             35.135            102.180
 Electronic               0.000              0.000              0.000
 Translational            0.889              2.981             40.409
 Rotational               0.889              2.981             29.995
 Vibrational            101.493             29.173             31.776
 Vibration     1          0.596              1.976              4.709
 Vibration     2          0.597              1.973              4.416
 Vibration     3          0.599              1.965              3.999
 Vibration     4          0.601              1.960              3.804
 Vibration     5          0.615              1.914              2.812
 Vibration     6          0.650              1.803              1.919
 Vibration     7          0.661              1.766              1.746
 Vibration     8          0.679              1.713              1.542
 Vibration     9          0.715              1.609              1.244
 Vibration    10          0.720              1.594              1.210
 Vibration    11          0.745              1.526              1.064
 Vibration    12          0.815              1.346              0.776
 Vibration    13          0.850              1.262              0.672
 Vibration    14          0.922              1.106              0.513

 Normal termination of Gaussian 09 at Tue Jan 28 12:59:25 2020.
