 Gaussian 09, Revision D.01,
 Gaussian 09:  ES64L-G09RevD.01 24-Apr-2013

 -----------------------------
 # b3lyp 6-31G(2df,p) opt Freq
 -----------------------------

 -----
 titel
 -----
 Symbolic Z-matrix:
 Charge =  0 Multiplicity = 1

 SCF Done:  E(RB3LYP) =  -423.135410539     A.U. after   13 cycles
 Optimization completed.
    -- Stationary point found.
 Normal termination of Gaussian 09 at Tue Jan 28 10:07:31 2020.

 ----------------------------------------------------------------------
 #N Geom=AllCheck Guess=TCheck SCRF=Check GenChk RB3LYP/6-31G(2df,p) Fr
 eq
 ----------------------------------------------------------------------

 Structure from the checkpoint file:  "/scratch/puck/g09_d45e03ca-c952-4dca-8af4-9ab97be669b7/Gau-191449.chk"
 -----
 titel
 -----
 Charge =  0 Multiplicity = 1

                         Standard orientation:
 ---------------------------------------------------------------------
 Center     Atomic      Atomic             Coordinates (Angstroms)
 Number     Number       Type             X           Y           Z
 ---------------------------------------------------------------------
      1          8           0        2.668121   -0.575865   -0.361354
      2          6           0        1.611006   -0.688387    0.582224
      3          6           0        0.434187    0.181629    0.230940
      4          6           0        0.394366    1.722627    0.056806
      5          6           0       -1.054335    1.270520   -0.229212
      6          6           0       -0.961711    0.250112    0.955824
      7          6           0       -1.738519   -0.986532    0.523122
      8          8           0       -1.354225   -1.074523   -0.860664
      9          6           0       -0.501981    0.045023   -1.009867
     10          1           0        2.963538    0.340351   -0.357443
     11          1           0        1.309828   -1.741756    0.566183
     12          1           0        1.958778   -0.462585    1.603979
     13          1           0        0.546651    2.318235    0.961055
     14          1           0        0.952500    2.142290   -0.786454
     15          1           0       -1.914024    1.888267   -0.489940
     16          1           0       -1.029996    0.596369    1.987765
     17          1           0       -1.446135   -1.900644    1.054313
     18          1           0       -2.826001   -0.865725    0.606118
     19          1           0       -0.124369    0.118342   -2.028447
 ---------------------------------------------------------------------

 SCF Done:  E(RB3LYP) =  -423.135410539     A.U. after    1 cycles

 The electronic state is 1-A.
 Alpha  occ. eigenvalues --  -19.13535 -19.13496 -10.23370 -10.22729 -10.22566
 Alpha  occ. eigenvalues --  -10.20153 -10.20133 -10.20010 -10.19280  -1.04407
 Alpha  occ. eigenvalues --   -1.01545  -0.89952  -0.73245  -0.71292  -0.66389
 Alpha  occ. eigenvalues --   -0.60467  -0.59346  -0.55106  -0.51406  -0.48778
 Alpha  occ. eigenvalues --   -0.47232  -0.46111  -0.43325  -0.42545  -0.39660
 Alpha  occ. eigenvalues --   -0.36692  -0.35434  -0.34028  -0.33499  -0.32231
 Alpha  occ. eigenvalues --   -0.30993  -0.30176  -0.26470  -0.23613
 Alpha virt. eigenvalues --    0.06849   0.10344   0.10832   0.12517   0.12989
 Alpha virt. eigenvalues --    0.13510   0.14242   0.15472   0.15620   0.16316
 Alpha virt. eigenvalues --    0.17129   0.17860   0.18300   0.19815   0.20866

 Mulliken charges:
               1
     1  O   -0.412281
     2  C   -0.209330
     3  C    0.290121
     4  C   -0.314307
     5  C   -0.094381
     6  C   -0.106800
     7  C   -0.113259
     8  O   -0.282742
     9  C    0.120811
    10  H    0.283870
    11  H    0.119728
    12  H    0.086119
    13  H    0.095444
    14  H    0.091515
    15  H    0.075069
    16  H    0.072556
    17  H    0.103822
    18  H    0.103043
    19  H    0.091001
 Sum of Mulliken charges =   0.00000

 Dipole moment (field-independent basis, Debye):
    X=             -0.1855    Y=              2.0419    Z=              1.7528  Tot=              2.6974
 Quadrupole moment (field-independent basis, Debye-Ang):
   XX=            -54.8522   YY=            -54.0631   ZZ=            -52.5898
   XY=              3.0335   XZ=             -1.0446   YZ=             -3.2595

  Exact polarizability:  79.983   3.650  75.059  -2.638  -3.231  68.730
 Approx polarizability: 110.991   4.620 111.095  -4.274  -1.878 108.237

                      1                      2                      3
                      A                      A                      A
 Frequencies --     76.1714               157.0225               204.5589
 Red. masses --      3.6017                 3.6230                 2.3083
 Frc consts  --      0.0123                 0.0526                 0.0569
 IR Inten    --      1.3317                 0.5761                 7.2573

                      4                      5                      6
                      A                      A                      A
 Frequencies --    280.1172               307.8630               379.9692
 Red. masses --      1.7426                 1.5545                 2.4723
 Frc consts  --      0.0806                 0.0868                 0.2103
 IR Inten    --     21.7714               102.8814                 1.2742

                      7                      8                      9
                      A                      A                      A
 Frequencies --    439.6585               485.1746               663.5300
 Red. masses --      2.6202                 3.2400                 3.7600
 Frc consts  --      0.2984                 0.4494                 0.9754
 IR Inten    --      2.8326                 2.0952                 3.0211

                     10                     11                     12
                      A                      A                      A
 Frequencies --    700.4519               751.4193               769.1525
 Red. masses --      4.1633                 3.5223                 3.7826
 Frc consts  --      1.2035                 1.1718                 1.3185
 IR Inten    --      1.4730                 4.1283                 3.3659

                     13                     14                     15
                      A                      A                      A
 Frequencies --    816.6360               891.7324               926.3826
 Red. masses --      2.6635                 2.3877                 2.0128
 Frc consts  --      1.0466                 1.1187                 1.0177
 IR Inten    --      1.6910                 6.7709                 6.9132

                     16                     17                     18
                      A                      A                      A
 Frequencies --    934.3452               957.9795               966.1187
 Red. masses --      2.3490                 3.0304                 1.4457
 Frc consts  --      1.2082                 1.6385                 0.7950
 IR Inten    --      4.2077                14.1001                17.5033

                     19                     20                     21
                      A                      A                      A
 Frequencies --    998.4289              1007.1067              1044.6290
 Red. masses --      1.2708                 3.3966                 1.7318
 Frc consts  --      0.7464                 2.0298                 1.1135
 IR Inten    --      3.5280                17.2719                 3.4875

                     22                     23                     24
                      A                      A                      A
 Frequencies --   1052.4874              1069.8097              1086.9518
 Red. masses --      2.1292                 3.0016                 3.2703
 Frc consts  --      1.3896                 2.0240                 2.2764
 IR Inten    --     90.5796                16.8899                55.2748

                     25                     26                     27
                      A                      A                      A
 Frequencies --   1095.6559              1134.7341              1140.1721
 Red. masses --      1.6663                 1.4700                 1.6540
 Frc consts  --      1.1786                 1.1152                 1.2668
 IR Inten    --     24.7197                 1.3541                 4.2064

                     28                     29                     30
                      A                      A                      A
 Frequencies --   1182.2240              1200.3951              1216.4268
 Red. masses --      1.2900                 1.5200                 1.4818
 Frc consts  --      1.0623                 1.2904                 1.2918
 IR Inten    --      4.9139                 7.3766                 5.4488

                     31                     32                     33
                      A                      A                      A
 Frequencies --   1226.3901              1257.2005              1276.5434
 Red. masses --      1.6216                 1.6324                 1.5262
 Frc consts  --      1.4370                 1.5202                 1.4653
 IR Inten    --      4.6935                18.6874                 5.7365

                     34                     35                     36
                      A                      A                      A
 Frequencies --   1307.1806              1341.0786              1374.3052
 Red. masses --      1.9628                 2.0894                 1.2814
 Frc consts  --      1.9760                 2.2140                 1.4260
 IR Inten    --      4.4592                 4.0805                 1.8095

                     37                     38                     39
                      A                      A                      A
 Frequencies --   1390.7802              1421.8563              1495.0031
 Red. masses --      1.6190                 1.3760                 1.0822
 Frc consts  --      1.8450                 1.6389                 1.4251
 IR Inten    --     14.4068                49.7912                 0.9536

                     40                     41                     42
                      A                      A                      A
 Frequencies --   1519.9975              1522.4937              2966.5706
 Red. masses --      1.1591                 1.1014                 1.0705
 Frc consts  --      1.5778                 1.5043                 5.5507
 IR Inten    --      0.4946                 0.5592                59.6453

                     43                     44                     45
                      A                      A                      A
 Frequencies --   3017.0945              3041.5102              3053.6083
 Red. masses --      1.0561                 1.0549                 1.1091
 Frc consts  --      5.6642                 5.7497                 6.0931
 IR Inten    --     66.2106                48.0984                31.6195

                     46                     47                     48
                      A                      A                      A
 Frequencies --   3067.3589              3101.8297              3108.3702
 Red. masses --      1.0914                 1.1093                 1.0886
 Frc consts  --      6.0501                 6.2881                 6.1968
 IR Inten    --     23.9607                27.7041                42.8007

                     49                     50                     51
                      A                      A                      A
 Frequencies --   3117.7229              3145.5666              3814.7169
 Red. masses --      1.0907                 1.0917                 1.0661
 Frc consts  --      6.2463                 6.3643                 9.1405
 IR Inten    --     47.6886                22.8346                14.8667

 - Thermochemistry -
 -------------------
 Temperature   298.150 Kelvin.  Pressure   1.00000 Atm.
 Atom     1 has atomic number  8 and mass  15.99491

 Molecular mass:   126.06808 amu.
 Principal axes and moments of inertia in atomic units:
                           1         2         3
     Eigenvalues --   639.870101188.352351400.14345
           X            0.99989   0.01286  -0.00752
           Y           -0.01331   0.99792  -0.06309
           Z            0.00669   0.06318   0.99798
 This molecule is an asymmetric top.
 Rotational symmetry number  1.
 Warning -- assumption of classical behavior for rotation
           may cause significant error
 Rotational temperatures (Kelvin)      0.13536     0.07289     0.06186
 Rotational constants (GHZ):           2.82048     1.51869     1.28897
 Zero-point vibrational energy     421710.5 (Joules/Mol)
                                  100.79122 (Kcal/Mol)
 Warning -- explicit consideration of   8 degrees of freedom as
           vibrations may cause significant error
 Vibrational temperatures:    109.59   225.92   294.31   403.03   442.95
          (Kelvin)            546.69   632.57   698.06   954.67  1007.79
                             1081.12  1106.64  1174.96  1283.00  1332.86
                             1344.31  1378.32  1390.03  1436.51  1449.00
                             1502.99  1514.29  1539.22  1563.88  1576.40
                             1632.63  1640.45  1700.95  1727.10  1750.16
                             1764.50  1808.83  1836.66  1880.74  1929.51
                             1977.32  2001.02  2045.73  2150.97  2186.93
                             2190.53  4268.23  4340.92  4376.05  4393.46
                             4413.24  4462.84  4472.25  4485.70  4525.76
                             5488.52

 Zero-point correction=                           0.160621 (Hartree/Particle)
 Thermal correction to Energy=                    0.168251
 Thermal correction to Enthalpy=                  0.169195
 Thermal correction to Gibbs Free Energy=         0.128356
 Sum of electronic and zero-point Energies=           -422.974790
 Sum of electronic and thermal Energies=              -422.967159
 Sum of electronic and thermal Enthalpies=            -422.966215
 Sum of electronic and thermal Free Energies=         -423.007054

                     E (Thermal)             CV                S
                      KCal/Mol        Cal/Mol-Kelvin    Cal/Mol-Kelvin
 Total                  105.579             29.997             85.953
 Electronic               0.000              0.000              0.000
 Translational            0.889              2.981             40.409
 Rotational               0.889              2.981             28.456
 Vibrational            103.802             24.035             17.089
 Vibration     1          0.599              1.965              3.987
 Vibration     2          0.621              1.895              2.585
 Vibration     3          0.640              1.833              2.092
 Vibration     4          0.680              1.710              1.533
 Vibration     5          0.698              1.659              1.374
 Vibration     6          0.750              1.513              1.039
 Vibration     7          0.800              1.384              0.828
 Vibration     8          0.841              1.283              0.696

 Optimization completed.
    -- Stationary point found.
 Normal termination of Gaussian 09 at Tue Jan 28 10:44:25 2020.
