 Gaussian 09, Revision D.01,
 Gaussian 09:  ES64L-G09RevD.01 24-Apr-2013

 -----------------------------
 # b3lyp 6-31G(2df,p) opt Freq
 -----------------------------

 -----
 titel
 -----
 Symbolic Z-matrix:
 Charge =  0 Multiplicity = 1

 SCF Done:  E(RB3LYP) =  -423.056156423     A.U. after   13 cycles
 Optimization completed.
    -- Stationary point found.
 Normal termination of Gaussian 09 at Tue Jan 28 02:55:17 2020.

 ----------------------------------------------------------------------
 #N Geom=AllCheck Guess=TCheck SCRF=Check GenChk RB3LYP/6-31G(2df,p) Fr
 eq
 ----------------------------------------------------------------------

 Structure from the checkpoint file:  "/scratch/puck/g09_1d8a9f89-8e1a-4716-bfa2-fb605d045c48/Gau-11259.chk"
 -----
 titel
 -----
 Charge =  0 Multiplicity = 1

                         Standard orientation:
 ---------------------------------------------------------------------
 Center     Atomic      Atomic             Coordinates (Angstroms)
 Number     Number       Type             X           Y           Z
 ---------------------------------------------------------------------
      1          8           0       -2.261599   -0.470709   -0.610585
      2          6           0       -1.390746    0.413749    0.047923
      3          6           0       -0.888247   -0.166706    1.435175
      4          6           0        0.459534   -0.436413    0.741378
      5          6           0        1.978385   -0.207366    0.476896
      6          6           0        1.275435   -0.335470   -0.965526
      7          6           0        0.510311   -1.533880   -0.371508
      8          6           0        0.148268    0.574460   -0.381010
      9          8           0        0.407705    1.953586   -0.236544
     10          1           0       -2.490943   -0.080781   -1.460835
     11          1           0       -1.827118    1.416674    0.125365
     12          1           0       -0.857355    0.620675    2.191528
     13          1           0       -1.439712   -1.028379    1.818353
     14          1           0        2.390443    0.763572    0.761658
     15          1           0        2.678243   -1.010166    0.729300
     16          1           0        1.790093   -0.289096   -1.932795
     17          1           0       -0.428984   -1.807915   -0.845948
     18          1           0        1.114370   -2.410123   -0.123153
     19          1           0        1.344478    2.112274   -0.386406
 ---------------------------------------------------------------------

 SCF Done:  E(RB3LYP) =  -423.056156423     A.U. after    1 cycles

 The electronic state is 1-A.
 Alpha  occ. eigenvalues --  -19.14423 -19.13874 -10.23936 -10.22489 -10.20830
 Alpha  occ. eigenvalues --  -10.19898 -10.18962 -10.18606 -10.17668  -1.03214
 Alpha  occ. eigenvalues --   -1.01994  -0.90629  -0.77540  -0.66331  -0.65043
 Alpha  occ. eigenvalues --   -0.60800  -0.59040  -0.55144  -0.50328  -0.49171
 Alpha  occ. eigenvalues --   -0.46399  -0.43911  -0.42168  -0.39922  -0.39411
 Alpha  occ. eigenvalues --   -0.37643  -0.34589  -0.33709  -0.32445  -0.31465
 Alpha  occ. eigenvalues --   -0.30287  -0.29382  -0.26472  -0.20751
 Alpha virt. eigenvalues --    0.06127   0.07807   0.10360   0.11055   0.12600
 Alpha virt. eigenvalues --    0.13208   0.14233   0.14563   0.15882   0.17132
 Alpha virt. eigenvalues --    0.18433   0.19342   0.20061   0.20945   0.22112

 Mulliken charges:
               1
     1  O   -0.414106
     2  C    0.048931
     3  C   -0.349148
     4  C    0.246454
     5  C   -0.341080
     6  C   -0.172076
     7  C   -0.246027
     8  C    0.371550
     9  O   -0.484761
    10  H    0.286988
    11  H    0.090957
    12  H    0.116553
    13  H    0.109835
    14  H    0.088405
    15  H    0.097161
    16  H    0.061606
    17  H    0.120972
    18  H    0.086545
    19  H    0.281241
 Sum of Mulliken charges =   0.00000

 Dipole moment (field-independent basis, Debye):
    X=              0.9626    Y=              0.3545    Z=             -0.7954  Tot=              1.2981
 Quadrupole moment (field-independent basis, Debye-Ang):
   XX=            -50.8953   YY=            -55.4499   ZZ=            -50.9325
   XY=             -0.1667   XZ=              1.6423   YZ=             -0.6057

  Exact polarizability:  86.255  -1.556  74.429  -2.093   0.932  69.065
 Approx polarizability: 122.631  -0.513 114.686  -2.634  -0.299 106.754

                      1                      2                      3
                      A                      A                      A
 Frequencies --    171.6953               224.4351               249.3249
 Red. masses --      2.7447                 3.0762                 1.4096
 Frc consts  --      0.0477                 0.0913                 0.0516
 IR Inten    --      1.1342                 5.6012                71.4078

                      4                      5                      6
                      A                      A                      A
 Frequencies --    290.6755               315.0802               362.5351
 Red. masses --      3.7295                 1.2943                 2.4620
 Frc consts  --      0.1857                 0.0757                 0.1907
 IR Inten    --      1.7940                96.9182                13.3349

                      7                      8                      9
                      A                      A                      A
 Frequencies --    379.1984               452.6636               496.8385
 Red. masses --      2.7524                 3.1423                 2.8401
 Frc consts  --      0.2332                 0.3794                 0.4131
 IR Inten    --     27.7137                 7.2130                 3.1894

                     10                     11                     12
                      A                      A                      A
 Frequencies --    539.0020               603.6182               634.7648
 Red. masses --      2.4347                 4.0027                 3.1547
 Frc consts  --      0.4167                 0.8593                 0.7489
 IR Inten    --      6.0368                 3.6205                 0.6143

                     13                     14                     15
                      A                      A                      A
 Frequencies --    753.3961               766.0666               806.4552
 Red. masses --      3.3858                 3.6268                 2.4148
 Frc consts  --      1.1323                 1.2540                 0.9253
 IR Inten    --      1.1792                 6.5771                 0.5932

                     16                     17                     18
                      A                      A                      A
 Frequencies --    861.7128               889.0970               908.1787
 Red. masses --      3.4826                 3.9267                 2.3082
 Frc consts  --      1.5236                 1.8289                 1.1217
 IR Inten    --      7.1699                 5.3484                21.9920

                     19                     20                     21
                      A                      A                      A
 Frequencies --    926.3907               974.3083               996.0952
 Red. masses --      2.1164                 2.0851                 1.3648
 Frc consts  --      1.0701                 1.1662                 0.7978
 IR Inten    --      2.3080                25.7966                13.4133

                     22                     23                     24
                      A                      A                      A
 Frequencies --   1029.5961              1035.7932              1063.6775
 Red. masses --      1.4129                 1.4792                 1.5660
 Frc consts  --      0.8825                 0.9350                 1.0439
 IR Inten    --     41.1343                11.1439                35.4477

                     25                     26                     27
                      A                      A                      A
 Frequencies --   1106.1941              1131.7580              1140.0631
 Red. masses --      1.7118                 2.0929                 1.6713
 Frc consts  --      1.2341                 1.5794                 1.2798
 IR Inten    --     19.6951                21.5449                12.7820

                     28                     29                     30
                      A                      A                      A
 Frequencies --   1169.9073              1188.5321              1202.2977
 Red. masses --      1.9493                 1.4901                 1.6332
 Frc consts  --      1.5719                 1.2402                 1.3910
 IR Inten    --      9.1091                 8.3956                15.3742

                     31                     32                     33
                      A                      A                      A
 Frequencies --   1209.1759              1218.7879              1234.1208
 Red. masses --      1.6218                 1.7626                 1.6150
 Frc consts  --      1.3971                 1.5426                 1.4492
 IR Inten    --     17.4691                12.2170                28.9129

                     34                     35                     36
                      A                      A                      A
 Frequencies --   1252.7422              1277.7104              1316.9834
 Red. masses --      1.4151                 2.7109                 1.6274
 Frc consts  --      1.3084                 2.6075                 1.6630
 IR Inten    --     49.2911                 7.3926                28.4115

                     37                     38                     39
                      A                      A                      A
 Frequencies --   1333.4654              1417.1714              1466.0756
 Red. masses --      1.6448                 1.3522                 1.1197
 Frc consts  --      1.7232                 1.6000                 1.4179
 IR Inten    --     71.0167                13.8029                 2.7032

                     40                     41                     42
                      A                      A                      A
 Frequencies --   1502.7185              1538.5599              3028.1953
 Red. masses --      1.0931                 1.1419                 1.0853
 Frc consts  --      1.4544                 1.5926                 5.8636
 IR Inten    --      2.1833                 3.8314                77.8003

                     43                     44                     45
                      A                      A                      A
 Frequencies --   3030.1348              3049.5701              3067.8112
 Red. masses --      1.0841                 1.0595                 1.0591
 Frc consts  --      5.8649                 5.8055                 5.8730
 IR Inten    --     59.3771                72.4645                49.6170

                     46                     47                     48
                      A                      A                      A
 Frequencies --   3070.9858              3111.8236              3129.4237
 Red. masses --      1.0639                 1.1087                 1.1088
 Frc consts  --      5.9115                 6.3257                 6.3977
 IR Inten    --     27.9794                39.5444                15.7440

                     49                     50                     51
                      A                      A                      A
 Frequencies --   3168.8271              3810.4689              3825.7058
 Red. masses --      1.1026                 1.0660                 1.0655
 Frc consts  --      6.5233                 9.1192                 9.1882
 IR Inten    --      7.2325                28.1584                14.1396

 - Thermochemistry -
 -------------------
 Temperature   298.150 Kelvin.  Pressure   1.00000 Atm.
 Atom     1 has atomic number  8 and mass  15.99491

 Molecular mass:   126.06808 amu.
 Principal axes and moments of inertia in atomic units:
                           1         2         3
     Eigenvalues --   691.722581046.573161227.04043
           X            0.99979  -0.01900  -0.00722
           Y            0.01916   0.99954   0.02356
           Z            0.00676  -0.02370   0.99970
 This molecule is an asymmetric top.
 Rotational symmetry number  1.
 Warning -- assumption of classical behavior for rotation
           may cause significant error
 Rotational temperatures (Kelvin)      0.12521     0.08276     0.07059
 Rotational constants (GHZ):           2.60905     1.72443     1.47081
 Zero-point vibrational energy     417076.9 (Joules/Mol)
                                   99.68377 (Kcal/Mol)
 Warning -- explicit consideration of  11 degrees of freedom as
           vibrations may cause significant error
 Vibrational temperatures:    247.03   322.91   358.72   418.22   453.33
          (Kelvin)            521.61   545.58   651.28   714.84   775.50
                              868.47   913.28  1083.97  1102.20  1160.31
                             1239.81  1279.21  1306.66  1332.87  1401.81
                             1433.16  1481.36  1490.27  1530.39  1591.56
                             1628.35  1640.29  1683.23  1710.03  1729.84
                             1739.73  1753.56  1775.62  1802.41  1838.34
                             1894.84  1918.56  2038.99  2109.35  2162.07
                             2213.64  4356.89  4359.68  4387.65  4413.89
                             4418.46  4477.21  4502.54  4559.23  5482.41
                             5504.33

 Zero-point correction=                           0.158856 (Hartree/Particle)
 Thermal correction to Energy=                    0.166687
 Thermal correction to Enthalpy=                  0.167631
 Thermal correction to Gibbs Free Energy=         0.127317
 Sum of electronic and zero-point Energies=           -422.897300
 Sum of electronic and thermal Energies=              -422.889470
 Sum of electronic and thermal Enthalpies=            -422.888526
 Sum of electronic and thermal Free Energies=         -422.928839

                     E (Thermal)             CV                S
                      KCal/Mol        Cal/Mol-Kelvin    Cal/Mol-Kelvin
 Total                  104.597             32.376             84.847
 Electronic               0.000              0.000              0.000
 Translational            0.889              2.981             40.409
 Rotational               0.889              2.981             28.276
 Vibrational            102.820             26.415             16.162
 Vibration     1          0.626              1.877              2.417
 Vibration     2          0.649              1.804              1.923
 Vibration     3          0.662              1.764              1.735
 Vibration     4          0.687              1.691              1.470
 Vibration     5          0.702              1.645              1.336
 Vibration     6          0.736              1.549              1.111
 Vibration     7          0.749              1.515              1.042
 Vibration     8          0.811              1.355              0.788
 Vibration     9          0.852              1.257              0.666
 Vibration    10          0.894              1.164              0.567
 Vibration    11          0.962              1.024              0.443

 Normal termination of Gaussian 09 at Tue Jan 28 03:47:52 2020.
 Normal termination of Gaussian 09 at Tue Jan 28 03:02:32 2020.
