 Gaussian 09, Revision D.01,
 Gaussian 09:  ES64L-G09RevD.01 24-Apr-2013

 -----------------------------
 # b3lyp 6-31G(2df,p) opt Freq
 -----------------------------

 -----
 titel
 -----
 Symbolic Z-matrix:
 Charge =  0 Multiplicity = 1

 SCF Done:  E(RB3LYP) =  -423.129135561     A.U. after   14 cycles
 Optimization completed.
    -- Stationary point found.
 Normal termination of Gaussian 09 at Mon Jan 27 15:36:01 2020.

 ----------------------------------------------------------------------
 #N Geom=AllCheck Guess=TCheck SCRF=Check GenChk RB3LYP/6-31G(2df,p) Fr
 eq
 ----------------------------------------------------------------------

 Structure from the checkpoint file:  "/scratch/puck/g09_b73bc658-5177-4a96-aed7-b4bd8955429b/Gau-55398.chk"
 -----
 titel
 -----
 Charge =  0 Multiplicity = 1

                         Standard orientation:
 ---------------------------------------------------------------------
 Center     Atomic      Atomic             Coordinates (Angstroms)
 Number     Number       Type             X           Y           Z
 ---------------------------------------------------------------------
      1          6           0       -2.380768    1.142894   -0.220173
      2          6           0       -1.511213   -0.043525    0.200449
      3          8           0       -2.062925   -1.278072   -0.264849
      4          6           0       -0.116741    0.024308   -0.403752
      5          6           0        0.936186   -0.964124    0.202391
      6          8           0        1.059924   -0.043975    1.341578
      7          6           0        0.917532    0.972046    0.294763
      8          6           0        2.176765    0.722312   -0.555646
      9          6           0        2.189821   -0.611044   -0.616236
     10          1           0       -2.483421    1.176330   -1.309620
     11          1           0       -3.383775    1.061154    0.214333
     12          1           0       -1.952544    2.091196    0.121028
     13          1           0       -1.413557   -0.059375    1.294423
     14          1           0       -2.946321   -1.365562    0.106712
     15          1           0       -0.168383    0.069108   -1.494896
     16          1           0        0.708203   -1.994292    0.467560
     17          1           0        0.688370    1.973060    0.659504
     18          1           0        2.839597    1.462873   -0.977600
     19          1           0        2.866345   -1.295325   -1.106054
 ---------------------------------------------------------------------

 SCF Done:  E(RB3LYP) =  -423.129135561     A.U. after    1 cycles

 The electronic state is 1-A.
 Alpha  occ. eigenvalues --  -19.13185 -19.12662 -10.24105 -10.23665 -10.22814
 Alpha  occ. eigenvalues --  -10.19181 -10.18474 -10.18382 -10.17784  -1.04401
 Alpha  occ. eigenvalues --   -1.01238  -0.80399  -0.76591  -0.69948  -0.68800
 Alpha  occ. eigenvalues --   -0.61161  -0.54097  -0.53983  -0.52234  -0.50814
 Alpha  occ. eigenvalues --   -0.46448  -0.43358  -0.42541  -0.40348  -0.39701
 Alpha  occ. eigenvalues --   -0.37753  -0.36957  -0.35316  -0.34292  -0.31828
 Alpha  occ. eigenvalues --   -0.31412  -0.26681  -0.24974  -0.23386
 Alpha virt. eigenvalues --    0.00146   0.07364   0.10210   0.11084   0.12499
 Alpha virt. eigenvalues --    0.13749   0.14346   0.15241   0.16377   0.16671
 Alpha virt. eigenvalues --    0.17316   0.18907   0.19527   0.20715   0.22098

 Mulliken charges:
               1
     1  C   -0.411652
     2  C    0.094601
     3  O   -0.446815
     4  C    0.049094
     5  C    0.005897
     6  O   -0.290308
     7  C   -0.007074
     8  C   -0.084955
     9  C   -0.082546
    10  H    0.122813
    11  H    0.106007
    12  H    0.117378
    13  H    0.083785
    14  H    0.280833
    15  H    0.075666
    16  H    0.088062
    17  H    0.077101
    18  H    0.110403
    19  H    0.111711
 Sum of Mulliken charges =   0.00000

 Dipole moment (field-independent basis, Debye):
    X=             -1.0330    Y=              0.8836    Z=             -0.9116  Tot=              1.6368
 Quadrupole moment (field-independent basis, Debye-Ang):
   XX=            -47.5918   YY=            -50.5372   ZZ=            -56.7341
   XY=             -0.0214   XZ=             -5.4444   YZ=             -0.8646

  Exact polarizability:  86.326  -0.183  78.158  -5.872   0.573  60.355
 Approx polarizability: 108.028   1.654 128.668  -6.224   2.492  98.320

                      1                      2                      3
                      A                      A                      A
 Frequencies --     70.1670               147.5867               191.0595
 Red. masses --      3.6328                 3.5239                 2.5464
 Frc consts  --      0.0105                 0.0452                 0.0548
 IR Inten    --      1.9486                 1.4694                10.5004

                      4                      5                      6
                      A                      A                      A
 Frequencies --    237.7916               265.2679               306.4362
 Red. masses --      1.1267                 1.1607                 3.8464
 Frc consts  --      0.0375                 0.0481                 0.2128
 IR Inten    --      5.5244                84.5258                 3.6954

                      7                      8                      9
                      A                      A                      A
 Frequencies --    412.6427               475.5182               494.7520
 Red. masses --      3.8331                 3.0863                 2.4655
 Frc consts  --      0.3845                 0.4112                 0.3556
 IR Inten    --      2.2946                 6.5194                 6.7757

                     10                     11                     12
                      A                      A                      A
 Frequencies --    549.0053               618.9742               711.3868
 Red. masses --      2.8235                 3.1082                 1.9488
 Frc consts  --      0.5014                 0.7016                 0.5811
 IR Inten    --      3.2823                 2.4529                39.7012

                     13                     14                     15
                      A                      A                      A
 Frequencies --    756.4323               854.0386               864.7435
 Red. masses --      5.3213                 2.7045                 3.3815
 Frc consts  --      1.7939                 1.1622                 1.4898
 IR Inten    --      1.6960                33.0540                18.9620

                     16                     17                     18
                      A                      A                      A
 Frequencies --    872.2122               877.2667               901.6473
 Red. masses --      2.1100                 2.1117                 3.4003
 Frc consts  --      0.9458                 0.9575                 1.6287
 IR Inten    --      6.6238                 7.6016                10.2429

                     19                     20                     21
                      A                      A                      A
 Frequencies --    908.8005               920.5626               958.4897
 Red. masses --      1.5126                 2.6839                 3.9385
 Frc consts  --      0.7361                 1.3401                 2.1318
 IR Inten    --      1.4543                26.3105                 5.6171

                     22                     23                     24
                      A                      A                      A
 Frequencies --    984.0544              1027.9802              1082.9491
 Red. masses --      1.6959                 1.8306                 2.4386
 Frc consts  --      0.9676                 1.1398                 1.6850
 IR Inten    --      3.2357                 6.8809                 2.4947

                     25                     26                     27
                      A                      A                      A
 Frequencies --   1108.6783              1116.2825              1148.8578
 Red. masses --      1.9470                 1.9741                 1.4156
 Frc consts  --      1.4100                 1.4493                 1.1008
 IR Inten    --     22.7364                58.7000                 3.1558

                     28                     29                     30
                      A                      A                      A
 Frequencies --   1152.3896              1190.7312              1215.3523
 Red. masses --      2.0546                 1.4402                 1.3040
 Frc consts  --      1.6076                 1.2031                 1.1348
 IR Inten    --      7.3043                 5.6850                12.0214

                     31                     32                     33
                      A                      A                      A
 Frequencies --   1238.6008              1263.2896              1297.7795
 Red. masses --      1.2712                 1.3773                 1.5043
 Frc consts  --      1.1490                 1.2950                 1.4927
 IR Inten    --      3.4528                12.3477                11.4883

                     34                     35                     36
                      A                      A                      A
 Frequencies --   1300.0935              1339.8584              1385.4566
 Red. masses --      1.5773                 1.4043                 1.2275
 Frc consts  --      1.5708                 1.4854                 1.3883
 IR Inten    --      8.1898                25.4204                 6.2720

                     37                     38                     39
                      A                      A                      A
 Frequencies --   1404.1524              1432.5601              1491.6324
 Red. masses --      1.2906                 1.5138                 1.0502
 Frc consts  --      1.4993                 1.8304                 1.3767
 IR Inten    --     13.3127                 4.4935                 3.9426

                     40                     41                     42
                      A                      A                      A
 Frequencies --   1498.8792              1614.6745              3015.3285
 Red. masses --      1.1139                 5.7865                 1.0825
 Frc consts  --      1.4744                 8.8887                 5.7991
 IR Inten    --      2.9106                 0.5046                17.4086

                     43                     44                     45
                      A                      A                      A
 Frequencies --   3027.2620              3078.7489              3092.9038
 Red. masses --      1.0361                 1.0861                 1.0999
 Frc consts  --      5.5942                 6.0654                 6.1991
 IR Inten    --     19.4389                27.2248                31.6193

                     46                     47                     48
                      A                      A                      A
 Frequencies --   3110.6388              3126.4947              3151.8903
 Red. masses --      1.1017                 1.0909                 1.0921
 Frc consts  --      6.2809                 6.2827                 6.3923
 IR Inten    --     26.6606                41.0978                20.8537

                     49                     50                     51
                      A                      A                      A
 Frequencies --   3233.3296              3260.6051              3817.7914
 Red. masses --      1.0866                 1.1118                 1.0662
 Frc consts  --      6.6930                 6.9645                 9.1561
 IR Inten    --      2.8569                 6.7977                14.5075

 - Thermochemistry -
 -------------------
 Temperature   298.150 Kelvin.  Pressure   1.00000 Atm.
 Atom     1 has atomic number  6 and mass  12.00000

 Molecular mass:   126.06808 amu.
 Principal axes and moments of inertia in atomic units:
                           1         2         3
     Eigenvalues --   523.897331491.353231649.55949
           X            0.99963  -0.02318  -0.01428
           Y            0.02287   0.99950  -0.02174
           Z            0.01477   0.02140   0.99966
 This molecule is an asymmetric top.
 Rotational symmetry number  1.
 Warning -- assumption of classical behavior for rotation
           may cause significant error
 Rotational temperatures (Kelvin)      0.16533     0.05808     0.05251
 Rotational constants (GHZ):           3.44484     1.21014     1.09407
 Zero-point vibrational energy     416324.5 (Joules/Mol)
                                   99.50395 (Kcal/Mol)
 Warning -- explicit consideration of  11 degrees of freedom as
           vibrations may cause significant error
 Vibrational temperatures:    100.95   212.34   274.89   342.13   381.66
          (Kelvin)            440.89   593.70   684.16   711.84   789.90
                              890.56  1023.53  1088.34  1228.77  1244.17
                             1254.92  1262.19  1297.27  1307.56  1324.48
                             1379.05  1415.83  1479.03  1558.12  1595.14
                             1606.08  1652.95  1658.03  1713.19  1748.62
                             1782.07  1817.59  1867.21  1870.54  1927.75
                             1993.36  2020.26  2061.13  2146.12  2156.55
                             2323.15  4338.38  4355.55  4429.63  4449.99
                             4475.51  4498.32  4534.86  4652.03  4691.28
                             5492.94

 Zero-point correction=                           0.158570 (Hartree/Particle)
 Thermal correction to Energy=                    0.166866
 Thermal correction to Enthalpy=                  0.167810
 Thermal correction to Gibbs Free Energy=         0.125668
 Sum of electronic and zero-point Energies=           -422.970566
 Sum of electronic and thermal Energies=              -422.962270
 Sum of electronic and thermal Enthalpies=            -422.961326
 Sum of electronic and thermal Free Energies=         -423.003468

                     E (Thermal)             CV                S
                      KCal/Mol        Cal/Mol-Kelvin    Cal/Mol-Kelvin
 Total                  104.710             32.364             88.696
 Electronic               0.000              0.000              0.000
 Translational            0.889              2.981             40.409
 Rotational               0.889              2.981             28.646
 Vibrational            102.932             26.402             19.641
 Vibration     1          0.598              1.968              4.149
 Vibration     2          0.617              1.905              2.703
 Vibration     3          0.634              1.852              2.218
 Vibration     4          0.656              1.783              1.819
 Vibration     5          0.671              1.737              1.627
 Vibration     6          0.697              1.661              1.382
 Vibration     7          0.776              1.443              0.917
 Vibration     8          0.832              1.304              0.722
 Vibration     9          0.850              1.262              0.671
 Vibration    10          0.904              1.142              0.546
 Vibration    11          0.979              0.992              0.418

 Normal termination of Gaussian 09 at Mon Jan 27 16:18:14 2020.
