 Gaussian 09, Revision D.01,
 Gaussian 09:  ES64L-G09RevD.01 24-Apr-2013

 -----------------------------
 # b3lyp 6-31G(2df,p) opt Freq
 -----------------------------

 -----
 titel
 -----
 Symbolic Z-matrix:
 Charge =  0 Multiplicity = 1

 SCF Done:  E(RB3LYP) =  -423.155973697     A.U. after   14 cycles
 Optimization completed.
    -- Stationary point found.
 Normal termination of Gaussian 09 at Mon Jan 27 16:19:50 2020.

 ----------------------------------------------------------------------
 #N Geom=AllCheck Guess=TCheck SCRF=Check GenChk RB3LYP/6-31G(2df,p) Fr
 eq
 ----------------------------------------------------------------------

 Structure from the checkpoint file:  "/scratch/puck/g09_d71fb63a-6e6c-40ff-8de5-259a52be0fe5/Gau-57100.chk"
 -----
 titel
 -----
 Charge =  0 Multiplicity = 1

                         Standard orientation:
 ---------------------------------------------------------------------
 Center     Atomic      Atomic             Coordinates (Angstroms)
 Number     Number       Type             X           Y           Z
 ---------------------------------------------------------------------
      1          6           0        1.236972   -0.643503    1.411659
      2          6           0        1.181195   -0.045794    0.015401
      3          8           0        2.286335   -0.419922   -0.776912
      4          6           0        0.804055    1.506549   -0.009475
      5          6           0       -0.605957    1.030164   -0.257174
      6          6           0       -1.813738    0.943152    0.286710
      7          6           0       -2.312737   -0.478076    0.062864
      8          8           0       -1.153144   -1.236219   -0.342217
      9          6           0       -0.170751   -0.308560   -0.750501
     10          1           0        1.291007   -1.733616    1.350223
     11          1           0        2.118924   -0.277677    1.951784
     12          1           0        0.351545   -0.375264    1.993032
     13          1           0        3.090604   -0.255902   -0.272433
     14          1           0        0.987563    2.102672    0.887194
     15          1           0        1.275731    1.979025   -0.875588
     16          1           0       -2.334747    1.660124    0.908608
     17          1           0       -2.715505   -0.915338    0.985773
     18          1           0       -3.095005   -0.557800   -0.708965
     19          1           0        0.050120   -0.400686   -1.823503
 ---------------------------------------------------------------------

 SCF Done:  E(RB3LYP) =  -423.155973697     A.U. after    1 cycles

 The electronic state is 1-A.
 Alpha  occ. eigenvalues --  -19.13981 -19.13459 -10.24455 -10.23051 -10.21999
 Alpha  occ. eigenvalues --  -10.19332 -10.18599 -10.18425 -10.17786  -1.03405
 Alpha  occ. eigenvalues --   -1.02148  -0.84497  -0.76348  -0.71700  -0.67427
 Alpha  occ. eigenvalues --   -0.62768  -0.56494  -0.53444  -0.50264  -0.48572
 Alpha  occ. eigenvalues --   -0.45826  -0.44739  -0.42608  -0.42129  -0.40881
 Alpha  occ. eigenvalues --   -0.39404  -0.36207  -0.35996  -0.34052  -0.32447
 Alpha  occ. eigenvalues --   -0.30508  -0.27747  -0.24961  -0.22814
 Alpha virt. eigenvalues --    0.00621   0.07672   0.10510   0.11797   0.12527
 Alpha virt. eigenvalues --    0.14005   0.14628   0.15625   0.16066   0.16663
 Alpha virt. eigenvalues --    0.17755   0.18111   0.18651   0.19957   0.21629

 Mulliken charges:
               1
     1  C   -0.441369
     2  C    0.348108
     3  O   -0.474878
     4  C   -0.381573
     5  C    0.233899
     6  C   -0.245376
     7  C   -0.106922
     8  O   -0.278366
     9  C    0.068462
    10  H    0.136372
    11  H    0.102273
    12  H    0.127683
    13  H    0.277108
    14  H    0.108587
    15  H    0.118592
    16  H    0.103202
    17  H    0.110796
    18  H    0.105516
    19  H    0.087885
 Sum of Mulliken charges =   0.00000

 Dipole moment (field-independent basis, Debye):
    X=              0.5319    Y=              1.6726    Z=              1.6709  Tot=              2.4233
 Quadrupole moment (field-independent basis, Debye-Ang):
   XX=            -46.3819   YY=            -55.9400   ZZ=            -53.5365
   XY=              0.3519   XZ=              1.4644   YZ=             -0.5950

  Exact polarizability:  98.668   2.606  68.381  -4.946   1.174  66.144
 Approx polarizability: 141.607   4.067 101.949 -15.127   3.131 101.830

                      1                      2                      3
                      A                      A                      A
 Frequencies --    114.9870               190.9168               215.0051
 Red. masses --      3.2240                 2.9834                 1.6959
 Frc consts  --      0.0251                 0.0641                 0.0462
 IR Inten    --      1.9494                 0.3571                 4.1339

                      4                      5                      6
                      A                      A                      A
 Frequencies --    235.2621               264.0834               288.2201
 Red. masses --      1.3629                 1.1897                 3.4811
 Frc consts  --      0.0444                 0.0489                 0.1704
 IR Inten    --      5.9935                76.6412                 2.2824

                      7                      8                      9
                      A                      A                      A
 Frequencies --    342.2550               380.1009               413.3852
 Red. masses --      2.2897                 2.8020                 2.9843
 Frc consts  --      0.1580                 0.2385                 0.3005
 IR Inten    --     14.3433                 2.6635                12.7295

                     10                     11                     12
                      A                      A                      A
 Frequencies --    524.2243               629.2282               662.5605
 Red. masses --      2.8640                 4.6374                 4.2095
 Frc consts  --      0.4637                 1.0818                 1.0888
 IR Inten    --      5.5078                 5.2079                 0.9646

                     13                     14                     15
                      A                      A                      A
 Frequencies --    761.2598               768.5163               793.4063
 Red. masses --      2.7177                 3.6946                 1.8994
 Frc consts  --      0.9279                 1.2856                 0.7045
 IR Inten    --     12.6077                 4.3066                 8.2795

                     16                     17                     18
                      A                      A                      A
 Frequencies --    848.5428               902.2681               918.6414
 Red. masses --      2.5426                 1.8341                 2.4154
 Frc consts  --      1.0787                 0.8797                 1.2010
 IR Inten    --      7.3069                 9.4490                 2.0772

                     19                     20                     21
                      A                      A                      A
 Frequencies --    948.7372               967.5731               976.3379
 Red. masses --      2.2158                 2.3179                 2.9210
 Frc consts  --      1.1751                 1.2785                 1.6405
 IR Inten    --      9.7062                32.7514                 9.3807

                     22                     23                     24
                      A                      A                      A
 Frequencies --   1026.6149              1049.2268              1078.9544
 Red. masses --      1.8382                 1.4374                 2.2123
 Frc consts  --      1.1415                 0.9323                 1.5174
 IR Inten    --     11.3748                 2.4025               110.1949

                     25                     26                     27
                      A                      A                      A
 Frequencies --   1116.8241              1139.5225              1165.2639
 Red. masses --      2.6395                 2.0911                 1.9934
 Frc consts  --      1.9397                 1.5998                 1.5947
 IR Inten    --     32.8942                13.2412                58.4570

                     28                     29                     30
                      A                      A                      A
 Frequencies --   1187.1367              1194.6642              1197.9628
 Red. masses --      1.7119                 1.4355                 1.3713
 Frc consts  --      1.4215                 1.2071                 1.1595
 IR Inten    --      1.9743                 1.9708                 9.5169

                     31                     32                     33
                      A                      A                      A
 Frequencies --   1255.6228              1296.7801              1341.0405
 Red. masses --      1.6318                 2.0554                 1.3809
 Frc consts  --      1.5158                 2.0365                 1.4632
 IR Inten    --     24.8374                 7.3490                13.9586

                     34                     35                     36
                      A                      A                      A
 Frequencies --   1365.4230              1381.6402              1409.0296
 Red. masses --      1.6972                 1.4925                 1.3171
 Frc consts  --      1.8644                 1.6786                 1.5407
 IR Inten    --     18.3647                10.5628                12.3956

                     37                     38                     39
                      A                      A                      A
 Frequencies --   1471.6800              1488.6116              1491.5245
 Red. masses --      1.1102                 1.0532                 1.0736
 Frc consts  --      1.4166                 1.3751                 1.4072
 IR Inten    --      3.8104                 2.0702                 5.8549

                     40                     41                     42
                      A                      A                      A
 Frequencies --   1516.7419              1732.1247              2974.4091
 Red. masses --      1.0895                 8.3979                 1.0688
 Frc consts  --      1.4767                14.8450                 5.5712
 IR Inten    --      1.6209                 3.0279                94.2847

                     43                     44                     45
                      A                      A                      A
 Frequencies --   3005.9530              3029.2625              3031.5212
 Red. masses --      1.0833                 1.0416                 1.0932
 Frc consts  --      5.7674                 5.6317                 5.9191
 IR Inten    --     40.6951                23.4462                38.0772

                     46                     47                     48
                      A                      A                      A
 Frequencies --   3058.8891              3102.5316              3118.4946
 Red. masses --      1.0572                 1.0935                 1.1085
 Frc consts  --      5.8283                 6.2018                 6.3514
 IR Inten    --     29.4892                17.8204                13.7245

                     49                     50                     51
                      A                      A                      A
 Frequencies --   3130.3900              3212.9798              3801.2722
 Red. masses --      1.1018                 1.0958                 1.0659
 Frc consts  --      6.3613                 6.6652                 9.0746
 IR Inten    --     15.5909                 6.9515                16.6495

 - Thermochemistry -
 -------------------
 Temperature   298.150 Kelvin.  Pressure   1.00000 Atm.
 Atom     1 has atomic number  6 and mass  12.00000

 Molecular mass:   126.06808 amu.
 Principal axes and moments of inertia in atomic units:
                           1         2         3
     Eigenvalues --   583.594161278.891681428.42757
           X            0.99991   0.00657   0.01167
           Y           -0.00611   0.99923  -0.03879
           Z           -0.01191   0.03872   0.99918
 This molecule is an asymmetric top.
 Rotational symmetry number  1.
 Warning -- assumption of classical behavior for rotation
           may cause significant error
 Rotational temperatures (Kelvin)      0.14841     0.06773     0.06064
 Rotational constants (GHZ):           3.09246     1.41118     1.26345
 Zero-point vibrational energy     415807.6 (Joules/Mol)
                                   99.38040 (Kcal/Mol)
 Warning -- explicit consideration of  10 degrees of freedom as
           vibrations may cause significant error
 Vibrational temperatures:    165.44   274.69   309.34   338.49   379.96
          (Kelvin)            414.68   492.43   546.88   594.77   754.24
                              905.32   953.28  1095.28  1105.72  1141.53
                             1220.86  1298.16  1321.72  1365.02  1392.12
                             1404.73  1477.07  1509.60  1552.37  1606.86
                             1639.52  1676.55  1708.02  1718.85  1723.60
                             1806.56  1865.78  1929.46  1964.54  1987.87
                             2027.28  2117.42  2141.78  2145.97  2182.25
                             2492.14  4279.51  4324.89  4358.43  4361.68
                             4401.05  4463.85  4486.81  4503.93  4622.76
                             5469.18

 Zero-point correction=                           0.158373 (Hartree/Particle)
 Thermal correction to Energy=                    0.166751
 Thermal correction to Enthalpy=                  0.167695
 Thermal correction to Gibbs Free Energy=         0.125932
 Sum of electronic and zero-point Energies=           -422.997601
 Sum of electronic and thermal Energies=              -422.989223
 Sum of electronic and thermal Enthalpies=            -422.988278
 Sum of electronic and thermal Free Energies=         -423.030042

                     E (Thermal)             CV                S
                      KCal/Mol        Cal/Mol-Kelvin    Cal/Mol-Kelvin
 Total                  104.638             32.759             87.898
 Electronic               0.000              0.000              0.000
 Translational            0.889              2.981             40.409
 Rotational               0.889              2.981             28.457
 Vibrational            102.860             26.797             19.033
 Vibration     1          0.608              1.937              3.183
 Vibration     2          0.634              1.852              2.219
 Vibration     3          0.645              1.818              2.001
 Vibration     4          0.655              1.787              1.838
 Vibration     5          0.671              1.739              1.635
 Vibration     6          0.685              1.696              1.484
 Vibration     7          0.721              1.591              1.202
 Vibration     8          0.750              1.513              1.039
 Vibration     9          0.777              1.441              0.915
 Vibration    10          0.879              1.196              0.600

 Optimization completed.
    -- Stationary point found.
 Normal termination of Gaussian 09 at Mon Jan 27 17:04:14 2020.
