 Gaussian 09, Revision D.01,
 Gaussian 09:  ES64L-G09RevD.01 24-Apr-2013

 -----------------------------
 # b3lyp 6-31G(2df,p) opt Freq
 -----------------------------

 -----
 titel
 -----
 Symbolic Z-matrix:
 Charge =  0 Multiplicity = 1

 SCF Done:  E(RB3LYP) =  -423.124492797     A.U. after   14 cycles
 Optimization completed.
    -- Stationary point found.
 Normal termination of Gaussian 09 at Tue Jan 28 08:12:04 2020.

 ----------------------------------------------------------------------
 #N Geom=AllCheck Guess=TCheck SCRF=Check GenChk RB3LYP/6-31G(2df,p) Fr
 eq
 ----------------------------------------------------------------------

 Structure from the checkpoint file:  "/scratch/puck/g09_9ab2bb62-324b-482d-b58a-df989fb80293/Gau-104654.chk"
 -----
 titel
 -----
 Charge =  0 Multiplicity = 1

                         Standard orientation:
 ---------------------------------------------------------------------
 Center     Atomic      Atomic             Coordinates (Angstroms)
 Number     Number       Type             X           Y           Z
 ---------------------------------------------------------------------
      1          6           0        1.195127    1.817505   -0.016544
      2          6           0        1.005507    0.294864   -0.000645
      3          6           0        1.917425   -0.440567   -1.030946
      4          8           0        2.842479   -0.825753    0.001176
      5          6           0        1.927371   -0.421090    1.034234
      6          6           0       -0.398688   -0.073957    0.006945
      7          6           0       -1.564028   -0.384091   -0.001630
      8          6           0       -2.988419   -0.716404    0.022575
      9          8           0       -3.838661    0.416466   -0.091342
     10          1           0        0.741173    2.274506    0.867806
     11          1           0        2.261862    2.062151   -0.025032
     12          1           0        0.729547    2.256813   -0.903561
     13          1           0        1.442349   -1.307025   -1.506800
     14          1           0        2.384437    0.190873   -1.795376
     15          1           0        1.457067   -1.278571    1.531051
     16          1           0        2.402045    0.224251    1.782357
     17          1           0       -3.238949   -1.361503   -0.827026
     18          1           0       -3.210972   -1.294716    0.933903
     19          1           0       -3.564881    1.049952    0.580077
 ---------------------------------------------------------------------

 SCF Done:  E(RB3LYP) =  -423.124492797     A.U. after    1 cycles

 The electronic state is 1-A.
 Alpha  occ. eigenvalues --  -19.14278 -19.13743 -10.25419 -10.23586 -10.23558
 Alpha  occ. eigenvalues --  -10.22562 -10.18981 -10.18252 -10.17935  -1.04464
 Alpha  occ. eigenvalues --   -1.02449  -0.81360  -0.75759  -0.69684  -0.69389
 Alpha  occ. eigenvalues --   -0.67051  -0.57885  -0.53200  -0.51380  -0.48791
 Alpha  occ. eigenvalues --   -0.47275  -0.46374  -0.44582  -0.42352  -0.40185
 Alpha  occ. eigenvalues --   -0.39259  -0.38939  -0.35898  -0.33803  -0.32292
 Alpha  occ. eigenvalues --   -0.28762  -0.26251  -0.25456  -0.25322
 Alpha virt. eigenvalues --    0.02721   0.04113   0.07764   0.09320   0.10166
 Alpha virt. eigenvalues --    0.12779   0.13219   0.14165   0.15331   0.16035
 Alpha virt. eigenvalues --    0.16572   0.17418   0.18371   0.20036   0.20555

 Mulliken charges:
               1
     1  C   -0.449571
     2  C    0.096106
     3  C   -0.103769
     4  O   -0.268959
     5  C   -0.103886
     6  C   -0.005083
     7  C    0.078569
     8  C   -0.195838
     9  O   -0.400722
    10  H    0.124492
    11  H    0.128413
    12  H    0.130266
    13  H    0.106218
    14  H    0.107060
    15  H    0.104540
    16  H    0.105857
    17  H    0.141299
    18  H    0.118165
    19  H    0.286845
 Sum of Mulliken charges =   0.00000

 Dipole moment (field-independent basis, Debye):
    X=             -0.1959    Y=              0.8290    Z=              0.9841  Tot=              1.3016
 Quadrupole moment (field-independent basis, Debye-Ang):
   XX=            -64.1679   YY=            -51.3105   ZZ=            -50.2756
   XY=              4.7594   XZ=             -3.8026   YZ=              1.5223

  Exact polarizability: 106.694   6.723  69.917  -0.283   0.911  66.812
 Approx polarizability: 151.314  10.971  97.898   0.960   1.574  97.367

                      1                      2                      3
                      A                      A                      A
 Frequencies --     21.7215                71.2613               105.7070
 Red. masses --      3.0468                 5.5921                 3.5162
 Frc consts  --      0.0008                 0.0167                 0.0231
 IR Inten    --      2.1407                 2.3086                 1.2581

                      4                      5                      6
                      A                      A                      A
 Frequencies --    107.6940               190.8669               248.4444
 Red. masses --      2.8512                 3.6169                 1.4398
 Frc consts  --      0.0195                 0.0776                 0.0524
 IR Inten    --      3.9441                 2.8310                10.0328

                      7                      8                      9
                      A                      A                      A
 Frequencies --    269.6057               320.4837               333.8346
 Red. masses --      1.4102                 1.5080                 2.3509
 Frc consts  --      0.0604                 0.0913                 0.1544
 IR Inten    --     20.7925                69.0014                 3.8842

                     10                     11                     12
                      A                      A                      A
 Frequencies --    354.6216               477.6187               517.1966
 Red. masses --      2.0835                 4.0697                 5.6959
 Frc consts  --      0.1544                 0.5470                 0.8977
 IR Inten    --     29.5911                 2.0555                10.7217

                     13                     14                     15
                      A                      A                      A
 Frequencies --    522.6513               619.9774               835.7329
 Red. masses --      5.2154                 5.8840                 3.8852
 Frc consts  --      0.8394                 1.3325                 1.5988
 IR Inten    --      4.0105                 4.3303                11.4965

                     16                     17                     18
                      A                      A                      A
 Frequencies --    854.3991               914.3928               933.7152
 Red. masses --      2.5866                 1.8513                 1.9162
 Frc consts  --      1.1125                 0.9120                 0.9843
 IR Inten    --      6.8930                 0.3980                 8.8848

                     19                     20                     21
                      A                      A                      A
 Frequencies --    972.5959               985.0317              1014.4462
 Red. masses --      1.5691                 1.6157                 3.1697
 Frc consts  --      0.8745                 0.9237                 1.9219
 IR Inten    --      2.0845                44.6446                14.1945

                     22                     23                     24
                      A                      A                      A
 Frequencies --   1034.5534              1040.6907              1082.9242
 Red. masses --      3.3984                11.1110                 3.1344
 Frc consts  --      2.1430                 7.0900                 2.1657
 IR Inten    --     51.1595                83.8718                29.1368

                     25                     26                     27
                      A                      A                      A
 Frequencies --   1154.1403              1163.3379              1164.0313
 Red. masses --      1.4762                 1.4033                 1.4002
 Frc consts  --      1.1585                 1.1190                 1.1178
 IR Inten    --      0.0441                 0.6996                 1.7657

                     28                     29                     30
                      A                      A                      A
 Frequencies --   1210.6251              1215.6435              1305.1563
 Red. masses --      2.7204                 1.1068                 1.3029
 Frc consts  --      2.3491                 0.9637                 1.3076
 IR Inten    --      7.1265                11.9489                 2.1489

                     31                     32                     33
                      A                      A                      A
 Frequencies --   1305.7975              1359.1820              1369.5922
 Red. masses --      2.9437                 1.2189                 1.4659
 Frc consts  --      2.9573                 1.3267                 1.6201
 IR Inten    --     31.9283                 5.1306                 2.0192

                     34                     35                     36
                      A                      A                      A
 Frequencies --   1409.8843              1418.7087              1490.1705
 Red. masses --      1.2340                 1.2406                 1.0488
 Frc consts  --      1.4452                 1.4712                 1.3722
 IR Inten    --      5.2614               101.9275                 2.4681

                     37                     38                     39
                      A                      A                      A
 Frequencies --   1491.6594              1494.9297              1509.4347
 Red. masses --      1.0783                 1.0579                 1.0740
 Frc consts  --      1.4137                 1.3930                 1.4418
 IR Inten    --      0.6178                 1.3215                 1.7270

                     40                     41                     42
                      A                      A                      A
 Frequencies --   1532.6977              2353.1107              2974.2062
 Red. masses --      1.1092                11.9023                 1.0715
 Frc consts  --      1.5353                38.8297                 5.5845
 IR Inten    --      0.7866                 8.1701                49.2646

                     43                     44                     45
                      A                      A                      A
 Frequencies --   3011.7730              3022.3557              3037.1532
 Red. masses --      1.0524                 1.0568                 1.0347
 Frc consts  --      5.6244                 5.6877                 5.6232
 IR Inten    --    104.9681                 9.1149                12.4957

                     46                     47                     48
                      A                      A                      A
 Frequencies --   3061.3695              3068.0945              3070.7496
 Red. masses --      1.0882                 1.1110                 1.1124
 Frc consts  --      6.0087                 6.1615                 6.1804
 IR Inten    --     17.5789                23.1651                56.7064

                     49                     50                     51
                      A                      A                      A
 Frequencies --   3113.0243              3115.5639              3817.4449
 Red. masses --      1.1025                 1.1025                 1.0663
 Frc consts  --      6.2950                 6.3050                 9.1550
 IR Inten    --     21.0846                18.4291                18.9891

 - Thermochemistry -
 -------------------
 Temperature   298.150 Kelvin.  Pressure   1.00000 Atm.
 Atom     1 has atomic number  6 and mass  12.00000

 Molecular mass:   126.06808 amu.
 Principal axes and moments of inertia in atomic units:
                           1         2         3
     Eigenvalues --   463.001802562.568292737.68507
           X            0.99985   0.01704  -0.00359
           Y           -0.01701   0.99981   0.00919
           Z            0.00374  -0.00912   0.99995
 This molecule is an asymmetric top.
 Rotational symmetry number  1.
 Warning -- assumption of classical behavior for rotation
           may cause significant error
 Rotational temperatures (Kelvin)      0.18707     0.03380     0.03164
 Rotational constants (GHZ):           3.89791     0.70427     0.65922
 Zero-point vibrational energy     413130.4 (Joules/Mol)
                                   98.74053 (Kcal/Mol)
 Warning -- explicit consideration of  14 degrees of freedom as
           vibrations may cause significant error
 Vibrational temperatures:     31.25   102.53   152.09   154.95   274.61
          (Kelvin)            357.46   387.90   461.10   480.31   510.22
                              687.19   744.13   751.98   892.01  1202.43
                             1229.29  1315.61  1343.41  1399.35  1417.24
                             1459.56  1488.49  1497.32  1558.08  1660.55
                             1673.78  1674.78  1741.82  1749.04  1877.83
                             1878.75  1955.56  1970.54  2028.51  2041.20
                             2144.02  2146.16  2150.87  2171.74  2205.21
                             3385.60  4279.21  4333.26  4348.49  4369.78
                             4404.62  4414.30  4418.12  4478.94  4482.60
                             5492.44

 Zero-point correction=                           0.157353 (Hartree/Particle)
 Thermal correction to Energy=                    0.167385
 Thermal correction to Enthalpy=                  0.168329
 Thermal correction to Gibbs Free Energy=         0.120646
 Sum of electronic and zero-point Energies=           -422.967140
 Sum of electronic and thermal Energies=              -422.957108
 Sum of electronic and thermal Enthalpies=            -422.956163
 Sum of electronic and thermal Free Energies=         -423.003847

                     E (Thermal)             CV                S
                      KCal/Mol        Cal/Mol-Kelvin    Cal/Mol-Kelvin
 Total                  105.036             35.083            100.358
 Electronic               0.000              0.000              0.000
 Translational            0.889              2.981             40.409
 Rotational               0.889              2.981             29.564
 Vibrational            103.258             29.122             30.385
 Vibration     1          0.593              1.985              6.470
 Vibration     2          0.598              1.968              4.118
 Vibration     3          0.605              1.945              3.346
 Vibration     4          0.606              1.943              3.310
 Vibration     5          0.634              1.852              2.219
 Vibration     6          0.662              1.765              1.742
 Vibration     7          0.674              1.729              1.599
 Vibration     8          0.706              1.634              1.308
 Vibration     9          0.715              1.608              1.241
 Vibration    10          0.730              1.566              1.146
 Vibration    11          0.834              1.300              0.717
 Vibration    12          0.872              1.212              0.616
 Vibration    13          0.878              1.200              0.604
 Vibration    14          0.980              0.990              0.417

 Optimization completed.
    -- Stationary point found.
 Normal termination of Gaussian 09 at Tue Jan 28 08:46:06 2020.
