 Gaussian 09, Revision D.01,
 Gaussian 09:  ES64L-G09RevD.01 24-Apr-2013

 -----------------------------
 # b3lyp 6-31G(2df,p) opt Freq
 -----------------------------

 -----
 titel
 -----
 Symbolic Z-matrix:
 Charge =  0 Multiplicity = 1

 SCF Done:  E(RB3LYP) =  -423.132339069     A.U. after   13 cycles
 Optimization completed.
    -- Stationary point found.
 Normal termination of Gaussian 09 at Mon Jan 27 11:59:54 2020.

 ----------------------------------------------------------------------
 #N Geom=AllCheck Guess=TCheck SCRF=Check GenChk RB3LYP/6-31G(2df,p) Fr
 eq
 ----------------------------------------------------------------------

 Structure from the checkpoint file:  "/scratch/puck/g09_b050cb66-c8b8-4959-b717-2e98128898a9/Gau-21040.chk"
 -----
 titel
 -----
 Charge =  0 Multiplicity = 1

                         Standard orientation:
 ---------------------------------------------------------------------
 Center     Atomic      Atomic             Coordinates (Angstroms)
 Number     Number       Type             X           Y           Z
 ---------------------------------------------------------------------
      1          6           0       -1.562652   -1.344827   -0.623003
      2          8           0       -1.450532   -1.163654    0.801120
      3          6           0       -0.993682   -0.131480   -0.044836
      4          6           0       -1.483585    1.309270   -0.001644
      5          8           0       -0.116233    1.773083   -0.059933
      6          6           0        0.426529    0.437718   -0.035812
      7          6           0        1.479971    0.025856   -1.084121
      8          6           0        2.197541   -0.791888    0.027018
      9          6           0        1.397988    0.015849    1.088471
     10          1           0       -0.909053   -2.105549   -1.047414
     11          1           0       -2.578990   -1.334379   -1.014811
     12          1           0       -2.076455    1.656576   -0.855939
     13          1           0       -1.984118    1.588883    0.933304
     14          1           0        1.129955   -0.493546   -1.980136
     15          1           0        2.061040    0.901770   -1.386503
     16          1           0        1.912634   -1.847004    0.015228
     17          1           0        3.286110   -0.726650    0.066205
     18          1           0        0.968011   -0.524530    1.934036
     19          1           0        1.952328    0.886005    1.450104
 ---------------------------------------------------------------------

 SCF Done:  E(RB3LYP) =  -423.132339069     A.U. after    1 cycles

 The electronic state is 1-A.
 Alpha  occ. eigenvalues --  -19.16065 -19.13710 -10.24711 -10.24177 -10.23731
 Alpha  occ. eigenvalues --  -10.23267 -10.18542 -10.18254 -10.17844  -1.08406
 Alpha  occ. eigenvalues --   -1.03895  -0.83896  -0.71638  -0.67591  -0.66771
 Alpha  occ. eigenvalues --   -0.65745  -0.58895  -0.52721  -0.51105  -0.50243
 Alpha  occ. eigenvalues --   -0.47080  -0.46391  -0.44521  -0.41793  -0.39082
 Alpha  occ. eigenvalues --   -0.38395  -0.37500  -0.34235  -0.33087  -0.31920
 Alpha  occ. eigenvalues --   -0.31491  -0.30235  -0.26634  -0.24686
 Alpha virt. eigenvalues --    0.06501   0.08150   0.08872   0.10699   0.11607
 Alpha virt. eigenvalues --    0.11891   0.14483   0.14808   0.15502   0.16066
 Alpha virt. eigenvalues --    0.18386   0.18620   0.20363   0.20948   0.21309

 Mulliken charges:
               1
     1  C   -0.260148
     2  O   -0.257728
     3  C    0.295832
     4  C   -0.160843
     5  O   -0.332210
     6  C    0.384207
     7  C   -0.292762
     8  C   -0.215787
     9  C   -0.283838
    10  H    0.122167
    11  H    0.120541
    12  H    0.109114
    13  H    0.116685
    14  H    0.095097
    15  H    0.117532
    16  H    0.108689
    17  H    0.104413
    18  H    0.115515
    19  H    0.113525
 Sum of Mulliken charges =   0.00000

 Dipole moment (field-independent basis, Debye):
    X=             -0.1648    Y=             -0.8165    Z=             -1.3877  Tot=              1.6185
 Quadrupole moment (field-independent basis, Debye-Ang):
   XX=            -49.6345   YY=            -56.2358   ZZ=            -53.3893
   XY=             -1.6447   XZ=              2.7648   YZ=              2.8719

  Exact polarizability:  84.027  -1.857  73.232   2.240   3.273  67.313
 Approx polarizability: 108.349   0.906 108.546   1.365   2.506 102.975

                      1                      2                      3
                      A                      A                      A
 Frequencies --     81.6723               105.1764               186.6452
 Red. masses --      3.0835                 2.5710                 2.8073
 Frc consts  --      0.0121                 0.0168                 0.0576
 IR Inten    --      3.0256                 0.0786                 2.2643

                      4                      5                      6
                      A                      A                      A
 Frequencies --    247.1986               290.5531               349.3995
 Red. masses --      2.2996                 2.9514                 3.1022
 Frc consts  --      0.0828                 0.1468                 0.2231
 IR Inten    --      0.5282                 4.0413                 1.8557

                      7                      8                      9
                      A                      A                      A
 Frequencies --    434.6964               489.3853               510.8545
 Red. masses --      2.7604                 3.5795                 3.5994
 Frc consts  --      0.3073                 0.5051                 0.5534
 IR Inten    --      8.5974                 1.1578                 4.4293

                     10                     11                     12
                      A                      A                      A
 Frequencies --    585.5429               699.8770               777.0252
 Red. masses --      4.7589                 1.5149                 1.2407
 Frc consts  --      0.9613                 0.4372                 0.4414
 IR Inten    --      1.8412                 4.7585                 0.6515

                     13                     14                     15
                      A                      A                      A
 Frequencies --    831.3716               865.5277               880.1931
 Red. masses --      2.0677                 2.6404                 1.6917
 Frc consts  --      0.8420                 1.1654                 0.7722
 IR Inten    --      5.4728                27.6111                 4.0858

                     16                     17                     18
                      A                      A                      A
 Frequencies --    908.4689               924.7269               931.4250
 Red. masses --      2.3271                 2.6658                 4.1763
 Frc consts  --      1.1316                 1.3431                 2.1347
 IR Inten    --     10.7693                 1.4709                18.5980

                     19                     20                     21
                      A                      A                      A
 Frequencies --    964.7631              1014.1440              1020.7139
 Red. masses --      3.4886                 3.3717                 1.4973
 Frc consts  --      1.9131                 2.0431                 0.9191
 IR Inten    --     19.1848                79.9518                26.1304

                     22                     23                     24
                      A                      A                      A
 Frequencies --   1043.5580              1122.4449              1123.2597
 Red. masses --      2.2832                 1.7029                 1.7222
 Frc consts  --      1.4650                 1.2640                 1.2802
 IR Inten    --     14.6793                 3.4771                 1.0684

                     25                     26                     27
                      A                      A                      A
 Frequencies --   1137.0900              1149.9860              1153.8676
 Red. masses --      2.3053                 1.3537                 2.3245
 Frc consts  --      1.7562                 1.0548                 1.8234
 IR Inten    --      6.6603                 9.2290                34.7259

                     28                     29                     30
                      A                      A                      A
 Frequencies --   1172.0073              1201.7244              1206.1813
 Red. masses --      1.5977                 1.3874                 1.7274
 Frc consts  --      1.2930                 1.1805                 1.4807
 IR Inten    --      5.9360                 0.4416                 0.2050

                     31                     32                     33
                      A                      A                      A
 Frequencies --   1242.7399              1270.3760              1272.0157
 Red. masses --      1.2026                 1.4632                 1.6022
 Frc consts  --      1.0942                 1.3913                 1.5274
 IR Inten    --      0.4535                 1.1248                12.0432

                     34                     35                     36
                      A                      A                      A
 Frequencies --   1311.9042              1325.6044              1454.0489
 Red. masses --      2.3701                 1.5648                 1.8533
 Frc consts  --      2.4034                 1.6200                 2.3086
 IR Inten    --     10.7471                 8.0075                 9.8167

                     37                     38                     39
                      A                      A                      A
 Frequencies --   1463.4367              1481.3852              1502.5746
 Red. masses --      1.0952                 1.0882                 1.1327
 Frc consts  --      1.3819                 1.4070                 1.5067
 IR Inten    --      4.8010                 3.6126                 2.9016

                     40                     41                     42
                      A                      A                      A
 Frequencies --   1514.7044              1542.8602              3020.0201
 Red. masses --      1.1073                 1.9379                 1.0550
 Frc consts  --      1.4968                 2.7179                 5.6692
 IR Inten    --      0.1472                12.5437                61.8735

                     43                     44                     45
                      A                      A                      A
 Frequencies --   3056.1057              3066.6980              3067.7724
 Red. masses --      1.0576                 1.0588                 1.1086
 Frc consts  --      5.8201                 5.8670                 6.1471
 IR Inten    --     30.3959                20.0154                33.7122

                     46                     47                     48
                      A                      A                      A
 Frequencies --   3070.0761              3083.1964              3106.4054
 Red. masses --      1.0625                 1.0505                 1.1070
 Frc consts  --      5.9003                 5.8835                 6.2936
 IR Inten    --     17.9210                22.4166                 9.4640

                     49                     50                     51
                      A                      A                      A
 Frequencies --   3120.2638              3133.0719              3169.9509
 Red. masses --      1.1074                 1.1078                 1.1193
 Frc consts  --      6.3525                 6.4070                 6.6265
 IR Inten    --     17.8738                32.9480                19.6677

 - Thermochemistry -
 -------------------
 Temperature   298.150 Kelvin.  Pressure   1.00000 Atm.
 Atom     1 has atomic number  6 and mass  12.00000

 Molecular mass:   126.06808 amu.
 Principal axes and moments of inertia in atomic units:
                           1         2         3
     Eigenvalues --   716.045451110.199051407.24900
           X            0.99893  -0.04336   0.01586
           Y            0.04266   0.99822   0.04162
           Z           -0.01764  -0.04090   0.99901
 This molecule is an asymmetric top.
 Rotational symmetry number  1.
 Warning -- assumption of classical behavior for rotation
           may cause significant error
 Rotational temperatures (Kelvin)      0.12096     0.07802     0.06155
 Rotational constants (GHZ):           2.52043     1.62560     1.28246
 Zero-point vibrational energy     416807.0 (Joules/Mol)
                                   99.61927 (Kcal/Mol)
 Warning -- explicit consideration of  10 degrees of freedom as
           vibrations may cause significant error
 Vibrational temperatures:    117.51   151.33   268.54   355.66   418.04
          (Kelvin)            502.71   625.43   704.12   735.00   842.46
                             1006.97  1117.96  1196.16  1245.30  1266.40
                             1307.08  1330.47  1340.11  1388.08  1459.13
                             1468.58  1501.45  1614.95  1616.12  1636.02
                             1654.57  1660.16  1686.26  1729.01  1735.42
                             1788.02  1827.79  1830.14  1887.54  1907.25
                             2092.05  2105.56  2131.38  2161.87  2179.32
                             2219.83  4345.13  4397.05  4412.29  4413.83
                             4417.15  4436.03  4469.42  4489.36  4507.79
                             4560.85

 Zero-point correction=                           0.158753 (Hartree/Particle)
 Thermal correction to Energy=                    0.166770
 Thermal correction to Enthalpy=                  0.167714
 Thermal correction to Gibbs Free Energy=         0.126000
 Sum of electronic and zero-point Energies=           -422.973586
 Sum of electronic and thermal Energies=              -422.965569
 Sum of electronic and thermal Enthalpies=            -422.964625
 Sum of electronic and thermal Free Energies=         -423.006339

                     E (Thermal)             CV                S
                      KCal/Mol        Cal/Mol-Kelvin    Cal/Mol-Kelvin
 Total                  104.650             30.919             87.795
 Electronic               0.000              0.000              0.000
 Translational            0.889              2.981             40.409
 Rotational               0.889              2.981             28.505
 Vibrational            102.872             24.957             18.881
 Vibration     1          0.600              1.962              3.850
 Vibration     2          0.605              1.945              3.356
 Vibration     3          0.632              1.858              2.261
 Vibration     4          0.661              1.767              1.750
 Vibration     5          0.687              1.691              1.471
 Vibration     6          0.727              1.576              1.169
 Vibration     7          0.795              1.395              0.843
 Vibration     8          0.845              1.274              0.685
 Vibration     9          0.866              1.226              0.632
 Vibration    10          0.943              1.063              0.475

 Optimization completed.
    -- Stationary point found.
 Normal termination of Gaussian 09 at Mon Jan 27 12:43:44 2020.
