 Gaussian 09, Revision D.01,
 Gaussian 09:  ES64L-G09RevD.01 24-Apr-2013

 -----------------------------
 # b3lyp 6-31G(2df,p) opt Freq
 -----------------------------

 -----
 titel
 -----
 Symbolic Z-matrix:
 Charge =  0 Multiplicity = 1

 SCF Done:  E(RB3LYP) =  -423.155145663     A.U. after   14 cycles
 Optimization completed.
    -- Stationary point found.
 Normal termination of Gaussian 09 at Tue Jan 28 01:59:44 2020.

 ----------------------------------------------------------------------
 #N Geom=AllCheck Guess=TCheck SCRF=Check GenChk RB3LYP/6-31G(2df,p) Fr
 eq
 ----------------------------------------------------------------------

 Structure from the checkpoint file:  "/scratch/puck/g09_99f3adcd-1b6f-4ad3-97fc-2bd4e6080466/Gau-26662.chk"
 -----
 titel
 -----
 Charge =  0 Multiplicity = 1

                         Standard orientation:
 ---------------------------------------------------------------------
 Center     Atomic      Atomic             Coordinates (Angstroms)
 Number     Number       Type             X           Y           Z
 ---------------------------------------------------------------------
      1          6           0       -2.905246   -0.320060   -0.379006
      2          6           0       -1.470116   -0.798618   -0.375547
      3          6           0       -0.758741   -1.104459    0.923673
      4          6           0       -0.369383    0.095069    0.111153
      5          6           0       -0.403949    1.575879    0.476903
      6          8           0        0.873223    1.787632   -0.173632
      7          6           0        0.978410    0.405314   -0.559391
      8          6           0        2.174022   -0.283623    0.065293
      9          8           0        2.472540   -1.427196   -0.167829
     10          1           0       -3.134998    0.253933   -1.283397
     11          1           0       -3.599462   -1.165736   -0.334490
     12          1           0       -3.112716    0.321826    0.483967
     13          1           0       -1.202659   -1.440825   -1.211965
     14          1           0       -1.295493   -0.928168    1.851714
     15          1           0       -0.069103   -1.941645    0.951620
     16          1           0       -1.200045    2.168180    0.008630
     17          1           0       -0.358761    1.813866    1.547094
     18          1           0        1.002656    0.267773   -1.649026
     19          1           0        2.734511    0.350283    0.789067
 ---------------------------------------------------------------------

 SCF Done:  E(RB3LYP) =  -423.155145663     A.U. after    1 cycles

 The electronic state is 1-A.
 Alpha  occ. eigenvalues --  -19.14671 -19.14549 -10.27231 -10.24582 -10.24102
 Alpha  occ. eigenvalues --  -10.21307 -10.20370 -10.19377 -10.18906  -1.05800
 Alpha  occ. eigenvalues --   -1.04587  -0.87356  -0.73685  -0.72134  -0.68908
 Alpha  occ. eigenvalues --   -0.61043  -0.58207  -0.54470  -0.51326  -0.49122
 Alpha  occ. eigenvalues --   -0.47740  -0.45668  -0.43118  -0.42604  -0.41722
 Alpha  occ. eigenvalues --   -0.40178  -0.39186  -0.36475  -0.36021  -0.33463
 Alpha  occ. eigenvalues --   -0.30121  -0.28265  -0.27835  -0.24181
 Alpha virt. eigenvalues --   -0.03221   0.06553   0.09094   0.10194   0.10384
 Alpha virt. eigenvalues --    0.12801   0.13070   0.14162   0.14879   0.15782
 Alpha virt. eigenvalues --    0.16468   0.17847   0.19926   0.20732   0.22220

 Mulliken charges:
               1
     1  C   -0.412764
     2  C   -0.052905
     3  C   -0.357557
     4  C    0.272517
     5  C   -0.142193
     6  O   -0.294683
     7  C   -0.023600
     8  C    0.130671
     9  O   -0.248105
    10  H    0.123012
    11  H    0.126120
    12  H    0.116325
    13  H    0.097230
    14  H    0.113837
    15  H    0.137515
    16  H    0.108821
    17  H    0.108466
    18  H    0.105961
    19  H    0.091334
 Sum of Mulliken charges =   0.00000

 Dipole moment (field-independent basis, Debye):
    X=             -2.5160    Y=              0.6244    Z=              0.4666  Tot=              2.6340
 Quadrupole moment (field-independent basis, Debye-Ang):
   XX=            -55.5822   YY=            -59.1477   ZZ=            -50.8699
   XY=              2.4065   XZ=              0.4469   YZ=              0.8381

  Exact polarizability:  86.861  -2.160  75.293   1.821   2.443  66.509
 Approx polarizability: 110.722  -4.525 116.834   0.418   4.518 101.356

                      1                      2                      3
                      A                      A                      A
 Frequencies --     55.0851                69.2132               141.3881
 Red. masses --      3.5161                 4.0338                 2.6141
 Frc consts  --      0.0063                 0.0114                 0.0308
 IR Inten    --     10.8261                 1.4237                 0.7510

                      4                      5                      6
                      A                      A                      A
 Frequencies --    167.9998               195.7707               214.3053
 Red. masses --      2.6485                 1.2374                 2.4150
 Frc consts  --      0.0440                 0.0279                 0.0653
 IR Inten    --      4.2924                 0.0906                 1.8936

                      7                      8                      9
                      A                      A                      A
 Frequencies --    296.2278               373.0343               420.0850
 Red. masses --      2.5682                 2.8638                 2.3087
 Frc consts  --      0.1328                 0.2348                 0.2400
 IR Inten    --      2.7532                14.1292                 2.4456

                     10                     11                     12
                      A                      A                      A
 Frequencies --    455.5390               516.2676               586.8384
 Red. masses --      5.4019                 2.7906                 4.7582
 Frc consts  --      0.6605                 0.4382                 0.9654
 IR Inten    --      0.4546                 7.3786                 4.7479

                     13                     14                     15
                      A                      A                      A
 Frequencies --    789.1677               832.3496               872.6956
 Red. masses --      2.3080                 3.3893                 1.5208
 Frc consts  --      0.8469                 1.3835                 0.6824
 IR Inten    --      1.5388                13.3795                 3.4496

                     16                     17                     18
                      A                      A                      A
 Frequencies --    889.7840               915.5275               993.8496
 Red. masses --      1.4064                 2.4957                 1.4466
 Frc consts  --      0.6561                 1.2325                 0.8419
 IR Inten    --      0.1846                10.1305                 3.8152

                     19                     20                     21
                      A                      A                      A
 Frequencies --    995.0978              1011.2227              1043.2634
 Red. masses --      3.5876                 2.2696                 2.4016
 Frc consts  --      2.0931                 1.3674                 1.5401
 IR Inten    --     16.8982                30.5762                47.1270

                     22                     23                     24
                      A                      A                      A
 Frequencies --   1049.3048              1071.7013              1111.3881
 Red. masses --      2.0470                 1.5914                 2.5299
 Frc consts  --      1.3279                 1.0769                 1.8412
 IR Inten    --     36.4050                 1.7264                 9.5933

                     25                     26                     27
                      A                      A                      A
 Frequencies --   1126.2609              1132.6518              1155.6587
 Red. masses --      2.2445                 1.8162                 1.1587
 Frc consts  --      1.6774                 1.3728                 0.9117
 IR Inten    --      3.5647                 1.4720                 1.2515

                     28                     29                     30
                      A                      A                      A
 Frequencies --   1186.0972              1214.7698              1230.9615
 Red. masses --      1.6699                 1.6852                 1.8994
 Frc consts  --      1.3842                 1.4652                 1.6957
 IR Inten    --      0.0077                 3.0167                 8.9102

                     31                     32                     33
                      A                      A                      A
 Frequencies --   1297.7680              1317.8775              1361.6703
 Red. masses --      1.3561                 1.4244                 1.5265
 Frc consts  --      1.3456                 1.4576                 1.6676
 IR Inten    --      6.2717                 1.8706                 2.5814

                     34                     35                     36
                      A                      A                      A
 Frequencies --   1389.3547              1412.7864              1431.7524
 Red. masses --      1.2683                 1.2612                 1.6305
 Frc consts  --      1.4424                 1.4831                 1.9693
 IR Inten    --      7.2535                 3.2250                 1.4834

                     37                     38                     39
                      A                      A                      A
 Frequencies --   1489.4999              1491.1577              1506.6410
 Red. masses --      1.3147                 1.0715                 1.3558
 Frc consts  --      1.7186                 1.4037                 1.8133
 IR Inten    --      6.4680                 1.8523                 1.7182

                     40                     41                     42
                      A                      A                      A
 Frequencies --   1523.5730              1823.7704              2884.8994
 Red. masses --      1.1025                10.7733                 1.0844
 Frc consts  --      1.5079                21.1124                 5.3175
 IR Inten    --      1.1120               125.2361                96.8903

                     43                     44                     45
                      A                      A                      A
 Frequencies --   3009.2049              3018.2606              3028.8343
 Red. masses --      1.0576                 1.0806                 1.0356
 Frc consts  --      5.6427                 5.7999                 5.5975
 IR Inten    --     76.2168                10.8914                29.1634

                     46                     47                     48
                      A                      A                      A
 Frequencies --   3053.7576              3092.9620              3096.2634
 Red. masses --      1.1109                 1.1005                 1.1004
 Frc consts  --      6.1039                 6.2029                 6.2155
 IR Inten    --     38.9439                17.7525                20.3108

                     49                     50                     51
                      A                      A                      A
 Frequencies --   3121.7419              3133.5962              3211.0571
 Red. masses --      1.0548                 1.0885                 1.1158
 Frc consts  --      6.0567                 6.2977                 6.7785
 IR Inten    --      8.2941                18.2119                 4.5397

 - Thermochemistry -
 -------------------
 Temperature   298.150 Kelvin.  Pressure   1.00000 Atm.
 Atom     1 has atomic number  6 and mass  12.00000

 Molecular mass:   126.06808 amu.
 Principal axes and moments of inertia in atomic units:
                           1         2         3
     Eigenvalues --   683.606221414.322451848.89021
           X            0.99983   0.01665   0.00787
           Y           -0.01672   0.99982   0.00883
           Z           -0.00772  -0.00896   0.99993
 This molecule is an asymmetric top.
 Rotational symmetry number  1.
 Warning -- assumption of classical behavior for rotation
           may cause significant error
 Rotational temperatures (Kelvin)      0.12670     0.06124     0.04685
 Rotational constants (GHZ):           2.64003     1.27605     0.97612
 Zero-point vibrational energy     411574.8 (Joules/Mol)
                                   98.36874 (Kcal/Mol)
 Warning -- explicit consideration of  12 degrees of freedom as
           vibrations may cause significant error
 Vibrational temperatures:     79.26    99.58   203.43   241.71   281.67
          (Kelvin)            308.34   426.21   536.71   604.41   655.42
                              742.79   844.33  1135.43  1197.56  1255.61
                             1280.20  1317.24  1429.93  1431.72  1454.92
                             1501.02  1509.71  1541.94  1599.04  1620.44
                             1629.63  1662.73  1706.53  1747.78  1771.08
                             1867.20  1896.13  1959.14  1998.97  2032.68
                             2059.97  2143.06  2145.44  2167.72  2192.08
                             2624.00  4150.72  4329.57  4342.60  4357.81
                             4393.67  4450.08  4454.83  4491.48  4508.54
                             4619.99

 Zero-point correction=                           0.156761 (Hartree/Particle)
 Thermal correction to Energy=                    0.166007
 Thermal correction to Enthalpy=                  0.166952
 Thermal correction to Gibbs Free Energy=         0.121946
 Sum of electronic and zero-point Energies=           -422.998385
 Sum of electronic and thermal Energies=              -422.989138
 Sum of electronic and thermal Enthalpies=            -422.988194
 Sum of electronic and thermal Free Energies=         -423.033199

                     E (Thermal)             CV                S
                      KCal/Mol        Cal/Mol-Kelvin    Cal/Mol-Kelvin
 Total                  104.171             33.166             94.722
 Electronic               0.000              0.000              0.000
 Translational            0.889              2.981             40.409
 Rotational               0.889              2.981             28.971
 Vibrational            102.394             27.205             25.342
 Vibration     1          0.596              1.976              4.626
 Vibration     2          0.598              1.969              4.176
 Vibration     3          0.615              1.912              2.785
 Vibration     4          0.625              1.882              2.458
 Vibration     5          0.636              1.846              2.172
 Vibration     6          0.644              1.819              2.007
 Vibration     7          0.690              1.681              1.438
 Vibration     8          0.744              1.527              1.067
 Vibration     9          0.783              1.427              0.892
 Vibration    10          0.814              1.349              0.779
 Vibration    11          0.871              1.214              0.619
 Vibration    12          0.944              1.060              0.473

 Optimization completed.
    -- Stationary point found.
 Normal termination of Gaussian 09 at Tue Jan 28 02:45:25 2020.
