 Gaussian 09, Revision D.01,
 Gaussian 09:  ES64L-G09RevD.01 24-Apr-2013

 -----------------------------
 # b3lyp 6-31G(2df,p) opt Freq
 -----------------------------

 -----
 titel
 -----
 Symbolic Z-matrix:
 Charge =  0 Multiplicity = 1

 SCF Done:  E(RB3LYP) =  -423.126793680     A.U. after   14 cycles
 Optimization completed.
    -- Stationary point found.
 Normal termination of Gaussian 09 at Tue Jan 28 08:11:45 2020.

 ----------------------------------------------------------------------
 #N Geom=AllCheck Guess=TCheck SCRF=Check GenChk RB3LYP/6-31G(2df,p) Fr
 eq
 ----------------------------------------------------------------------

 Structure from the checkpoint file:  "/scratch/puck/g09_9e49f529-f90d-4b04-a615-dab017ae343f/Gau-102061.chk"
 -----
 titel
 -----
 Charge =  0 Multiplicity = 1

                         Standard orientation:
 ---------------------------------------------------------------------
 Center     Atomic      Atomic             Coordinates (Angstroms)
 Number     Number       Type             X           Y           Z
 ---------------------------------------------------------------------
      1          8           0       -4.212595    0.129895   -0.220421
      2          6           0       -3.225337   -0.749195    0.305582
      3          6           0       -1.854622   -0.343786    0.003884
      4          6           0       -0.736364    0.040294   -0.236787
      5          6           0        0.594424    0.477942   -0.536198
      6          6           0        1.168495    1.714888    0.141705
      7          6           0        1.696495    0.358243    0.506005
      8          6           0        3.076016   -0.070548    0.063950
      9          8           0        3.174186   -1.455286   -0.228240
     10          1           0       -3.952637    1.025524    0.018734
     11          1           0       -3.336680   -0.865270    1.396213
     12          1           0       -3.437039   -1.729415   -0.136555
     13          1           0        0.916220    0.310764   -1.560562
     14          1           0        1.792137    2.363556   -0.464620
     15          1           0        0.536735    2.230025    0.855105
     16          1           0        1.379194   -0.031635    1.470200
     17          1           0        3.341490    0.444849   -0.865857
     18          1           0        3.816800    0.232029    0.821865
     19          1           0        2.936401   -1.944335    0.565917
 ---------------------------------------------------------------------

 SCF Done:  E(RB3LYP) =  -423.126793680     A.U. after    1 cycles

 The electronic state is 1-A.
 Alpha  occ. eigenvalues --  -19.13733 -19.13612 -10.24798 -10.23551 -10.21623
 Alpha  occ. eigenvalues --  -10.20414 -10.20132 -10.17864 -10.17125  -1.01905
 Alpha  occ. eigenvalues --   -1.01764  -0.87811  -0.76291  -0.71123  -0.68608
 Alpha  occ. eigenvalues --   -0.62440  -0.59455  -0.53581  -0.51391  -0.50898
 Alpha  occ. eigenvalues --   -0.46903  -0.46564  -0.43978  -0.42843  -0.40345
 Alpha  occ. eigenvalues --   -0.39367  -0.35541  -0.34497  -0.33619  -0.31374
 Alpha  occ. eigenvalues --   -0.28168  -0.27338  -0.25069  -0.24063
 Alpha virt. eigenvalues --    0.03015   0.04823   0.07303   0.10039   0.10317
 Alpha virt. eigenvalues --    0.11066   0.13265   0.14565   0.15211   0.15677
 Alpha virt. eigenvalues --    0.16393   0.18266   0.18961   0.21934   0.23359

 Mulliken charges:
               1
     1  O   -0.403544
     2  C   -0.189788
     3  C    0.090179
     4  C    0.024935
     5  C   -0.184735
     6  C   -0.289242
     7  C   -0.034707
     8  C   -0.070940
     9  O   -0.413722
    10  H    0.284968
    11  H    0.113453
    12  H    0.138464
    13  H    0.118758
    14  H    0.119344
    15  H    0.122653
    16  H    0.092940
    17  H    0.107561
    18  H    0.090667
    19  H    0.282756
 Sum of Mulliken charges =   0.00000

 Dipole moment (field-independent basis, Debye):
    X=              1.3716    Y=              1.1959    Z=              2.1428  Tot=              2.8112
 Quadrupole moment (field-independent basis, Debye-Ang):
   XX=            -61.9922   YY=            -49.6153   ZZ=            -51.8351
   XY=              1.5948   XZ=             -0.5532   YZ=             -3.0645

  Exact polarizability: 116.938   9.772  73.439  -2.627  -2.195  60.840
 Approx polarizability: 154.966  18.325 107.349  -6.179  -3.770  93.595

                      1                      2                      3
                      A                      A                      A
 Frequencies --     22.5945                62.6307                86.3455
 Red. masses --      3.3714                 4.5812                 2.9528
 Frc consts  --      0.0010                 0.0106                 0.0130
 IR Inten    --      1.0362                 0.0818                 1.6297

                      4                      5                      6
                      A                      A                      A
 Frequencies --    103.2742               145.5577               230.3878
 Red. masses --      3.0580                 3.6214                 3.3739
 Frc consts  --      0.0192                 0.0452                 0.1055
 IR Inten    --      0.1451                 3.9124                18.7080

                      7                      8                      9
                      A                      A                      A
 Frequencies --    258.0623               271.0833               325.4045
 Red. masses --      1.2563                 1.5907                 2.0356
 Frc consts  --      0.0493                 0.0689                 0.1270
 IR Inten    --    117.3695                48.6595                44.1365

                     10                     11                     12
                      A                      A                      A
 Frequencies --    356.4253               463.2736               474.2767
 Red. masses --      2.2110                 3.9552                 4.9371
 Frc consts  --      0.1655                 0.5001                 0.6543
 IR Inten    --     35.9278                 7.1851                 0.8529

                     13                     14                     15
                      A                      A                      A
 Frequencies --    508.9075               570.3005               740.8533
 Red. masses --      5.1769                 4.7636                 2.5899
 Frc consts  --      0.7900                 0.9128                 0.8375
 IR Inten    --     10.4960                 5.9485                 8.1702

                     16                     17                     18
                      A                      A                      A
 Frequencies --    794.5904               877.9009               910.9659
 Red. masses --      2.0569                 1.9489                 1.8211
 Frc consts  --      0.7652                 0.8850                 0.8904
 IR Inten    --      3.5655                 1.6365                11.5724

                     19                     20                     21
                      A                      A                      A
 Frequencies --    942.7464               985.1191               997.8846
 Red. masses --      2.7976                 1.9223                 1.8508
 Frc consts  --      1.4650                 1.0991                 1.0858
 IR Inten    --      3.9879                31.0540                23.1405

                     22                     23                     24
                      A                      A                      A
 Frequencies --   1043.4454              1056.9575              1076.8683
 Red. masses --      4.8368                 2.3687                 1.5330
 Frc consts  --      3.1027                 1.5591                 1.0474
 IR Inten    --    104.5975                98.7257                28.7733

                     25                     26                     27
                      A                      A                      A
 Frequencies --   1096.1476              1109.2184              1127.5430
 Red. masses --      1.3620                 1.6412                 1.3233
 Frc consts  --      0.9642                 1.1897                 0.9913
 IR Inten    --     10.1197                 3.8719                 2.7001

                     28                     29                     30
                      A                      A                      A
 Frequencies --   1191.9404              1215.4367              1229.2750
 Red. masses --      2.3813                 1.0927                 1.5345
 Frc consts  --      1.9933                 0.9511                 1.3662
 IR Inten    --      0.0743                12.6485                 7.1331

                     31                     32                     33
                      A                      A                      A
 Frequencies --   1247.8277              1343.9257              1352.5962
 Red. masses --      1.5220                 1.3464                 1.2085
 Frc consts  --      1.3963                 1.4328                 1.3027
 IR Inten    --     12.6079                17.6904                 2.6627

                     34                     35                     36
                      A                      A                      A
 Frequencies --   1371.7202              1410.6342              1420.9407
 Red. masses --      1.2893                 1.2964                 1.2709
 Frc consts  --      1.4293                 1.5199                 1.5119
 IR Inten    --      5.1342                48.1876                91.2306

                     37                     38                     39
                      A                      A                      A
 Frequencies --   1443.9054              1486.5107              1492.6593
 Red. masses --      1.5682                 1.3355                 1.0802
 Frc consts  --      1.9264                 1.7387                 1.4180
 IR Inten    --     34.0115                 1.5796                 0.7438

                     40                     41                     42
                      A                      A                      A
 Frequencies --   1503.4682              2352.2879              2968.5805
 Red. masses --      1.1198                11.8476                 1.0719
 Frc consts  --      1.4914                38.6245                 5.5655
 IR Inten    --      1.1270                37.2487                52.6900

                     43                     44                     45
                      A                      A                      A
 Frequencies --   2973.6467              3057.8102              3064.5906
 Red. masses --      1.0703                 1.0875                 1.0917
 Frc consts  --      5.5762                 5.9911                 6.0406
 IR Inten    --     75.0562                20.8443                19.7314

                     46                     47                     48
                      A                      A                      A
 Frequencies --   3136.8370              3140.0798              3145.4375
 Red. masses --      1.0613                 1.0829                 1.0853
 Frc consts  --      6.1526                 6.2909                 6.3266
 IR Inten    --     13.3697                 4.7580                14.8961

                     49                     50                     51
                      A                      A                      A
 Frequencies --   3229.8116              3816.8816              3817.5728
 Red. masses --      1.1164                 1.0662                 1.0662
 Frc consts  --      6.8617                 9.1520                 9.1553
 IR Inten    --      6.6255                18.5948                17.2914

 - Thermochemistry -
 -------------------
 Temperature   298.150 Kelvin.  Pressure   1.00000 Atm.
 Atom     1 has atomic number  8 and mass  15.99491

 Molecular mass:   126.06808 amu.
 Principal axes and moments of inertia in atomic units:
                           1         2         3
     Eigenvalues --   432.068253162.236643455.30726
           X            0.99995   0.00922  -0.00262
           Y           -0.00927   0.99968  -0.02361
           Z            0.00240   0.02363   0.99972
 This molecule is an asymmetric top.
 Rotational symmetry number  1.
 Rotational temperatures (Kelvin)      0.20046     0.02739     0.02507
 Rotational constants (GHZ):           4.17698     0.57072     0.52231
 Zero-point vibrational energy     413029.5 (Joules/Mol)
                                   98.71642 (Kcal/Mol)
 Warning -- explicit consideration of  14 degrees of freedom as
           vibrations may cause significant error
 Vibrational temperatures:     32.51    90.11   124.23   148.59   209.42
          (Kelvin)            331.48   371.29   390.03   468.18   512.82
                              666.55   682.38   732.20   820.53  1065.92
                             1143.24  1263.10  1310.68  1356.40  1417.36
                             1435.73  1501.28  1520.72  1549.37  1577.11
                             1595.92  1622.28  1714.93  1748.74  1768.65
                             1795.34  1933.61  1946.08  1973.60  2029.59
                             2044.41  2077.46  2138.75  2147.60  2163.15
                             3384.41  4271.12  4278.41  4399.50  4409.26
                             4513.20  4517.87  4525.58  4646.97  5491.63
                             5492.63

 Zero-point correction=                           0.157315 (Hartree/Particle)
 Thermal correction to Energy=                    0.167766
 Thermal correction to Enthalpy=                  0.168710
 Thermal correction to Gibbs Free Energy=         0.119806
 Sum of electronic and zero-point Energies=           -422.969479
 Sum of electronic and thermal Energies=              -422.959028
 Sum of electronic and thermal Enthalpies=            -422.958084
 Sum of electronic and thermal Free Energies=         -423.006988

                     E (Thermal)             CV                S
                      KCal/Mol        Cal/Mol-Kelvin    Cal/Mol-Kelvin
 Total                  105.275             36.225            102.927
 Electronic               0.000              0.000              0.000
 Translational            0.889              2.981             40.409
 Rotational               0.889              2.981             29.936
 Vibrational            103.497             30.263             32.583
 Vibration     1          0.593              1.985              6.392
 Vibration     2          0.597              1.972              4.373
 Vibration     3          0.601              1.959              3.741
 Vibration     4          0.605              1.947              3.392
 Vibration     5          0.617              1.907              2.730
 Vibration     6          0.652              1.795              1.876
 Vibration     7          0.667              1.749              1.675
 Vibration     8          0.675              1.727              1.589
 Vibration     9          0.710              1.625              1.283
 Vibration    10          0.732              1.562              1.138
 Vibration    11          0.821              1.332              0.757
 Vibration    12          0.831              1.307              0.726
 Vibration    13          0.864              1.230              0.636
 Vibration    14          0.926              1.095              0.504

 Optimization completed.
    -- Stationary point found.
 Normal termination of Gaussian 09 at Tue Jan 28 08:43:58 2020.
