 Gaussian 09, Revision D.01,
 Gaussian 09:  ES64L-G09RevD.01 24-Apr-2013

 -----------------------------
 # b3lyp 6-31G(2df,p) opt Freq
 -----------------------------

 -----
 titel
 -----
 Symbolic Z-matrix:
 Charge =  0 Multiplicity = 1

 SCF Done:  E(RB3LYP) =  -423.153080335     A.U. after   13 cycles
 Optimization completed.
    -- Stationary point found.
 Normal termination of Gaussian 09 at Mon Jan 27 23:05:46 2020.

 ----------------------------------------------------------------------
 #N Geom=AllCheck Guess=TCheck SCRF=Check GenChk RB3LYP/6-31G(2df,p) Fr
 eq
 ----------------------------------------------------------------------

 Structure from the checkpoint file:  "/scratch/puck/g09_44712693-9928-478d-b574-a79145ee66d9/Gau-103114.chk"
 -----
 titel
 -----
 Charge =  0 Multiplicity = 1

                         Standard orientation:
 ---------------------------------------------------------------------
 Center     Atomic      Atomic             Coordinates (Angstroms)
 Number     Number       Type             X           Y           Z
 ---------------------------------------------------------------------
      1          8           0       -0.195625    2.116490    0.475699
      2          6           0       -0.099581    1.022188   -0.426103
      3          6           0        1.310081    0.478783   -0.671056
      4          6           0        2.083949   -0.181470    0.447235
      5          6           0        1.278093   -1.026671   -0.506367
      6          6           0       -0.141142   -1.426690   -0.128608
      7          6           0       -0.723188   -0.956644    1.196513
      8          6           0       -0.985130   -0.187292   -0.071367
      9          8           0       -2.276902   -0.193690   -0.601036
     10          1           0        0.293323    1.881569    1.271309
     11          1           0       -0.491250    1.409421   -1.372735
     12          1           0        1.886779    0.949869   -1.458610
     13          1           0        3.162522   -0.197195    0.332121
     14          1           0        1.771465   -0.084436    1.481109
     15          1           0        1.809719   -1.679595   -1.188511
     16          1           0       -0.537747   -2.343725   -0.547897
     17          1           0       -1.569756   -1.528132    1.562345
     18          1           0       -0.084513   -0.565907    1.980576
     19          1           0       -2.798820    0.442509   -0.098496
 ---------------------------------------------------------------------

 SCF Done:  E(RB3LYP) =  -423.153080335     A.U. after    1 cycles

 The electronic state is 1-A.
 Alpha  occ. eigenvalues --  -19.14012 -19.13320 -10.23072 -10.23017 -10.19621
 Alpha  occ. eigenvalues --  -10.19201 -10.19150 -10.18895 -10.18577  -1.03013
 Alpha  occ. eigenvalues --   -1.01121  -0.89151  -0.82107  -0.70716  -0.64441
 Alpha  occ. eigenvalues --   -0.59210  -0.57407  -0.54906  -0.54370  -0.49712
 Alpha  occ. eigenvalues --   -0.47888  -0.44016  -0.43380  -0.42589  -0.40420
 Alpha  occ. eigenvalues --   -0.37583  -0.36415  -0.35014  -0.32340  -0.30773
 Alpha  occ. eigenvalues --   -0.29425  -0.27960  -0.25368  -0.23999
 Alpha virt. eigenvalues --    0.06527   0.07644   0.08980   0.09625   0.12692
 Alpha virt. eigenvalues --    0.14136   0.14826   0.16288   0.17377   0.18381
 Alpha virt. eigenvalues --    0.18917   0.19389   0.20008   0.22337   0.23254

 Mulliken charges:
               1
     1  O   -0.437547
     2  C    0.026930
     3  C   -0.069055
     4  C   -0.315881
     5  C   -0.035075
     6  C   -0.094873
     7  C   -0.367370
     8  C    0.389300
     9  O   -0.471146
    10  H    0.277771
    11  H    0.099693
    12  H    0.090895
    13  H    0.114780
    14  H    0.104771
    15  H    0.087917
    16  H    0.096453
    17  H    0.115379
    18  H    0.101091
    19  H    0.285966
 Sum of Mulliken charges =   0.00000

 Dipole moment (field-independent basis, Debye):
    X=              1.0136    Y=             -0.6104    Z=              1.0400  Tot=              1.5753
 Quadrupole moment (field-independent basis, Debye-Ang):
   XX=            -50.4856   YY=            -57.1118   ZZ=            -50.9584
   XY=             -0.7487   XZ=             -2.7619   YZ=              0.5870

  Exact polarizability:  80.008  -0.765  71.046  -0.916  -0.750  68.041
 Approx polarizability: 109.101  -3.314 107.039   1.863   0.739 107.347

                      1                      2                      3
                      A                      A                      A
 Frequencies --    127.1990               177.9453               227.8766
 Red. masses --      3.6020                 1.7687                 1.7154
 Frc consts  --      0.0343                 0.0330                 0.0525
 IR Inten    --      2.8177                14.2283                17.7969

                      4                      5                      6
                      A                      A                      A
 Frequencies --    264.1844               296.6737               338.6890
 Red. masses --      3.6402                 1.5310                 2.0471
 Frc consts  --      0.1497                 0.0794                 0.1384
 IR Inten    --     41.1536                48.9543                53.0947

                      7                      8                      9
                      A                      A                      A
 Frequencies --    419.3142               432.7038               494.2932
 Red. masses --      3.6591                 3.0824                 2.2889
 Frc consts  --      0.3791                 0.3400                 0.3295
 IR Inten    --     11.2296                18.5496                 1.7611

                     10                     11                     12
                      A                      A                      A
 Frequencies --    569.3697               618.0989               659.7415
 Red. masses --      3.9994                 2.7773                 3.7085
 Frc consts  --      0.7639                 0.6251                 0.9510
 IR Inten    --      3.6502                 2.2584                 1.1582

                     13                     14                     15
                      A                      A                      A
 Frequencies --    692.9213               793.3214               806.5717
 Red. masses --      3.2638                 2.0799                 1.6434
 Frc consts  --      0.9233                 0.7712                 0.6299
 IR Inten    --     12.7862                 6.3247                 9.0289

                     16                     17                     18
                      A                      A                      A
 Frequencies --    842.7305               897.7393               936.0518
 Red. masses --      2.1313                 1.9440                 2.1073
 Frc consts  --      0.8918                 0.9231                 1.0878
 IR Inten    --      8.3830                 9.9639                11.3775

                     19                     20                     21
                      A                      A                      A
 Frequencies --    958.9128               972.0383               992.2032
 Red. masses --      2.6000                 2.1663                 2.2187
 Frc consts  --      1.4086                 1.2060                 1.2869
 IR Inten    --     13.7758                 4.4747                 3.5350

                     22                     23                     24
                      A                      A                      A
 Frequencies --   1020.1687              1039.0009              1050.0911
 Red. masses --      1.4656                 1.4259                 1.4974
 Frc consts  --      0.8987                 0.9069                 0.9729
 IR Inten    --      3.0899                 2.2458                 8.4128

                     25                     26                     27
                      A                      A                      A
 Frequencies --   1069.9856              1074.2305              1093.8501
 Red. masses --      1.4282                 1.6066                 3.2414
 Frc consts  --      0.9634                 1.0923                 2.2851
 IR Inten    --     12.7991                29.3699                94.6260

                     28                     29                     30
                      A                      A                      A
 Frequencies --   1108.6794              1119.1462              1198.3800
 Red. masses --      1.2426                 1.5918                 1.8567
 Frc consts  --      0.8999                 1.1747                 1.5710
 IR Inten    --      5.0909                 0.4266                56.3103

                     31                     32                     33
                      A                      A                      A
 Frequencies --   1216.0469              1262.1628              1277.3672
 Red. masses --      1.6059                 1.9529                 1.4682
 Frc consts  --      1.3992                 1.8330                 1.4115
 IR Inten    --     45.7948                 9.1071                 8.5375

                     34                     35                     36
                      A                      A                      A
 Frequencies --   1317.1252              1321.9026              1351.8536
 Red. masses --      1.9362                 1.4189                 1.7695
 Frc consts  --      1.9790                 1.4608                 1.9052
 IR Inten    --     32.5708                13.2969                13.4367

                     37                     38                     39
                      A                      A                      A
 Frequencies --   1381.1300              1409.8170              1432.1998
 Red. masses --      2.0550                 1.5759                 1.2164
 Frc consts  --      2.3096                 1.8455                 1.4700
 IR Inten    --      0.3975                 2.2061                63.0827

                     40                     41                     42
                      A                      A                      A
 Frequencies --   1484.6621              1507.8867              3061.0249
 Red. masses --      1.5878                 1.2219                 1.0852
 Frc consts  --      2.0621                 1.6370                 5.9907
 IR Inten    --      3.6168                 9.9035                19.4439

                     43                     44                     45
                      A                      A                      A
 Frequencies --   3130.1041              3139.0951              3169.4519
 Red. masses --      1.0544                 1.0543                 1.0887
 Frc consts  --      6.0866                 6.1208                 6.4434
 IR Inten    --      3.5894                23.1605                 7.8067

                     46                     47                     48
                      A                      A                      A
 Frequencies --   3175.4638              3186.7716              3210.2675
 Red. masses --      1.0925                 1.0934                 1.1144
 Frc consts  --      6.4907                 6.5421                 6.7664
 IR Inten    --     11.2546                13.0295                17.6982

                     49                     50                     51
                      A                      A                      A
 Frequencies --   3218.3640              3788.3603              3810.7102
 Red. masses --      1.1133                 1.0660                 1.0657
 Frc consts  --      6.7941                 9.0134                 9.1179
 IR Inten    --     10.5334                22.0598                 8.5018

 - Thermochemistry -
 -------------------
 Temperature   298.150 Kelvin.  Pressure   1.00000 Atm.
 Atom     1 has atomic number  8 and mass  15.99491

 Molecular mass:   126.06808 amu.
 Principal axes and moments of inertia in atomic units:
                           1         2         3
     Eigenvalues --   750.454291004.050831354.81311
           X            0.99991   0.00322  -0.01275
           Y           -0.00340   0.99989  -0.01429
           Z            0.01271   0.01433   0.99982
 This molecule is an asymmetric top.
 Rotational symmetry number  1.
 Warning -- assumption of classical behavior for rotation
           may cause significant error
 Rotational temperatures (Kelvin)      0.11542     0.08626     0.06393
 Rotational constants (GHZ):           2.40486     1.79746     1.33210
 Zero-point vibrational energy     419553.6 (Joules/Mol)
                                  100.27571 (Kcal/Mol)
 Warning -- explicit consideration of  11 degrees of freedom as
           vibrations may cause significant error
 Vibrational temperatures:    183.01   256.02   327.86   380.10   426.85
          (Kelvin)            487.30   603.30   622.56   711.18   819.19
                              889.31   949.22   996.96  1141.41  1160.48
                             1212.50  1291.64  1346.77  1379.66  1398.54
                             1427.56  1467.79  1494.89  1510.85  1539.47
                             1545.58  1573.80  1595.14  1610.20  1724.20
                             1749.62  1815.97  1837.84  1895.05  1901.92
                             1945.01  1987.14  2028.41  2060.61  2136.09
                             2169.51  4404.13  4503.52  4516.45  4560.13
                             4568.78  4585.05  4618.85  4630.50  5450.60
                             5482.76

 Zero-point correction=                           0.159800 (Hartree/Particle)
 Thermal correction to Energy=                    0.167859
 Thermal correction to Enthalpy=                  0.168803
 Thermal correction to Gibbs Free Energy=         0.127763
 Sum of electronic and zero-point Energies=           -422.993281
 Sum of electronic and thermal Energies=              -422.985222
 Sum of electronic and thermal Enthalpies=            -422.984278
 Sum of electronic and thermal Free Energies=         -423.025318

                     E (Thermal)             CV                S
                      KCal/Mol        Cal/Mol-Kelvin    Cal/Mol-Kelvin
 Total                  105.333             32.605             86.376
 Electronic               0.000              0.000              0.000
 Translational            0.889              2.981             40.409
 Rotational               0.889              2.981             28.414
 Vibrational            103.555             26.644             17.554
 Vibration     1          0.611              1.926              2.988
 Vibration     2          0.628              1.869              2.350
 Vibration     3          0.651              1.799              1.896
 Vibration     4          0.671              1.739              1.634
 Vibration     5          0.690              1.680              1.436
 Vibration     6          0.719              1.598              1.218
 Vibration     7          0.782              1.428              0.894
 Vibration     8          0.794              1.399              0.850
 Vibration     9          0.850              1.263              0.673
 Vibration    10          0.925              1.098              0.505
 Vibration    11          0.978              0.994              0.420

 Normal termination of Gaussian 09 at Mon Jan 27 23:53:09 2020.
