 Gaussian 09, Revision D.01,
 Gaussian 09:  ES64L-G09RevD.01 24-Apr-2013

 -----------------------------
 # b3lyp 6-31G(2df,p) opt Freq
 -----------------------------

 -----
 titel
 -----
 Symbolic Z-matrix:
 Charge =  0 Multiplicity = 1

 SCF Done:  E(RB3LYP) =  -423.205251541     A.U. after   14 cycles
 SCF Done:  E(RB3LYP) =  -423.205251632     A.U. after    7 cycles
 Optimization completed.
    -- Stationary point found.
 Normal termination of Gaussian 09 at Mon Jan 27 10:27:00 2020.

 ----------------------------------------------------------------------
 #N Geom=AllCheck Guess=TCheck SCRF=Check GenChk RB3LYP/6-31G(2df,p) Fr
 eq
 ----------------------------------------------------------------------

 Structure from the checkpoint file:  "/scratch/puck/g09_7ce7d767-88b2-487f-bcff-b5ca4eba3d34/Gau-19678.chk"
 -----
 titel
 -----
 Charge =  0 Multiplicity = 1

                         Standard orientation:
 ---------------------------------------------------------------------
 Center     Atomic      Atomic             Coordinates (Angstroms)
 Number     Number       Type             X           Y           Z
 ---------------------------------------------------------------------
      1          6           0        2.338691   -1.361959    0.601747
      2          6           0        1.955426   -0.425317   -0.556784
      3          6           0        0.767281    0.435813   -0.251095
      4          6           0        0.713035    1.781091   -0.064559
      5          8           0       -0.547844    2.202216    0.205756
      6          6           0       -1.349457    1.093238    0.197174
      7          6           0       -0.592185   -0.007259   -0.077777
      8          8           0       -0.945568   -1.309324   -0.194037
      9          6           0       -2.322982   -1.576782   -0.005348
     10          1           0        1.503978   -2.021188    0.855183
     11          1           0        3.197103   -1.985022    0.331276
     12          1           0        2.600612   -0.788926    1.496703
     13          1           0        2.806222    0.216175   -0.812591
     14          1           0        1.744038   -1.030209   -1.447305
     15          1           0        1.468112    2.550111   -0.097516
     16          1           0       -2.392959    1.259382    0.395464
     17          1           0       -2.457437   -2.651886   -0.132859
     18          1           0       -2.647789   -1.283854    1.002336
     19          1           0       -2.933429   -1.040672   -0.744594
 ---------------------------------------------------------------------

 SCF Done:  E(RB3LYP) =  -423.205251632     A.U. after    1 cycles

 The electronic state is 1-A.
 Alpha  occ. eigenvalues --  -19.19169 -19.17048 -10.23745 -10.22658 -10.21892
 Alpha  occ. eigenvalues --  -10.21288 -10.18485 -10.17655 -10.16875  -1.09506
 Alpha  occ. eigenvalues --   -1.06301  -0.80889  -0.75148  -0.72366  -0.70327
 Alpha  occ. eigenvalues --   -0.62698  -0.56763  -0.56522  -0.52524  -0.47049
 Alpha  occ. eigenvalues --   -0.46681  -0.45095  -0.43680  -0.42783  -0.42486
 Alpha  occ. eigenvalues --   -0.40330  -0.37768  -0.36564  -0.34788  -0.34076
 Alpha  occ. eigenvalues --   -0.33478  -0.31992  -0.23423  -0.20669
 Alpha virt. eigenvalues --    0.02950   0.08437   0.09423   0.10568   0.12699
 Alpha virt. eigenvalues --    0.14266   0.15125   0.15862   0.16385   0.16701
 Alpha virt. eigenvalues --    0.16838   0.17836   0.19045   0.19416   0.23273

 Mulliken charges:
               1
     1  C   -0.372030
     2  C   -0.300769
     3  C    0.126343
     4  C   -0.087169
     5  O   -0.155739
     6  C   -0.153137
     7  C    0.241837
     8  O   -0.260834
     9  C   -0.250829
    10  H    0.132959
    11  H    0.107854
    12  H    0.115562
    13  H    0.100457
    14  H    0.111706
    15  H    0.132930
    16  H    0.130321
    17  H    0.135235
    18  H    0.122612
    19  H    0.122692
 Sum of Mulliken charges =   0.00000

 Dipole moment (field-independent basis, Debye):
    X=             -0.7276    Y=             -0.7544    Z=              0.0024  Tot=              1.0481
 Quadrupole moment (field-independent basis, Debye-Ang):
   XX=            -45.5530   YY=            -53.9541   ZZ=            -54.8881
   XY=              3.9671   XZ=             -1.0458   YZ=             -0.1879

  Exact polarizability:  92.740   1.533  88.415  -3.588   1.936  53.751
 Approx polarizability: 128.110  -1.396 138.954  -7.716   7.557  81.672

                      1                      2                      3
                      A                      A                      A
 Frequencies --     71.6266               102.5975               145.3681
 Red. masses --      2.3601                 3.4175                 2.9915
 Frc consts  --      0.0071                 0.0212                 0.0372
 IR Inten    --      0.1613                 3.9337                 0.7569

                      4                      5                      6
                      A                      A                      A
 Frequencies --    178.8863               217.9662               242.9871
 Red. masses --      1.8975                 1.1500                 1.5540
 Frc consts  --      0.0358                 0.0322                 0.0541
 IR Inten    --      0.8011                 0.0276                 1.4191

                      7                      8                      9
                      A                      A                      A
 Frequencies --    300.3673               320.7246               431.3892
 Red. masses --      2.1324                 3.3610                 5.1091
 Frc consts  --      0.1134                 0.2037                 0.5602
 IR Inten    --      0.6087                 0.7906                 1.3735

                     10                     11                     12
                      A                      A                      A
 Frequencies --    512.7640               601.9628               612.6505
 Red. masses --      3.3908                 4.7507                 3.7245
 Frc consts  --      0.5253                 1.0143                 0.8236
 IR Inten    --      0.5957                 4.4507                 6.4249

                     13                     14                     15
                      A                      A                      A
 Frequencies --    656.5412               717.9830               733.0920
 Red. masses --      1.3004                 4.6698                 3.0574
 Frc consts  --      0.3303                 1.4183                 0.9681
 IR Inten    --      8.8255                10.5607                13.8166

                     16                     17                     18
                      A                      A                      A
 Frequencies --    772.6291               793.3521               892.3735
 Red. masses --      1.4611                 1.2971                 4.3501
 Frc consts  --      0.5139                 0.4810                 2.0410
 IR Inten    --     14.0509                 3.4123                36.1644

                     19                     20                     21
                      A                      A                      A
 Frequencies --    967.5411              1064.4171              1072.9511
 Red. masses --      2.2515                 2.9713                 2.7804
 Frc consts  --      1.2418                 1.9834                 1.8859
 IR Inten    --      2.5941                24.3656                50.7011

                     22                     23                     24
                      A                      A                      A
 Frequencies --   1077.3484              1091.7726              1182.5093
 Red. masses --      2.5115                 1.6879                 1.2794
 Frc consts  --      1.7175                 1.1854                 1.0541
 IR Inten    --     26.6831                 3.8121                 1.4041

                     25                     26                     27
                      A                      A                      A
 Frequencies --   1186.8142              1211.9080              1228.2451
 Red. masses --      4.0039                 2.8078                 2.0093
 Frc consts  --      3.3228                 2.4297                 1.7859
 IR Inten    --     25.6187                20.1094                45.8558

                     28                     29                     30
                      A                      A                      A
 Frequencies --   1255.0839              1290.8669              1327.7128
 Red. masses --      1.2806                 1.2732                 1.8799
 Frc consts  --      1.1885                 1.2500                 1.9525
 IR Inten    --      2.4964                 1.6965                90.6136

                     31                     32                     33
                      A                      A                      A
 Frequencies --   1362.8577              1406.5193              1423.3436
 Red. masses --      1.6028                 1.2468                 4.0298
 Frc consts  --      1.7540                 1.4532                 4.8101
 IR Inten    --      6.9722                 2.1034                21.9627

                     34                     35                     36
                      A                      A                      A
 Frequencies --   1475.0619              1482.0968              1484.6542
 Red. masses --      1.2382                 1.0790                 1.0476
 Frc consts  --      1.5874                 1.3964                 1.3605
 IR Inten    --      1.0125                 1.4963                 6.2963

                     37                     38                     39
                      A                      A                      A
 Frequencies --   1496.5344              1508.2899              1510.3837
 Red. masses --      1.0461                 1.0511                 1.0618
 Frc consts  --      1.3804                 1.4089                 1.4271
 IR Inten    --      4.2806                13.4300                 2.5679

                     40                     41                     42
                      A                      A                      A
 Frequencies --   1594.6079              1664.0216              2998.9341
 Red. masses --      4.9287                 7.0893                 1.0347
 Frc consts  --      7.3840                11.5657                 5.4826
 IR Inten    --     39.9177                51.5181                48.0259

                     43                     44                     45
                      A                      A                      A
 Frequencies --   3026.9299              3038.3526              3054.9228
 Red. masses --      1.0609                 1.0351                 1.1045
 Frc consts  --      5.7270                 5.6299                 6.0730
 IR Inten    --     26.2621                30.7020                39.5007

                     46                     47                     48
                      A                      A                      A
 Frequencies --   3064.6487              3106.9506              3121.5982
 Red. masses --      1.1004                 1.1020                 1.1018
 Frc consts  --      6.0893                 6.2677                 6.3255
 IR Inten    --     14.4125                36.7743                26.4458

                     49                     50                     51
                      A                      A                      A
 Frequencies --   3137.0070              3266.9427              3294.7685
 Red. masses --      1.0990                 1.0971                 1.0979
 Frc consts  --      6.3720                 6.8990                 7.0222
 IR Inten    --     19.8726                 1.0320                 1.4460

 - Thermochemistry -
 -------------------
 Temperature   298.150 Kelvin.  Pressure   1.00000 Atm.
 Atom     1 has atomic number  6 and mass  12.00000

 Molecular mass:   126.06808 amu.
 Principal axes and moments of inertia in atomic units:
                           1         2         3
     Eigenvalues --   927.478401117.815591914.58082
           X            0.99985   0.01713   0.00076
           Y           -0.01712   0.99981  -0.00979
           Z           -0.00092   0.00978   0.99995
 This molecule is an asymmetric top.
 Rotational symmetry number  1.
 Warning -- assumption of classical behavior for rotation
           may cause significant error
 Rotational temperatures (Kelvin)      0.09339     0.07748     0.04524
 Rotational constants (GHZ):           1.94586     1.61452     0.94263
 Zero-point vibrational energy     417388.2 (Joules/Mol)
                                   99.75817 (Kcal/Mol)
 Warning -- explicit consideration of  12 degrees of freedom as
           vibrations may cause significant error
 Vibrational temperatures:    103.05   147.61   209.15   257.38   313.60
          (Kelvin)            349.60   432.16   461.45   620.67   737.75
                              866.09   881.47   944.62  1033.02  1054.75
                             1111.64  1141.46  1283.92  1392.07  1531.46
                             1543.74  1550.06  1570.82  1701.37  1707.56
                             1743.66  1767.17  1805.78  1857.27  1910.28
                             1960.85  2023.67  2047.87  2122.28  2132.40
                             2136.08  2153.18  2170.09  2173.10  2294.28
                             2394.15  4314.79  4355.07  4371.51  4395.35
                             4409.34  4470.20  4491.28  4513.45  4700.40
                             4740.43

 Zero-point correction=                           0.158975 (Hartree/Particle)
 Thermal correction to Energy=                    0.168096
 Thermal correction to Enthalpy=                  0.169040
 Thermal correction to Gibbs Free Energy=         0.124768
 Sum of electronic and zero-point Energies=           -423.046277
 Sum of electronic and thermal Energies=              -423.037156
 Sum of electronic and thermal Enthalpies=            -423.036212
 Sum of electronic and thermal Free Energies=         -423.080484

                     E (Thermal)             CV                S
                      KCal/Mol        Cal/Mol-Kelvin    Cal/Mol-Kelvin
 Total                  105.482             33.320             93.178
 Electronic               0.000              0.000              0.000
 Translational            0.889              2.981             40.409
 Rotational               0.889              2.981             29.075
 Vibrational            103.704             27.358             23.695
 Vibration     1          0.598              1.968              4.108
 Vibration     2          0.605              1.947              3.404
 Vibration     3          0.617              1.908              2.732
 Vibration     4          0.629              1.868              2.340
 Vibration     5          0.646              1.814              1.976
 Vibration     6          0.659              1.774              1.781
 Vibration     7          0.693              1.673              1.415
 Vibration     8          0.706              1.634              1.306
 Vibration     9          0.792              1.402              0.854
 Vibration    10          0.868              1.222              0.627
 Vibration    11          0.960              1.028              0.446
 Vibration    12          0.972              1.005              0.428

 Optimization completed.
    -- Stationary point found.
 Normal termination of Gaussian 09 at Mon Jan 27 11:10:24 2020.
