 Gaussian 09, Revision D.01,
 Gaussian 09:  ES64L-G09RevD.01 24-Apr-2013

 -----------------------------
 # b3lyp 6-31G(2df,p) opt Freq
 -----------------------------

 -----
 titel
 -----
 Symbolic Z-matrix:
 Charge =  0 Multiplicity = 1

 SCF Done:  E(RB3LYP) =  -423.187235638     A.U. after   13 cycles
 Optimization completed.
    -- Stationary point found.
 Normal termination of Gaussian 09 at Mon Jan 27 12:50:01 2020.

 ----------------------------------------------------------------------
 #N Geom=AllCheck Guess=TCheck SCRF=Check GenChk RB3LYP/6-31G(2df,p) Fr
 eq
 ----------------------------------------------------------------------

 Structure from the checkpoint file:  "/scratch/puck/g09_ff7cfe63-bef2-4c6f-b758-f4caac3cd8be/Gau-24798.chk"
 -----
 titel
 -----
 Charge =  0 Multiplicity = 1

                         Standard orientation:
 ---------------------------------------------------------------------
 Center     Atomic      Atomic             Coordinates (Angstroms)
 Number     Number       Type             X           Y           Z
 ---------------------------------------------------------------------
      1          6           0       -1.778522   -0.285432   -0.740929
      2          8           0       -0.729001   -1.237299   -0.625120
      3          6           0        0.029509   -1.061060    0.577734
      4          8           0        1.394943   -1.098262    0.269571
      5          6           0        1.974409    0.110990   -0.229092
      6          6           0        0.956120    1.114791   -0.784574
      7          6           0       -0.096689    1.403982    0.282015
      8          6           0       -1.485183    0.804478    0.268217
      9          6           0       -0.442790    0.247274    1.194397
     10          1           0       -1.804626    0.069785   -1.779499
     11          1           0       -2.750808   -0.751213   -0.521692
     12          1           0       -0.129609   -1.925283    1.231736
     13          1           0        2.535633    0.589792    0.587383
     14          1           0        2.693876   -0.185886   -0.999089
     15          1           0        1.485865    2.034021   -1.053137
     16          1           0        0.510152    0.722304   -1.702081
     17          1           0       -0.028314    2.375385    0.760761
     18          1           0       -2.310362    1.399446    0.641612
     19          1           0       -0.470468    0.345999    2.271780
 ---------------------------------------------------------------------

 SCF Done:  E(RB3LYP) =  -423.187235638     A.U. after    1 cycles

 The electronic state is 1-A.
 Alpha  occ. eigenvalues --  -19.13305 -19.13220 -10.27246 -10.22927 -10.22410
 Alpha  occ. eigenvalues --  -10.19813 -10.19740 -10.19087 -10.18590  -1.05912
 Alpha  occ. eigenvalues --   -0.99956  -0.87090  -0.76416  -0.72630  -0.64317
 Alpha  occ. eigenvalues --   -0.63432  -0.58239  -0.54055  -0.51790  -0.48111
 Alpha  occ. eigenvalues --   -0.46973  -0.46406  -0.44488  -0.42653  -0.41652
 Alpha  occ. eigenvalues --   -0.38927  -0.37050  -0.36085  -0.32431  -0.30872
 Alpha  occ. eigenvalues --   -0.29640  -0.27565  -0.25833  -0.24721
 Alpha virt. eigenvalues --    0.07864   0.09948   0.11234   0.11833   0.13996
 Alpha virt. eigenvalues --    0.14090   0.15697   0.16014   0.16799   0.17027
 Alpha virt. eigenvalues --    0.18190   0.18725   0.19648   0.20070   0.21020

 Mulliken charges:
               1
     1  C   -0.100191
     2  O   -0.277059
     3  C    0.218534
     4  O   -0.261939
     5  C   -0.045980
     6  C   -0.256560
     7  C   -0.049306
     8  C   -0.080253
     9  C   -0.124090
    10  H    0.104467
    11  H    0.098582
    12  H    0.083516
    13  H    0.091947
    14  H    0.106043
    15  H    0.097705
    16  H    0.122925
    17  H    0.089176
    18  H    0.091061
    19  H    0.091422
 Sum of Mulliken charges =   0.00000

 Dipole moment (field-independent basis, Debye):
    X=             -0.8947    Y=              2.4262    Z=              0.7111  Tot=              2.6820
 Quadrupole moment (field-independent basis, Debye-Ang):
   XX=            -50.9937   YY=            -55.1277   ZZ=            -51.5548
   XY=              1.7726   XZ=             -1.4657   YZ=             -1.1935

  Exact polarizability:  82.232   2.228  69.641  -0.126  -1.838  67.667
 Approx polarizability: 112.762   1.325 104.321   1.929  -3.234 102.678

                      1                      2                      3
                      A                      A                      A
 Frequencies --    153.8236               158.8945               254.2581
 Red. masses --      3.9618                 2.4605                 2.0748
 Frc consts  --      0.0552                 0.0366                 0.0790
 IR Inten    --      4.7214                 2.3003                 0.2488

                      4                      5                      6
                      A                      A                      A
 Frequencies --    377.4366               454.6674               484.8079
 Red. masses --      4.5474                 2.5806                 3.8124
 Frc consts  --      0.3817                 0.3143                 0.5279
 IR Inten    --      1.0505                 1.3403                 0.0691

                      7                      8                      9
                      A                      A                      A
 Frequencies --    535.2286               618.4637               730.5859
 Red. masses --      4.3748                 4.7935                 4.2472
 Frc consts  --      0.7384                 1.0803                 1.3357
 IR Inten    --      0.6290                 6.1479                 1.6629

                     10                     11                     12
                      A                      A                      A
 Frequencies --    767.6490               777.1083               800.6200
 Red. masses --      2.5467                 2.2508                 2.2794
 Frc consts  --      0.8842                 0.8008                 0.8608
 IR Inten    --      3.4335                 0.6363                 0.7202

                     13                     14                     15
                      A                      A                      A
 Frequencies --    831.8565               899.5461               925.9241
 Red. masses --      2.4868                 2.7950                 2.1257
 Frc consts  --      1.0139                 1.3325                 1.0738
 IR Inten    --      8.6254                33.1059                36.2746

                     16                     17                     18
                      A                      A                      A
 Frequencies --    953.5998               975.5700               989.8333
 Red. masses --      2.1974                 2.1969                 1.9688
 Frc consts  --      1.1773                 1.2319                 1.1365
 IR Inten    --     32.5115                21.1009                17.8020

                     19                     20                     21
                      A                      A                      A
 Frequencies --   1015.8222              1041.2071              1047.0714
 Red. masses --      2.3337                 2.5361                 2.1859
 Frc consts  --      1.4188                 1.6199                 1.4120
 IR Inten    --      8.1221                 6.8528                60.4472

                     22                     23                     24
                      A                      A                      A
 Frequencies --   1070.5776              1095.4447              1107.0090
 Red. masses --      2.7801                 2.2070                 1.6337
 Frc consts  --      1.8774                 1.5604                 1.1796
 IR Inten    --     81.8073                71.9863                 9.3287

                     25                     26                     27
                      A                      A                      A
 Frequencies --   1121.3040              1153.9255              1179.2901
 Red. masses --      1.8208                 3.7512                 1.3122
 Frc consts  --      1.3489                 2.9429                 1.0752
 IR Inten    --      7.5942                38.5405                 4.7158

                     28                     29                     30
                      A                      A                      A
 Frequencies --   1225.6831              1249.4850              1272.0357
 Red. masses --      1.1069                 1.3301                 1.2629
 Frc consts  --      0.9797                 1.2234                 1.2040
 IR Inten    --      2.1885                11.3359                10.5769

                     31                     32                     33
                      A                      A                      A
 Frequencies --   1312.6680              1336.6567              1342.8325
 Red. masses --      1.3114                 1.4414                 1.4668
 Frc consts  --      1.3314                 1.5173                 1.5583
 IR Inten    --      1.9388                10.5485                 6.7492

                     34                     35                     36
                      A                      A                      A
 Frequencies --   1367.3373              1377.2322              1393.6721
 Red. masses --      1.6822                 1.5132                 1.1967
 Frc consts  --      1.8530                 1.6910                 1.3695
 IR Inten    --      5.4608                 4.6430                 5.4676

                     37                     38                     39
                      A                      A                      A
 Frequencies --   1426.1656              1438.1807              1481.3665
 Red. masses --      1.3649                 2.2060                 1.0959
 Frc consts  --      1.6357                 2.6884                 1.4169
 IR Inten    --     16.7177                 0.6050                 3.3604

                     40                     41                     42
                      A                      A                      A
 Frequencies --   1516.7793              1526.1703              2990.1540
 Red. masses --      1.0921                 1.0865                 1.0681
 Frc consts  --      1.4804                 1.4910                 5.6267
 IR Inten    --      0.4807                 0.4116               131.7967

                     43                     44                     45
                      A                      A                      A
 Frequencies --   2991.4158              3031.8288              3048.7656
 Red. masses --      1.0651                 1.0994                 1.0871
 Frc consts  --      5.6158                 5.9542                 5.9534
 IR Inten    --     18.3041                39.9253                60.8897

                     46                     47                     48
                      A                      A                      A
 Frequencies --   3053.9048              3069.1387              3099.1326
 Red. masses --      1.0650                 1.0903                 1.1028
 Frc consts  --      5.8523                 6.0510                 6.2405
 IR Inten    --     13.9594                54.5750                17.7696

                     49                     50                     51
                      A                      A                      A
 Frequencies --   3157.2194              3180.2905              3196.7040
 Red. masses --      1.0886                 1.0896                 1.0943
 Frc consts  --      6.3935                 6.4932                 6.5886
 IR Inten    --     13.5516                14.8581                12.9947

 - Thermochemistry -
 -------------------
 Temperature   298.150 Kelvin.  Pressure   1.00000 Atm.
 Atom     1 has atomic number  6 and mass  12.00000

 Molecular mass:   126.06808 amu.
 Principal axes and moments of inertia in atomic units:
                           1         2         3
     Eigenvalues --   656.64471 923.889011141.40850
           X            0.99909   0.04055  -0.01311
           Y           -0.04087   0.99886  -0.02457
           Z            0.01209   0.02508   0.99961
 This molecule is an asymmetric top.
 Rotational symmetry number  1.
 Warning -- assumption of classical behavior for rotation
           may cause significant error
 Rotational temperatures (Kelvin)      0.13190     0.09375     0.07588
 Rotational constants (GHZ):           2.74843     1.95342     1.58115
 Zero-point vibrational energy     428301.0 (Joules/Mol)
                                  102.36641 (Kcal/Mol)
 Warning -- explicit consideration of   8 degrees of freedom as
           vibrations may cause significant error
 Vibrational temperatures:    221.32   228.61   365.82   543.05   654.16
          (Kelvin)            697.53   770.07   889.83  1051.15  1104.47
                             1118.08  1151.91  1196.85  1294.24  1332.20
                             1372.02  1403.63  1424.15  1461.54  1498.06
                             1506.50  1540.32  1576.10  1592.74  1613.30
                             1660.24  1696.73  1763.48  1797.73  1830.17
                             1888.63  1923.15  1932.03  1967.29  1981.53
                             2005.18  2051.93  2069.22  2131.35  2182.30
                             2195.82  4302.16  4303.97  4362.12  4386.49
                             4393.88  4415.80  4458.95  4542.53  4575.72
                             4599.34

 Zero-point correction=                           0.163131 (Hartree/Particle)
 Thermal correction to Energy=                    0.169893
 Thermal correction to Enthalpy=                  0.170837
 Thermal correction to Gibbs Free Energy=         0.132142
 Sum of electronic and zero-point Energies=           -423.024104
 Sum of electronic and thermal Energies=              -423.017343
 Sum of electronic and thermal Enthalpies=            -423.016399
 Sum of electronic and thermal Free Energies=         -423.055094

                     E (Thermal)             CV                S
                      KCal/Mol        Cal/Mol-Kelvin    Cal/Mol-Kelvin
 Total                  106.609             27.715             81.440
 Electronic               0.000              0.000              0.000
 Translational            0.889              2.981             40.409
 Rotational               0.889              2.981             28.028
 Vibrational            104.832             21.753             13.003
 Vibration     1          0.619              1.898              2.624
 Vibration     2          0.621              1.893              2.563
 Vibration     3          0.665              1.756              1.701
 Vibration     4          0.748              1.518              1.049
 Vibration     5          0.813              1.351              0.782
 Vibration     6          0.841              1.284              0.697
 Vibration     7          0.890              1.172              0.576
 Vibration     8          0.978              0.993              0.419

 Normal termination of Gaussian 09 at Mon Jan 27 13:35:33 2020.
