 Gaussian 09, Revision D.01,
 Gaussian 09:  ES64L-G09RevD.01 24-Apr-2013

 -----------------------------
 # b3lyp 6-31G(2df,p) opt Freq
 -----------------------------

 -----
 titel
 -----
 Symbolic Z-matrix:
 Charge =  0 Multiplicity = 1

 SCF Done:  E(RB3LYP) =  -423.121702703     A.U. after   12 cycles
 Optimization completed.
    -- Stationary point found.
 Normal termination of Gaussian 09 at Mon Jan 27 23:40:07 2020.

 ----------------------------------------------------------------------
 #N Geom=AllCheck Guess=TCheck SCRF=Check GenChk RB3LYP/6-31G(2df,p) Fr
 eq
 ----------------------------------------------------------------------

 Structure from the checkpoint file:  "/scratch/puck/g09_bc0bf53a-3f4d-4c4c-87e2-b610fbcb42bd/Gau-103899.chk"
 -----
 titel
 -----
 Charge =  0 Multiplicity = 1

                         Standard orientation:
 ---------------------------------------------------------------------
 Center     Atomic      Atomic             Coordinates (Angstroms)
 Number     Number       Type             X           Y           Z
 ---------------------------------------------------------------------
      1          8           0       -2.919496   -0.795919   -0.301653
      2          6           0       -1.734313   -0.376821    0.307391
      3          6           0       -1.233954    0.999321   -0.034249
      4          8           0       -0.057913    1.296078    0.718761
      5          6           0        0.657107    0.213015    0.061192
      6          6           0        1.915962    0.566120   -0.759531
      7          6           0        2.564069   -0.745183   -0.232101
      8          6           0        1.498020   -0.769461    0.900296
      9          6           0       -0.604370   -0.210445   -0.682969
     10          1           0       -3.654833   -0.391798    0.171438
     11          1           0       -1.533534   -0.775125    1.304425
     12          1           0       -1.838374    1.812850   -0.419067
     13          1           0        1.798295    0.698858   -1.837793
     14          1           0        2.393439    1.455475   -0.338943
     15          1           0        2.441628   -1.576644   -0.930717
     16          1           0        3.611502   -0.695805    0.069746
     17          1           0        1.040014   -1.723820    1.170953
     18          1           0        1.859681   -0.275362    1.806529
     19          1           0       -0.673661   -0.589173   -1.693614
 ---------------------------------------------------------------------

 SCF Done:  E(RB3LYP) =  -423.121702703     A.U. after    1 cycles

 The electronic state is 1-A.
 Alpha  occ. eigenvalues --  -19.14954 -19.13596 -10.24012 -10.23673 -10.23426
 Alpha  occ. eigenvalues --  -10.19026 -10.18411 -10.17927 -10.17852  -1.05489
 Alpha  occ. eigenvalues --   -1.02881  -0.83802  -0.81910  -0.66570  -0.66220
 Alpha  occ. eigenvalues --   -0.60352  -0.58400  -0.54131  -0.51135  -0.50332
 Alpha  occ. eigenvalues --   -0.47307  -0.45753  -0.44640  -0.40515  -0.39127
 Alpha  occ. eigenvalues --   -0.38419  -0.35295  -0.33954  -0.32745  -0.31899
 Alpha  occ. eigenvalues --   -0.30029  -0.29603  -0.26272  -0.22421
 Alpha virt. eigenvalues --    0.06653   0.07798   0.09894   0.11570   0.12545
 Alpha virt. eigenvalues --    0.12957   0.14504   0.15134   0.16217   0.17934
 Alpha virt. eigenvalues --    0.18599   0.19207   0.19798   0.21069   0.22022

 Mulliken charges:
               1
     1  O   -0.425394
     2  C    0.046379
     3  C    0.027245
     4  O   -0.329819
     5  C    0.457888
     6  C   -0.289910
     7  C   -0.217682
     8  C   -0.286244
     9  C   -0.221398
    10  H    0.291879
    11  H    0.092250
    12  H    0.105008
    13  H    0.100171
    14  H    0.114184
    15  H    0.107279
    16  H    0.103804
    17  H    0.100834
    18  H    0.115011
    19  H    0.108515
 Sum of Mulliken charges =   0.00000

 Dipole moment (field-independent basis, Debye):
    X=             -0.3233    Y=             -0.1299    Z=             -0.1033  Tot=              0.3634
 Quadrupole moment (field-independent basis, Debye-Ang):
   XX=            -46.6594   YY=            -55.8343   ZZ=            -53.2294
   XY=             -3.4049   XZ=             -2.7604   YZ=             -2.2893

  Exact polarizability:  92.419  -1.787  67.735  -1.196  -1.618  65.748
 Approx polarizability: 116.570  -1.211 105.159  -1.268   2.637 101.015

                      1                      2                      3
                      A                      A                      A
 Frequencies --    107.9192               131.7970               220.1892
 Red. masses --      2.5988                 2.9861                 2.5175
 Frc consts  --      0.0178                 0.0306                 0.0719
 IR Inten    --      0.3642                 0.6239                 5.7423

                      4                      5                      6
                      A                      A                      A
 Frequencies --    267.5715               316.4849               341.8848
 Red. masses --      2.7873                 1.7405                 1.8256
 Frc consts  --      0.1176                 0.1027                 0.1257
 IR Inten    --      6.0325                16.9188                90.9962

                      7                      8                      9
                      A                      A                      A
 Frequencies --    378.2032               455.9655               479.1179
 Red. masses --      2.7824                 4.1616                 3.8921
 Frc consts  --      0.2345                 0.5098                 0.5264
 IR Inten    --      4.5421                 8.8120                 0.2969

                     10                     11                     12
                      A                      A                      A
 Frequencies --    549.9535               693.0059               780.8846
 Red. masses --      4.8070                 1.5344                 1.2372
 Frc consts  --      0.8566                 0.4342                 0.4445
 IR Inten    --      2.0243                 3.1766                 0.2640

                     13                     14                     15
                      A                      A                      A
 Frequencies --    810.7966               829.1298               893.2131
 Red. masses --      1.5512                 1.8532                 2.3119
 Frc consts  --      0.6008                 0.7506                 1.0868
 IR Inten    --     17.4152                 6.8195                 6.1719

                     16                     17                     18
                      A                      A                      A
 Frequencies --    916.3285               923.4666               930.7962
 Red. masses --      2.3383                 2.7645                 3.4368
 Frc consts  --      1.1568                 1.3890                 1.7544
 IR Inten    --      0.7862                 0.2952                 0.5218

                     19                     20                     21
                      A                      A                      A
 Frequencies --    934.4827               957.2098              1016.6474
 Red. masses --      2.9991                 2.9877                 1.3235
 Frc consts  --      1.5431                 1.6129                 0.8060
 IR Inten    --     21.7784                16.3038                 1.1218

                     22                     23                     24
                      A                      A                      A
 Frequencies --   1023.2876              1036.1964              1074.0216
 Red. masses --      2.1851                 1.4859                 2.2529
 Frc consts  --      1.3481                 0.9400                 1.5312
 IR Inten    --     30.8879                11.5100               132.9714

                     25                     26                     27
                      A                      A                      A
 Frequencies --   1103.4372              1109.8977              1161.7613
 Red. masses --      1.8291                 2.0069                 2.0470
 Frc consts  --      1.3122                 1.4566                 1.6278
 IR Inten    --      8.0873                25.1866                 6.2102

                     28                     29                     30
                      A                      A                      A
 Frequencies --   1168.9123              1195.9523              1211.8285
 Red. masses --      3.3960                 1.4899                 1.8110
 Frc consts  --      2.7339                 1.2555                 1.5669
 IR Inten    --     27.3693                 3.8441                 1.3617

                     31                     32                     33
                      A                      A                      A
 Frequencies --   1218.7790              1243.6812              1267.2300
 Red. masses --      1.6230                 1.1979                 1.3655
 Frc consts  --      1.4204                 1.0916                 1.2920
 IR Inten    --      6.5851                 0.6348                 8.5521

                     34                     35                     36
                      A                      A                      A
 Frequencies --   1273.4947              1289.3096              1308.3757
 Red. masses --      1.5159                 1.4193                 1.6511
 Frc consts  --      1.4485                 1.3901                 1.6653
 IR Inten    --      4.6577                32.1517                 8.6508

                     37                     38                     39
                      A                      A                      A
 Frequencies --   1339.8528              1435.7921              1465.8239
 Red. masses --      2.9022                 2.2184                 1.0917
 Frc consts  --      3.0697                 2.6945                 1.3821
 IR Inten    --     51.5356                 7.4275                 2.5944

                     40                     41                     42
                      A                      A                      A
 Frequencies --   1482.4300              1504.0394              3057.8822
 Red. masses --      1.0875                 1.1345                 1.0570
 Frc consts  --      1.4081                 1.5121                 5.8233
 IR Inten    --      2.3890                 2.0890                41.0606

                     43                     44                     45
                      A                      A                      A
 Frequencies --   3061.8288              3070.2167              3077.0095
 Red. masses --      1.0578                 1.0618                 1.0873
 Frc consts  --      5.8427                 5.8971                 6.0656
 IR Inten    --      7.2320                28.6565                34.6777

                     46                     47                     48
                      A                      A                      A
 Frequencies --   3108.5078              3115.4162              3129.8596
 Red. masses --      1.1071                 1.1084                 1.1076
 Frc consts  --      6.3029                 6.3384                 6.3925
 IR Inten    --      8.0210                12.2339                43.0368

                     49                     50                     51
                      A                      A                      A
 Frequencies --   3177.5990              3209.8248              3801.6078
 Red. masses --      1.0917                 1.0963                 1.0662
 Frc consts  --      6.4946                 6.6552                 9.0789
 IR Inten    --     25.2512                 4.6574                27.1362

 - Thermochemistry -
 -------------------
 Temperature   298.150 Kelvin.  Pressure   1.00000 Atm.
 Atom     1 has atomic number  8 and mass  15.99491

 Molecular mass:   126.06808 amu.
 Principal axes and moments of inertia in atomic units:
                           1         2         3
     Eigenvalues --   464.483211606.186971732.92419
           X            0.99989  -0.01407  -0.00515
           Y            0.01346   0.99458  -0.10313
           Z            0.00657   0.10305   0.99465
 This molecule is an asymmetric top.
 Rotational symmetry number  1.
 Warning -- assumption of classical behavior for rotation
           may cause significant error
 Rotational temperatures (Kelvin)      0.18647     0.05393     0.04998
 Rotational constants (GHZ):           3.88548     1.12362     1.04144
 Zero-point vibrational energy     416652.8 (Joules/Mol)
                                   99.58240 (Kcal/Mol)
 Warning -- explicit consideration of  10 degrees of freedom as
           vibrations may cause significant error
 Vibrational temperatures:    155.27   189.63   316.80   384.98   455.35
          (Kelvin)            491.90   544.15   656.03   689.34   791.26
                              997.08  1123.52  1166.55  1192.93  1285.13
                             1318.39  1328.66  1339.21  1344.51  1377.21
                             1462.73  1472.28  1490.85  1545.28  1587.60
                             1596.89  1671.51  1681.80  1720.71  1743.55
                             1753.55  1789.38  1823.26  1832.27  1855.03
                             1882.46  1927.75  2065.78  2108.99  2132.88
                             2163.97  4399.61  4405.28  4417.35  4427.12
                             4472.44  4482.38  4503.16  4571.85  4618.22
                             5469.66

 Zero-point correction=                           0.158695 (Hartree/Particle)
 Thermal correction to Energy=                    0.166701
 Thermal correction to Enthalpy=                  0.167645
 Thermal correction to Gibbs Free Energy=         0.126294
 Sum of electronic and zero-point Energies=           -422.963008
 Sum of electronic and thermal Energies=              -422.955002
 Sum of electronic and thermal Enthalpies=            -422.954057
 Sum of electronic and thermal Free Energies=         -422.995409

                     E (Thermal)             CV                S
                      KCal/Mol        Cal/Mol-Kelvin    Cal/Mol-Kelvin
 Total                  104.607             31.684             87.031
 Electronic               0.000              0.000              0.000
 Translational            0.889              2.981             40.409
 Rotational               0.889              2.981             28.649
 Vibrational            102.829             25.723             17.974
 Vibration     1          0.606              1.943              3.306
 Vibration     2          0.612              1.922              2.920
 Vibration     3          0.647              1.810              1.958
 Vibration     4          0.673              1.733              1.612
 Vibration     5          0.703              1.642              1.328
 Vibration     6          0.721              1.592              1.203
 Vibration     7          0.748              1.517              1.046
 Vibration     8          0.814              1.348              0.778
 Vibration     9          0.836              1.296              0.712
 Vibration    10          0.905              1.140              0.544

 Optimization completed.
    -- Stationary point found.
 Normal termination of Gaussian 09 at Tue Jan 28 00:23:01 2020.
