 Gaussian 09, Revision D.01,
 Gaussian 09:  ES64L-G09RevD.01 24-Apr-2013

 -----------------------------
 # b3lyp 6-31G(2df,p) opt Freq
 -----------------------------

 -----
 titel
 -----
 Symbolic Z-matrix:
 Charge =  0 Multiplicity = 1

 SCF Done:  E(RB3LYP) =  -423.223752136     A.U. after   14 cycles
 Optimization completed.
    -- Stationary point found.
 Normal termination of Gaussian 09 at Tue Jan 28 08:10:48 2020.

 ----------------------------------------------------------------------
 #N Geom=AllCheck Guess=TCheck SCRF=Check GenChk RB3LYP/6-31G(2df,p) Fr
 eq
 ----------------------------------------------------------------------

 Structure from the checkpoint file:  "/scratch/puck/g09_1a299635-f7e9-4e05-9314-6d20c06a37f1/Gau-126953.chk"
 -----
 titel
 -----
 Charge =  0 Multiplicity = 1

                         Standard orientation:
 ---------------------------------------------------------------------
 Center     Atomic      Atomic             Coordinates (Angstroms)
 Number     Number       Type             X           Y           Z
 ---------------------------------------------------------------------
      1          8           0       -0.590329   -1.697697   -0.695650
      2          6           0       -0.181425   -0.895762    0.408909
      3          6           0        1.318367   -1.106123    0.631968
      4          6           0        2.159451   -0.266348   -0.334939
      5          6           0        1.882125    1.229702   -0.126961
      6          6           0        0.411380    1.511826   -0.054594
      7          6           0       -0.514376    0.563937    0.156867
      8          6           0       -1.937054    0.913375    0.061258
      9          8           0       -2.833387    0.092165    0.038016
     10          1           0       -1.546615   -1.579610   -0.765694
     11          1           0       -0.726401   -1.212940    1.311256
     12          1           0        1.564332   -0.834593    1.666417
     13          1           0        1.529738   -2.172804    0.515558
     14          1           0        3.225788   -0.473519   -0.203382
     15          1           0        1.898805   -0.542825   -1.362615
     16          1           0        2.358713    1.585645    0.800123
     17          1           0        2.328125    1.830156   -0.929195
     18          1           0        0.085025    2.540398   -0.209385
     19          1           0       -2.158597    2.000706   -0.017062
 ---------------------------------------------------------------------

 SCF Done:  E(RB3LYP) =  -423.223752136     A.U. after    1 cycles

 The electronic state is 1-A.
 Alpha  occ. eigenvalues --  -19.14085 -19.12496 -10.27120 -10.23426 -10.21668
 Alpha  occ. eigenvalues --  -10.20155 -10.19653 -10.18697 -10.18250  -1.04621
 Alpha  occ. eigenvalues --   -1.00812  -0.84581  -0.77077  -0.74393  -0.65048
 Alpha  occ. eigenvalues --   -0.61921  -0.58692  -0.53750  -0.50530  -0.48610
 Alpha  occ. eigenvalues --   -0.46434  -0.44975  -0.42593  -0.41641  -0.40936
 Alpha  occ. eigenvalues --   -0.40286  -0.39245  -0.36090  -0.34194  -0.33385
 Alpha  occ. eigenvalues --   -0.31931  -0.27491  -0.26444  -0.25209
 Alpha virt. eigenvalues --   -0.05849   0.04593   0.08494   0.10626   0.12370
 Alpha virt. eigenvalues --    0.13382   0.13734   0.14828   0.16664   0.17446
 Alpha virt. eigenvalues --    0.17617   0.18635   0.20107   0.21280   0.23136

 Mulliken charges:
               1
     1  O   -0.447634
     2  C    0.035209
     3  C   -0.217504
     4  C   -0.208464
     5  C   -0.256501
     6  C   -0.126036
     7  C    0.210490
     8  C    0.089241
     9  O   -0.295777
    10  H    0.295427
    11  H    0.078453
    12  H    0.094247
    13  H    0.113073
    14  H    0.095678
    15  H    0.122956
    16  H    0.121994
    17  H    0.116140
    18  H    0.100835
    19  H    0.078173
 Sum of Mulliken charges =   0.00000

 Dipole moment (field-independent basis, Debye):
    X=              2.4477    Y=              2.3218    Z=              0.6934  Tot=              3.4442
 Quadrupole moment (field-independent basis, Debye-Ang):
   XX=            -57.4515   YY=            -51.8290   ZZ=            -53.2022
   XY=             -0.1159   XZ=              0.6688   YZ=             -1.7912

  Exact polarizability: 101.498   7.155  82.471  -0.591  -2.370  56.418
 Approx polarizability: 153.764  27.427 125.863  -1.453  -1.634  89.130

                      1                      2                      3
                      A                      A                      A
 Frequencies --     86.8532               132.1434               199.7445
 Red. masses --      4.3301                 3.4950                 7.1196
 Frc consts  --      0.0192                 0.0360                 0.1674
 IR Inten    --      3.0019                 1.8769                 4.9712

                      4                      5                      6
                      A                      A                      A
 Frequencies --    237.4727               282.1687               318.1358
 Red. masses --      2.2257                 3.5076                 1.9759
 Frc consts  --      0.0740                 0.1645                 0.1178
 IR Inten    --      4.1657                 8.1624                 3.1321

                      7                      8                      9
                      A                      A                      A
 Frequencies --    393.7416               396.5153               505.5383
 Red. masses --      2.4866                 3.3674                 1.1973
 Frc consts  --      0.2271                 0.3119                 0.1803
 IR Inten    --      6.4897                 1.8400                83.4023

                     10                     11                     12
                      A                      A                      A
 Frequencies --    512.6616               559.2935               633.4463
 Red. masses --      2.4743                 3.3751                 4.3228
 Frc consts  --      0.3831                 0.6220                 1.0220
 IR Inten    --     27.6707                 3.1652                 8.4812

                     13                     14                     15
                      A                      A                      A
 Frequencies --    701.9294               806.3880               816.3322
 Red. masses --      3.1644                 3.2692                 1.3672
 Frc consts  --      0.9186                 1.2525                 0.5368
 IR Inten    --     19.5867                 8.8790                 7.2938

                     16                     17                     18
                      A                      A                      A
 Frequencies --    872.2046               889.5101               938.2833
 Red. masses --      2.3844                 1.6334                 2.1198
 Frc consts  --      1.0687                 0.7614                 1.0996
 IR Inten    --      1.4358                 3.0897                 4.7423

                     19                     20                     21
                      A                      A                      A
 Frequencies --    969.1913              1010.1897              1036.8049
 Red. masses --      2.3796                 2.2822                 1.7862
 Frc consts  --      1.3170                 1.3722                 1.1313
 IR Inten    --      7.1550                36.2995                11.6794

                     22                     23                     24
                      A                      A                      A
 Frequencies --   1065.8641              1085.4368              1110.6687
 Red. masses --      1.9994                 1.7264                 2.0496
 Frc consts  --      1.3383                 1.1984                 1.4897
 IR Inten    --     21.3969                 7.7570                10.4428

                     25                     26                     27
                      A                      A                      A
 Frequencies --   1172.7180              1189.8872              1211.4575
 Red. masses --      1.3302                 1.9487                 1.6354
 Frc consts  --      1.0779                 1.6256                 1.4141
 IR Inten    --     14.6395                33.8431                28.1185

                     28                     29                     30
                      A                      A                      A
 Frequencies --   1279.2286              1290.7462              1338.9656
 Red. masses --      1.2105                 1.1948                 1.3308
 Frc consts  --      1.1671                 1.1728                 1.4057
 IR Inten    --     14.2934                62.6202                16.1691

                     31                     32                     33
                      A                      A                      A
 Frequencies --   1362.1552              1368.6966              1385.8468
 Red. masses --      1.3752                 1.4448                 1.5569
 Frc consts  --      1.5034                 1.5946                 1.7618
 IR Inten    --      3.1992                 2.5640                 0.7448

                     34                     35                     36
                      A                      A                      A
 Frequencies --   1391.4856              1422.6100              1440.9425
 Red. masses --      1.5483                 1.2637                 1.7935
 Frc consts  --      1.7662                 1.5068                 2.1940
 IR Inten    --      9.0517                 2.0514                50.8893

                     37                     38                     39
                      A                      A                      A
 Frequencies --   1459.3961              1476.5956              1493.5369
 Red. masses --      1.0879                 1.0893                 1.0998
 Frc consts  --      1.3651                 1.3993                 1.4454
 IR Inten    --      6.5851                 6.0554                 5.0342

                     40                     41                     42
                      A                      A                      A
 Frequencies --   1701.1700              1765.5956              2888.0311
 Red. masses --      7.0261                10.0219                 1.0836
 Frc consts  --     11.9801                18.4070                 5.3253
 IR Inten    --     54.4540               235.6588               112.7491

                     43                     44                     45
                      A                      A                      A
 Frequencies --   2979.6185              2992.3135              3031.4766
 Red. masses --      1.0820                 1.0702                 1.0674
 Frc consts  --      5.6599                 5.6458                 5.7792
 IR Inten    --     33.9342                16.8268                29.8191

                     46                     47                     48
                      A                      A                      A
 Frequencies --   3041.5140              3053.1969              3089.5029
 Red. masses --      1.0706                 1.0772                 1.1006
 Frc consts  --      5.8351                 5.9164                 6.1898
 IR Inten    --      8.1576                37.5803                31.3311

                     49                     50                     51
                      A                      A                      A
 Frequencies --   3095.2002              3128.4242              3771.5918
 Red. masses --      1.1005                 1.0886                 1.0655
 Frc consts  --      6.2118                 6.2773                 8.9298
 IR Inten    --     22.9131                19.9869                49.4308

 - Thermochemistry -
 -------------------
 Temperature   298.150 Kelvin.  Pressure   1.00000 Atm.
 Atom     1 has atomic number  8 and mass  15.99491

 Molecular mass:   126.06808 amu.
 Principal axes and moments of inertia in atomic units:
                           1         2         3
     Eigenvalues --   651.909571308.055031779.50249
           X            1.00000   0.00064   0.00056
           Y           -0.00063   0.99974  -0.02286
           Z           -0.00058   0.02286   0.99974
 This molecule is an asymmetric top.
 Rotational symmetry number  1.
 Warning -- assumption of classical behavior for rotation
           may cause significant error
 Rotational temperatures (Kelvin)      0.13286     0.06622     0.04867
 Rotational constants (GHZ):           2.76839     1.37971     1.01418
 Zero-point vibrational energy     420980.4 (Joules/Mol)
                                  100.61672 (Kcal/Mol)
 Warning -- explicit consideration of  11 degrees of freedom as
           vibrations may cause significant error
 Vibrational temperatures:    124.96   190.12   287.39   341.67   405.98
          (Kelvin)            457.73   566.51   570.50   727.36   737.60
                              804.70   911.39  1009.92  1160.21  1174.52
                             1254.91  1279.81  1349.98  1394.45  1453.44
                             1491.73  1533.54  1561.70  1598.00  1687.28
                             1711.98  1743.01  1840.52  1857.09  1926.47
                             1959.84  1969.25  1993.92  2002.03  2046.82
                             2073.19  2099.74  2124.49  2148.86  2447.60
                             2540.30  4155.23  4287.00  4305.27  4361.61
                             4376.05  4392.86  4445.10  4453.30  4501.10
                             5426.47

 Zero-point correction=                           0.160343 (Hartree/Particle)
 Thermal correction to Energy=                    0.168670
 Thermal correction to Enthalpy=                  0.169615
 Thermal correction to Gibbs Free Energy=         0.127434
 Sum of electronic and zero-point Energies=           -423.063409
 Sum of electronic and thermal Energies=              -423.055082
 Sum of electronic and thermal Enthalpies=            -423.054138
 Sum of electronic and thermal Free Energies=         -423.096318

                     E (Thermal)             CV                S
                      KCal/Mol        Cal/Mol-Kelvin    Cal/Mol-Kelvin
 Total                  105.842             31.930             88.777
 Electronic               0.000              0.000              0.000
 Translational            0.889              2.981             40.409
 Rotational               0.889              2.981             28.808
 Vibrational            104.065             25.968             19.560
 Vibration     1          0.601              1.958              3.730
 Vibration     2          0.612              1.921              2.915
 Vibration     3          0.638              1.840              2.135
 Vibration     4          0.656              1.783              1.822
 Vibration     5          0.681              1.707              1.520
 Vibration     6          0.705              1.639              1.320
 Vibration     7          0.761              1.484              0.986
 Vibration     8          0.763              1.478              0.976
 Vibration     9          0.861              1.238              0.644
 Vibration    10          0.868              1.222              0.627
 Vibration    11          0.915              1.119              0.525

 Normal termination of Gaussian 09 at Tue Jan 28 08:55:56 2020.
