 Gaussian 09, Revision D.01,
 Gaussian 09:  ES64L-G09RevD.01 24-Apr-2013

 -----------------------------
 # b3lyp 6-31G(2df,p) opt Freq
 -----------------------------

 -----
 titel
 -----
 Symbolic Z-matrix:
 Charge =  0 Multiplicity = 1

 SCF Done:  E(RB3LYP) =  -423.170550811     A.U. after   14 cycles
 Optimization completed.
    -- Stationary point found.
 Normal termination of Gaussian 09 at Mon Jan 27 13:36:15 2020.

 ----------------------------------------------------------------------
 #N Geom=AllCheck Guess=TCheck SCRF=Check GenChk RB3LYP/6-31G(2df,p) Fr
 eq
 ----------------------------------------------------------------------

 Structure from the checkpoint file:  "/scratch/puck/g09_5ec0d5bf-2c88-4459-a401-653d90ad99fc/Gau-169440.chk"
 -----
 titel
 -----
 Charge =  0 Multiplicity = 1

                         Standard orientation:
 ---------------------------------------------------------------------
 Center     Atomic      Atomic             Coordinates (Angstroms)
 Number     Number       Type             X           Y           Z
 ---------------------------------------------------------------------
      1          8           0        3.257544    0.520296    0.003789
      2          6           0        2.315165   -0.123454    0.386384
      3          6           0        1.275214   -0.755778   -0.516200
      4          6           0       -0.135737   -0.297086   -0.188867
      5          6           0       -0.851541   -0.560502    1.183761
      6          6           0       -2.085563   -0.186549    0.328556
      7          6           0       -1.407475   -0.931704   -0.845518
      8          8           0       -1.868104    1.198290    0.015760
      9          6           0       -0.477337    1.193774   -0.368674
     10          1           0        2.146847   -0.299195    1.474331
     11          1           0        1.536526   -0.530107   -1.555407
     12          1           0        1.337027   -1.844624   -0.377414
     13          1           0       -0.824898   -1.612195    1.476113
     14          1           0       -0.617921    0.089611    2.030382
     15          1           0       -3.117363   -0.337426    0.639618
     16          1           0       -1.430657   -2.018675   -0.746275
     17          1           0       -1.675898   -0.622297   -1.858601
     18          1           0       -0.365349    1.537935   -1.403953
     19          1           0        0.099809    1.856082    0.288163
 ---------------------------------------------------------------------

 SCF Done:  E(RB3LYP) =  -423.170550811     A.U. after    1 cycles

 The electronic state is 1-A.
 Alpha  occ. eigenvalues --  -19.14453 -19.13819 -10.27701 -10.24272 -10.23073
 Alpha  occ. eigenvalues --  -10.21936 -10.20276 -10.19435 -10.19314  -1.05134
 Alpha  occ. eigenvalues --   -1.04522  -0.85231  -0.77265  -0.71086  -0.67755
 Alpha  occ. eigenvalues --   -0.59284  -0.57856  -0.56193  -0.51369  -0.49048
 Alpha  occ. eigenvalues --   -0.47148  -0.46238  -0.44324  -0.41978  -0.40554
 Alpha  occ. eigenvalues --   -0.39170  -0.38276  -0.36764  -0.36503  -0.34062
 Alpha  occ. eigenvalues --   -0.32517  -0.30684  -0.25351  -0.24618
 Alpha virt. eigenvalues --   -0.02760   0.08399   0.09125   0.10793   0.10919
 Alpha virt. eigenvalues --    0.12700   0.13562   0.14882   0.15488   0.15760
 Alpha virt. eigenvalues --    0.16719   0.18348   0.19156   0.19670   0.21306

 Mulliken charges:
               1
     1  O   -0.237801
     2  C    0.160284
     3  C   -0.393235
     4  C    0.269212
     5  C   -0.274361
     6  C    0.105862
     7  C   -0.279714
     8  O   -0.276361
     9  C   -0.105156
    10  H    0.078818
    11  H    0.123430
    12  H    0.119380
    13  H    0.101806
    14  H    0.104921
    15  H    0.084612
    16  H    0.101255
    17  H    0.104185
    18  H    0.105465
    19  H    0.107397
 Sum of Mulliken charges =   0.00000

 Dipole moment (field-independent basis, Debye):
    X=             -1.2844    Y=             -2.5754    Z=              0.2818  Tot=              2.8917
 Quadrupole moment (field-independent basis, Debye-Ang):
   XX=            -65.4015   YY=            -53.5010   ZZ=            -51.4151
   XY=             -0.0009   XZ=              0.6976   YZ=             -0.5002

  Exact polarizability:  84.786   6.467  69.891  -0.888  -1.406  71.285
 Approx polarizability: 117.843  10.865 108.649  -3.919  -3.729 107.579

                      1                      2                      3
                      A                      A                      A
 Frequencies --     48.5201                68.9650               167.0483
 Red. masses --      5.4305                 3.2882                 2.7492
 Frc consts  --      0.0075                 0.0092                 0.0452
 IR Inten    --      5.9044                 1.9609                 2.6427

                      4                      5                      6
                      A                      A                      A
 Frequencies --    276.4431               316.4863               389.8852
 Red. masses --      2.6823                 2.7834                 2.6790
 Frc consts  --      0.1208                 0.1643                 0.2399
 IR Inten    --      0.9888                 0.9478                 3.6912

                      7                      8                      9
                      A                      A                      A
 Frequencies --    458.6991               481.7904               519.1916
 Red. masses --      2.9553                 2.3463                 1.7248
 Frc consts  --      0.3664                 0.3209                 0.2739
 IR Inten    --     11.8540                 1.3498                 0.3411

                     10                     11                     12
                      A                      A                      A
 Frequencies --    613.2301               679.8591               808.3553
 Red. masses --      3.1863                 2.9183                 2.1238
 Frc consts  --      0.7060                 0.7947                 0.8177
 IR Inten    --      3.9572                 0.8481                 0.9303

                     13                     14                     15
                      A                      A                      A
 Frequencies --    838.4489               857.2859               888.2694
 Red. masses --      1.9642                 3.7378                 2.6067
 Frc consts  --      0.8135                 1.6185                 1.2118
 IR Inten    --      3.6394                 4.2774                 1.3801

                     16                     17                     18
                      A                      A                      A
 Frequencies --    916.7875               949.9884               954.9641
 Red. masses --      3.6316                 1.6049                 1.8132
 Frc consts  --      1.7984                 0.8533                 0.9742
 IR Inten    --     32.3458                 6.7759                 9.9089

                     19                     20                     21
                      A                      A                      A
 Frequencies --    962.6825              1001.6407              1022.2255
 Red. masses --      2.0797                 4.6687                 1.1866
 Frc consts  --      1.1356                 2.7597                 0.7305
 IR Inten    --      0.6201                51.1052                 1.1709

                     22                     23                     24
                      A                      A                      A
 Frequencies --   1048.1155              1061.1749              1119.5806
 Red. masses --      1.7992                 2.0724                 1.6690
 Frc consts  --      1.1645                 1.3750                 1.2326
 IR Inten    --      2.2326                26.6527                 7.7972

                     25                     26                     27
                      A                      A                      A
 Frequencies --   1126.5197              1167.3217              1174.5345
 Red. masses --      1.7149                 1.5678                 1.5029
 Frc consts  --      1.2823                 1.2587                 1.2216
 IR Inten    --      7.2941                 8.7723                 8.8981

                     28                     29                     30
                      A                      A                      A
 Frequencies --   1197.7595              1219.3633              1237.1851
 Red. masses --      1.2932                 1.6993                 1.7042
 Frc consts  --      1.0931                 1.4887                 1.5369
 IR Inten    --      0.9020                 0.5356                 2.9219

                     31                     32                     33
                      A                      A                      A
 Frequencies --   1259.9372              1286.4664              1308.8705
 Red. masses --      1.8494                 1.4455                 1.6016
 Frc consts  --      1.7298                 1.4095                 1.6165
 IR Inten    --     13.3599                10.1357                 6.0547

                     34                     35                     36
                      A                      A                      A
 Frequencies --   1316.4854              1380.8362              1428.1413
 Red. masses --      1.8804                 1.6397                 1.2003
 Frc consts  --      1.9201                 1.8421                 1.4424
 IR Inten    --     13.0706                 0.9044                 5.0129

                     37                     38                     39
                      A                      A                      A
 Frequencies --   1459.6518              1472.3462              1505.0915
 Red. masses --      1.0914                 1.1021                 1.1274
 Frc consts  --      1.3701                 1.4076                 1.5047
 IR Inten    --      5.6503                 2.0012                 2.6294

                     40                     41                     42
                      A                      A                      A
 Frequencies --   1531.5653              1834.5226              2863.0229
 Red. masses --      1.1136                10.0923                 1.0818
 Frc consts  --      1.5390                20.0117                 5.2246
 IR Inten    --      0.3438               174.0609                87.7710

                     43                     44                     45
                      A                      A                      A
 Frequencies --   3013.5264              3019.1863              3059.0145
 Red. masses --      1.0627                 1.0561                 1.1029
 Frc consts  --      5.6861                 5.6718                 6.0808
 IR Inten    --     14.2260                50.1152                 7.2148

                     46                     47                     48
                      A                      A                      A
 Frequencies --   3063.2214              3069.1994              3084.4596
 Red. masses --      1.0621                 1.0576                 1.0977
 Frc consts  --      5.8718                 5.8695                 6.1530
 IR Inten    --     61.8776                 5.2430                13.4735

                     49                     50                     51
                      A                      A                      A
 Frequencies --   3129.5482              3135.1431              3145.7944
 Red. masses --      1.1110                 1.1093                 1.0921
 Frc consts  --      6.4110                 6.4241                 6.3674
 IR Inten    --     13.6044                30.6261                43.9396

 - Thermochemistry -
 -------------------
 Temperature   298.150 Kelvin.  Pressure   1.00000 Atm.
 Atom     1 has atomic number  8 and mass  15.99491

 Molecular mass:   126.06808 amu.
 Principal axes and moments of inertia in atomic units:
                           1         2         3
     Eigenvalues --   483.034381689.366491805.38796
           X            0.99998   0.00601   0.00137
           Y           -0.00600   0.99994  -0.00890
           Z           -0.00142   0.00889   0.99996
 This molecule is an asymmetric top.
 Rotational symmetry number  1.
 Warning -- assumption of classical behavior for rotation
           may cause significant error
 Rotational temperatures (Kelvin)      0.17931     0.05127     0.04798
 Rotational constants (GHZ):           3.73626     1.06829     0.99964
 Zero-point vibrational energy     418324.2 (Joules/Mol)
                                   99.98189 (Kcal/Mol)
 Warning -- explicit consideration of  10 degrees of freedom as
           vibrations may cause significant error
 Vibrational temperatures:     69.81    99.23   240.35   397.74   455.35
          (Kelvin)            560.96   659.96   693.19   747.00   882.30
                              978.16  1163.04  1206.34  1233.44  1278.02
                             1319.05  1366.82  1373.98  1385.08  1441.14
                             1470.75  1508.00  1526.79  1610.82  1620.81
                             1679.51  1689.89  1723.31  1754.39  1780.03
                             1812.77  1850.94  1883.17  1894.13  1986.71
                             2054.77  2100.11  2118.38  2165.49  2203.58
                             2639.47  4119.25  4335.79  4343.93  4401.23
                             4407.29  4415.89  4437.84  4502.72  4510.77
                             4526.09

 Zero-point correction=                           0.159331 (Hartree/Particle)
 Thermal correction to Energy=                    0.167348
 Thermal correction to Enthalpy=                  0.168292
 Thermal correction to Gibbs Free Energy=         0.125791
 Sum of electronic and zero-point Energies=           -423.011220
 Sum of electronic and thermal Energies=              -423.003203
 Sum of electronic and thermal Enthalpies=            -423.002258
 Sum of electronic and thermal Free Energies=         -423.044760

                     E (Thermal)             CV                S
                      KCal/Mol        Cal/Mol-Kelvin    Cal/Mol-Kelvin
 Total                  105.013             30.493             89.452
 Electronic               0.000              0.000              0.000
 Translational            0.889              2.981             40.409
 Rotational               0.889              2.981             28.779
 Vibrational            103.235             24.531             20.265
 Vibration     1          0.595              1.978              4.877
 Vibration     2          0.598              1.969              4.183
 Vibration     3          0.624              1.883              2.468
 Vibration     4          0.678              1.717              1.556
 Vibration     5          0.703              1.642              1.328
 Vibration     6          0.758              1.492              1.001
 Vibration     7          0.817              1.342              0.770
 Vibration     8          0.838              1.290              0.705
 Vibration     9          0.874              1.207              0.612
 Vibration    10          0.973              1.004              0.427

 Normal termination of Gaussian 09 at Mon Jan 27 14:16:38 2020.
