 Gaussian 09, Revision D.01,
 Gaussian 09:  ES64L-G09RevD.01 24-Apr-2013

 -----------------------------
 # b3lyp 6-31G(2df,p) opt Freq
 -----------------------------

 -----
 titel
 -----
 Symbolic Z-matrix:
 Charge =  0 Multiplicity = 1

 SCF Done:  E(RB3LYP) =  -423.203251585     A.U. after   14 cycles
 Optimization completed.
    -- Stationary point found.
 Normal termination of Gaussian 09 at Mon Jan 27 22:03:21 2020.

 ----------------------------------------------------------------------
 #N Geom=AllCheck Guess=TCheck SCRF=Check GenChk RB3LYP/6-31G(2df,p) Fr
 eq
 ----------------------------------------------------------------------

 Structure from the checkpoint file:  "/scratch/puck/g09_30c5dc3d-0d92-4502-8039-5e6ee9adb44b/Gau-181017.chk"
 -----
 titel
 -----
 Charge =  0 Multiplicity = 1

                         Standard orientation:
 ---------------------------------------------------------------------
 Center     Atomic      Atomic             Coordinates (Angstroms)
 Number     Number       Type             X           Y           Z
 ---------------------------------------------------------------------
      1          6           0        1.210308    1.940412    0.346330
      2          6           0        0.114784    0.943398    0.087202
      3          6           0       -1.085993    1.275405   -0.393508
      4          6           0       -2.213759    0.286451   -0.514253
      5          6           0       -1.945760   -0.885397    0.425135
      6          8           0       -0.644402   -1.410102    0.210401
      7          6           0        0.417005   -0.505978    0.440194
      8          6           0        1.562738   -1.008874   -0.445223
      9          8           0        2.725536   -0.767107   -0.260763
     10          1           0        1.448615    1.986897    1.416691
     11          1           0        2.140890    1.671622   -0.162450
     12          1           0        0.907072    2.939442    0.023223
     13          1           0       -1.284572    2.311973   -0.655567
     14          1           0       -3.166562    0.762928   -0.252697
     15          1           0       -2.320274   -0.074687   -1.546101
     16          1           0       -2.061891   -0.560227    1.470677
     17          1           0       -2.631825   -1.718075    0.248935
     18          1           0        0.762413   -0.558146    1.487535
     19          1           0        1.201119   -1.616549   -1.302621
 ---------------------------------------------------------------------

 SCF Done:  E(RB3LYP) =  -423.203251585     A.U. after    1 cycles

 The electronic state is 1-A.
 Alpha  occ. eigenvalues --  -19.15041 -19.14542 -10.27276 -10.24617 -10.23573
 Alpha  occ. eigenvalues --  -10.20016 -10.19298 -10.18820 -10.18273  -1.05643
 Alpha  occ. eigenvalues --   -1.04272  -0.82058  -0.78884  -0.71324  -0.66919
 Alpha  occ. eigenvalues --   -0.62545  -0.58866  -0.53138  -0.50737  -0.48111
 Alpha  occ. eigenvalues --   -0.46622  -0.44925  -0.44036  -0.41575  -0.40810
 Alpha  occ. eigenvalues --   -0.40173  -0.38836  -0.38672  -0.37266  -0.35934
 Alpha  occ. eigenvalues --   -0.31089  -0.26848  -0.26444  -0.23821
 Alpha virt. eigenvalues --   -0.03296   0.02543   0.09162   0.11172   0.11249
 Alpha virt. eigenvalues --    0.13060   0.14146   0.15230   0.15779   0.16299
 Alpha virt. eigenvalues --    0.17904   0.18141   0.19263   0.20523   0.23269

 Mulliken charges:
               1
     1  C   -0.481135
     2  C    0.265862
     3  C   -0.163418
     4  C   -0.258666
     5  C   -0.075595
     6  O   -0.276369
     7  C   -0.024655
     8  C    0.141902
     9  O   -0.244333
    10  H    0.128519
    11  H    0.151113
    12  H    0.120755
    13  H    0.088994
    14  H    0.106618
    15  H    0.117914
    16  H    0.095689
    17  H    0.110571
    18  H    0.099044
    19  H    0.097189
 Sum of Mulliken charges =   0.00000

 Dipole moment (field-independent basis, Debye):
    X=             -2.7299    Y=              1.1346    Z=              0.1843  Tot=              2.9620
 Quadrupole moment (field-independent basis, Debye-Ang):
   XX=            -57.8003   YY=            -53.2232   ZZ=            -52.1387
   XY=              1.4964   XZ=              0.7894   YZ=              0.2021

  Exact polarizability: 100.267   0.488  75.466   6.801   1.064  61.870
 Approx polarizability: 148.566  -3.844 106.059  15.139   0.676  96.161

                      1                      2                      3
                      A                      A                      A
 Frequencies --     56.4920                95.9480               155.7369
 Red. masses --      3.9234                 3.2665                 1.1506
 Frc consts  --      0.0074                 0.0177                 0.0164
 IR Inten    --      0.1499                13.4337                 1.7074

                      4                      5                      6
                      A                      A                      A
 Frequencies --    209.8762               215.4677               303.4901
 Red. masses --      2.2648                 2.7477                 1.9774
 Frc consts  --      0.0588                 0.0752                 0.1073
 IR Inten    --      0.3703                 2.1801                 4.3389

                      7                      8                      9
                      A                      A                      A
 Frequencies --    334.9820               361.7979               408.3082
 Red. masses --      2.7428                 3.2369                 6.1726
 Frc consts  --      0.1813                 0.2496                 0.6063
 IR Inten    --      1.1795                 4.8487                 0.0792

                     10                     11                     12
                      A                      A                      A
 Frequencies --    480.4756               549.5862               566.2772
 Red. masses --      4.5749                 2.8583                 5.6848
 Frc consts  --      0.6223                 0.5087                 1.0740
 IR Inten    --      1.2536                25.6752                 3.4746

                     13                     14                     15
                      A                      A                      A
 Frequencies --    647.0147               799.3680               852.1932
 Red. masses --      2.2745                 2.0944                 1.4745
 Frc consts  --      0.5610                 0.7885                 0.6309
 IR Inten    --      9.0493                 7.2600                11.1661

                     16                     17                     18
                      A                      A                      A
 Frequencies --    877.2567               936.1963               952.3181
 Red. masses --      2.5783                 2.3419                 2.0899
 Frc consts  --      1.1691                 1.2093                 1.1167
 IR Inten    --      9.0982                17.6658                 0.5996

                     19                     20                     21
                      A                      A                      A
 Frequencies --   1012.5128              1043.1860              1059.4474
 Red. masses --      1.7567                 2.0291                 2.6631
 Frc consts  --      1.0611                 1.3010                 1.7611
 IR Inten    --      6.5582                10.2288                 9.7525

                     22                     23                     24
                      A                      A                      A
 Frequencies --   1073.3744              1085.8688              1102.4544
 Red. masses --      2.0839                 1.6499                 1.8641
 Frc consts  --      1.4146                 1.1462                 1.3349
 IR Inten    --     10.5875                 6.8416                15.0707

                     25                     26                     27
                      A                      A                      A
 Frequencies --   1145.2340              1172.7093              1231.8535
 Red. masses --      6.1803                 2.3469                 1.2830
 Frc consts  --      4.7758                 1.9017                 1.1471
 IR Inten    --     83.2864                 4.7661                 4.2592

                     28                     29                     30
                      A                      A                      A
 Frequencies --   1258.7235              1299.7434              1317.2107
 Red. masses --      1.4295                 1.3496                 1.2304
 Frc consts  --      1.3344                 1.3433                 1.2578
 IR Inten    --     11.8858                12.9502                 1.2707

                     31                     32                     33
                      A                      A                      A
 Frequencies --   1352.2262              1360.5425              1391.8260
 Red. masses --      1.5110                 1.5217                 1.2629
 Frc consts  --      1.6278                 1.6596                 1.4415
 IR Inten    --     10.6123                 7.1226                 5.0302

                     34                     35                     36
                      A                      A                      A
 Frequencies --   1413.3772              1420.9678              1471.4358
 Red. masses --      1.3146                 1.2481                 1.0937
 Frc consts  --      1.5473                 1.4849                 1.3952
 IR Inten    --      5.8136                 3.4496                 1.6214

                     37                     38                     39
                      A                      A                      A
 Frequencies --   1476.2720              1491.5320              1501.7311
 Red. masses --      1.0451                 1.0566                 1.0919
 Frc consts  --      1.3420                 1.3849                 1.4508
 IR Inten    --      6.8844                 6.0106                 1.5449

                     40                     41                     42
                      A                      A                      A
 Frequencies --   1730.7332              1834.6406              2907.8233
 Red. masses --      7.1359                10.7512                 1.0850
 Frc consts  --     12.5938                21.3211                 5.4053
 IR Inten    --      0.3220               178.0870                74.6615

                     43                     44                     45
                      A                      A                      A
 Frequencies --   2953.8031              2987.1270              3016.6221
 Red. masses --      1.0812                 1.0704                 1.0621
 Frc consts  --      5.5579                 5.6276                 5.6947
 IR Inten    --     41.0666                50.1907                30.8111

                     46                     47                     48
                      A                      A                      A
 Frequencies --   3027.2434              3054.8773              3087.3896
 Red. masses --      1.0422                 1.0977                 1.0911
 Frc consts  --      5.6274                 6.0358                 6.1279
 IR Inten    --     24.6710                29.5041                13.0134

                     49                     50                     51
                      A                      A                      A
 Frequencies --   3093.4442              3122.6802              3151.7530
 Red. masses --      1.0947                 1.1023                 1.0898
 Frc consts  --      6.1721                 6.3331                 6.3781
 IR Inten    --     38.4179                11.4598                19.7404

 - Thermochemistry -
 -------------------
 Temperature   298.150 Kelvin.  Pressure   1.00000 Atm.
 Atom     1 has atomic number  6 and mass  12.00000

 Molecular mass:   126.06808 amu.
 Principal axes and moments of inertia in atomic units:
                           1         2         3
     Eigenvalues --   699.330711276.679801787.94929
           X            0.99903   0.04294   0.00932
           Y           -0.04301   0.99904   0.00786
           Z           -0.00897  -0.00825   0.99993
 This molecule is an asymmetric top.
 Rotational symmetry number  1.
 Warning -- assumption of classical behavior for rotation
           may cause significant error
 Rotational temperatures (Kelvin)      0.12385     0.06784     0.04844
 Rotational constants (GHZ):           2.58067     1.41362     1.00939
 Zero-point vibrational energy     415422.1 (Joules/Mol)
                                   99.28826 (Kcal/Mol)
 Warning -- explicit consideration of  12 degrees of freedom as
           vibrations may cause significant error
 Vibrational temperatures:     81.28   138.05   224.07   301.96   310.01
          (Kelvin)            436.65   481.96   520.55   587.46   691.30
                              790.73   814.75   930.91  1150.11  1226.11
                             1262.18  1346.98  1370.17  1456.78  1500.91
                             1524.31  1544.34  1562.32  1586.18  1647.73
                             1687.27  1772.36  1811.02  1870.04  1895.17
                             1945.55  1957.51  2002.52  2033.53  2044.45
                             2117.07  2124.02  2145.98  2160.65  2490.14
                             2639.64  4183.70  4249.86  4297.80  4340.24
                             4355.52  4395.28  4442.06  4450.77  4492.83
                             4534.66

 Zero-point correction=                           0.158226 (Hartree/Particle)
 Thermal correction to Energy=                    0.167146
 Thermal correction to Enthalpy=                  0.168090
 Thermal correction to Gibbs Free Energy=         0.124181
 Sum of electronic and zero-point Energies=           -423.045026
 Sum of electronic and thermal Energies=              -423.036105
 Sum of electronic and thermal Enthalpies=            -423.035161
 Sum of electronic and thermal Free Energies=         -423.079071

                     E (Thermal)             CV                S
                      KCal/Mol        Cal/Mol-Kelvin    Cal/Mol-Kelvin
 Total                  104.886             32.735             92.416
 Electronic               0.000              0.000              0.000
 Translational            0.889              2.981             40.409
 Rotational               0.889              2.981             28.858
 Vibrational            103.108             26.773             23.149
 Vibration     1          0.596              1.975              4.576
 Vibration     2          0.603              1.952              3.535
 Vibration     3          0.620              1.896              2.601
 Vibration     4          0.642              1.826              2.045
 Vibration     5          0.645              1.817              1.997
 Vibration     6          0.695              1.667              1.398
 Vibration     7          0.716              1.606              1.236
 Vibration     8          0.736              1.551              1.114
 Vibration     9          0.773              1.452              0.933
 Vibration    10          0.837              1.293              0.709
 Vibration    11          0.905              1.141              0.545
 Vibration    12          0.922              1.104              0.511

 Optimization completed.
    -- Stationary point found.
 Normal termination of Gaussian 09 at Mon Jan 27 22:46:53 2020.
