 Gaussian 09, Revision D.01,
 Gaussian 09:  ES64L-G09RevD.01 24-Apr-2013

 -----------------------------
 # b3lyp 6-31G(2df,p) opt Freq
 -----------------------------

 -----
 titel
 -----
 Symbolic Z-matrix:
 Charge =  0 Multiplicity = 1

 SCF Done:  E(RB3LYP) =  -423.203819090     A.U. after   14 cycles
 Optimization completed.
    -- Stationary point found.
 Normal termination of Gaussian 09 at Tue Jan 28 00:45:38 2020.

 ----------------------------------------------------------------------
 #N Geom=AllCheck Guess=TCheck SCRF=Check GenChk RB3LYP/6-31G(2df,p) Fr
 eq
 ----------------------------------------------------------------------

 Structure from the checkpoint file:  "/scratch/puck/g09_9b2368ea-5ae0-479f-8319-8f983c20a6fa/Gau-37667.chk"
 -----
 titel
 -----
 Charge =  0 Multiplicity = 1

                         Standard orientation:
 ---------------------------------------------------------------------
 Center     Atomic      Atomic             Coordinates (Angstroms)
 Number     Number       Type             X           Y           Z
 ---------------------------------------------------------------------
      1          6           0        2.265640   -0.706774    0.804585
      2          6           0        1.584480   -0.232477   -0.477221
      3          6           0        1.111857    1.229360   -0.415892
      4          6           0       -0.347825    1.101333    0.022966
      5          8           0       -1.071815    1.968212    0.445607
      6          6           0       -0.702788   -0.337270   -0.167228
      7          6           0       -2.096563   -0.758730   -0.531381
      8          6           0       -1.585669   -1.026232    0.858304
      9          8           0        0.388121   -1.000470   -0.742200
     10          1           0        1.635334   -0.519039    1.680311
     11          1           0        2.466788   -1.779845    0.749956
     12          1           0        3.215654   -0.181868    0.950415
     13          1           0        2.242021   -0.413508   -1.331689
     14          1           0        1.678520    1.864937    0.267140
     15          1           0        1.126546    1.698758   -1.406192
     16          1           0       -2.823763    0.034188   -0.668821
     17          1           0       -2.173437   -1.597804   -1.213505
     18          1           0       -1.963486   -0.418520    1.673411
     19          1           0       -1.309421   -2.044494    1.106921
 ---------------------------------------------------------------------

 SCF Done:  E(RB3LYP) =  -423.203819090     A.U. after    1 cycles

 The electronic state is 1-A.
 Alpha  occ. eigenvalues --  -19.14950 -19.13202 -10.27052 -10.24555 -10.24393
 Alpha  occ. eigenvalues --  -10.19606 -10.19543 -10.19464 -10.18337  -1.05639
 Alpha  occ. eigenvalues --   -1.03619  -0.85991  -0.78904  -0.73212  -0.65260
 Alpha  occ. eigenvalues --   -0.61222  -0.59729  -0.53552  -0.49680  -0.48101
 Alpha  occ. eigenvalues --   -0.47873  -0.45460  -0.42313  -0.42106  -0.40919
 Alpha  occ. eigenvalues --   -0.38988  -0.38050  -0.37259  -0.36990  -0.34369
 Alpha  occ. eigenvalues --   -0.32442  -0.31651  -0.24789  -0.23675
 Alpha virt. eigenvalues --   -0.02147   0.08617   0.10095   0.11481   0.11810
 Alpha virt. eigenvalues --    0.13462   0.14467   0.14730   0.16442   0.16673
 Alpha virt. eigenvalues --    0.17578   0.18547   0.19890   0.21196   0.22462

 Mulliken charges:
               1
     1  C   -0.392485
     2  C    0.093516
     3  C   -0.351357
     4  C    0.329850
     5  O   -0.329849
     6  C    0.330487
     7  C   -0.318973
     8  C   -0.312346
     9  O   -0.310549
    10  H    0.124877
    11  H    0.128276
    12  H    0.117781
    13  H    0.089001
    14  H    0.133293
    15  H    0.138810
    16  H    0.136662
    17  H    0.131515
    18  H    0.134043
    19  H    0.127451
 Sum of Mulliken charges =   0.00000

 Dipole moment (field-independent basis, Debye):
    X=              1.6848    Y=             -1.0815    Z=             -0.2557  Tot=              2.0183
 Quadrupole moment (field-independent basis, Debye-Ang):
   XX=            -50.3234   YY=            -57.9020   ZZ=            -52.4173
   XY=              4.5157   XZ=              0.8494   YZ=             -3.0029

  Exact polarizability:  87.932   3.496  75.957  -1.570  -0.874  65.182
 Approx polarizability: 116.821   0.856 114.406  -5.561   3.541  99.999

                      1                      2                      3
                      A                      A                      A
 Frequencies --     74.9839                89.6921               216.5826
 Red. masses --      3.7283                 3.2064                 2.3190
 Frc consts  --      0.0124                 0.0152                 0.0641
 IR Inten    --      4.3134                 0.3461                 1.3605

                      4                      5                      6
                      A                      A                      A
 Frequencies --    235.1777               251.4057               325.5462
 Red. masses --      2.2499                 1.2598                 2.3663
 Frc consts  --      0.0733                 0.0469                 0.1478
 IR Inten    --      2.1366                 0.9193                 0.9475

                      7                      8                      9
                      A                      A                      A
 Frequencies --    370.2372               436.0276               462.8518
 Red. masses --      2.6176                 3.6275                 3.4789
 Frc consts  --      0.2114                 0.4063                 0.4391
 IR Inten    --      0.6512                 8.7814                 7.4039

                     10                     11                     12
                      A                      A                      A
 Frequencies --    549.3195               599.2222               666.4127
 Red. masses --      4.0307                 2.9053                 5.0146
 Frc consts  --      0.7166                 0.6146                 1.3121
 IR Inten    --      0.4538                 0.3127                 3.0352

                     13                     14                     15
                      A                      A                      A
 Frequencies --    732.9982               774.3736               815.6146
 Red. masses --      3.7686                 1.0967                 2.6576
 Frc consts  --      1.1930                 0.3875                 1.0416
 IR Inten    --     10.6699                 0.3197                 7.5369

                     16                     17                     18
                      A                      A                      A
 Frequencies --    831.0000               886.7572               913.3317
 Red. masses --      2.3703                 2.2433                 1.8781
 Frc consts  --      0.9644                 1.0393                 0.9230
 IR Inten    --      1.4922                14.0672                 0.6761

                     19                     20                     21
                      A                      A                      A
 Frequencies --    928.6407               949.1940              1001.2926
 Red. masses --      2.4041                 1.8034                 1.9260
 Frc consts  --      1.2215                 0.9573                 1.1377
 IR Inten    --     30.5350                10.1191                 2.4471

                     22                     23                     24
                      A                      A                      A
 Frequencies --   1032.8677              1055.3553              1076.0831
 Red. masses --      3.3527                 1.4721                 1.4217
 Frc consts  --      2.1073                 0.9660                 0.9699
 IR Inten    --     19.6830                 6.2037                 5.7876

                     25                     26                     27
                      A                      A                      A
 Frequencies --   1085.1841              1100.8611              1136.2345
 Red. masses --      1.5614                 2.0381                 2.2018
 Frc consts  --      1.0833                 1.4552                 1.6748
 IR Inten    --      3.5653                23.6558                90.8963

                     28                     29                     30
                      A                      A                      A
 Frequencies --   1201.5317              1207.8019              1263.5773
 Red. masses --      1.2873                 1.4911                 1.8832
 Frc consts  --      1.0950                 1.2815                 1.7715
 IR Inten    --      0.7364                15.0645                48.6637

                     31                     32                     33
                      A                      A                      A
 Frequencies --   1270.8908              1346.6815              1355.2626
 Red. masses --      2.3859                 2.7922                 1.6936
 Frc consts  --      2.2705                 2.9835                 1.8327
 IR Inten    --     79.9105                35.9349                21.3356

                     34                     35                     36
                      A                      A                      A
 Frequencies --   1385.9391              1406.7737              1439.2159
 Red. masses --      1.2955                 1.2995                 1.0918
 Frc consts  --      1.4661                 1.5152                 1.3324
 IR Inten    --      1.3071                13.1732                 2.9951

                     37                     38                     39
                      A                      A                      A
 Frequencies --   1449.1686              1475.2277              1488.6664
 Red. masses --      1.0941                 1.4390                 1.0545
 Frc consts  --      1.3538                 1.8451                 1.3769
 IR Inten    --      7.2738                 7.7165                 1.9089

                     40                     41                     42
                      A                      A                      A
 Frequencies --   1495.5957              1839.4563              3035.9624
 Red. masses --      1.0510                12.4533                 1.0355
 Frc consts  --      1.3851                24.8263                 5.6233
 IR Inten    --      2.0849               172.6035                12.1140

                     43                     44                     45
                      A                      A                      A
 Frequencies --   3051.1676              3070.8299              3107.3727
 Red. masses --      1.0674                 1.0858                 1.1008
 Frc consts  --      5.8545                 6.0328                 6.2624
 IR Inten    --      7.3834                18.8753                35.2382

                     46                     47                     48
                      A                      A                      A
 Frequencies --   3119.9646              3123.6061              3135.3452
 Red. masses --      1.0996                 1.1000                 1.0511
 Frc consts  --      6.3063                 6.3233                 6.0881
 IR Inten    --      6.9576                18.6242                 7.6560

                     49                     50                     51
                      A                      A                      A
 Frequencies --   3136.3288              3226.1070              3240.3209
 Red. masses --      1.0546                 1.1196                 1.1170
 Frc consts  --      6.1122                 6.8657                 6.9099
 IR Inten    --      6.0935                 0.0246                 3.4692

 - Thermochemistry -
 -------------------
 Temperature   298.150 Kelvin.  Pressure   1.00000 Atm.
 Atom     1 has atomic number  6 and mass  12.00000

 Molecular mass:   126.06808 amu.
 Principal axes and moments of inertia in atomic units:
                           1         2         3
     Eigenvalues --   736.220081127.223931499.11302
           X            0.99878   0.04712   0.01463
           Y           -0.04642   0.99791  -0.04503
           Z           -0.01673   0.04429   0.99888
 This molecule is an asymmetric top.
 Rotational symmetry number  1.
 Warning -- assumption of classical behavior for rotation
           may cause significant error
 Rotational temperatures (Kelvin)      0.11765     0.07684     0.05778
 Rotational constants (GHZ):           2.45136     1.60105     1.20387
 Zero-point vibrational energy     415523.1 (Joules/Mol)
                                   99.31241 (Kcal/Mol)
 Warning -- explicit consideration of  11 degrees of freedom as
           vibrations may cause significant error
 Vibrational temperatures:    107.89   129.05   311.61   338.37   361.72
          (Kelvin)            468.39   532.69   627.35   665.94   790.35
                              862.15   958.82  1054.62  1114.15  1173.49
                             1195.62  1275.84  1314.08  1336.11  1365.68
                             1440.63  1486.06  1518.42  1548.24  1561.34
                             1583.89  1634.79  1728.73  1737.76  1818.00
                             1828.53  1937.57  1949.92  1994.05  2024.03
                             2070.71  2085.03  2122.52  2141.86  2151.83
                             2646.56  4368.07  4389.94  4418.23  4470.81
                             4488.93  4494.17  4511.06  4512.47  4641.64
                             4662.09

 Zero-point correction=                           0.158264 (Hartree/Particle)
 Thermal correction to Energy=                    0.166749
 Thermal correction to Enthalpy=                  0.167693
 Thermal correction to Gibbs Free Energy=         0.125052
 Sum of electronic and zero-point Energies=           -423.045555
 Sum of electronic and thermal Energies=              -423.037070
 Sum of electronic and thermal Enthalpies=            -423.036126
 Sum of electronic and thermal Free Energies=         -423.078767

                     E (Thermal)             CV                S
                      KCal/Mol        Cal/Mol-Kelvin    Cal/Mol-Kelvin
 Total                  104.637             32.586             89.745
 Electronic               0.000              0.000              0.000
 Translational            0.889              2.981             40.409
 Rotational               0.889              2.981             28.611
 Vibrational            102.859             26.624             20.726
 Vibration     1          0.599              1.966              4.018
 Vibration     2          0.602              1.956              3.667
 Vibration     3          0.645              1.816              1.987
 Vibration     4          0.655              1.787              1.839
 Vibration     5          0.663              1.760              1.721
 Vibration     6          0.710              1.624              1.282
 Vibration     7          0.742              1.533              1.079
 Vibration     8          0.796              1.392              0.839
 Vibration     9          0.820              1.332              0.758
 Vibration    10          0.905              1.141              0.546
 Vibration    11          0.957              1.033              0.451

 Normal termination of Gaussian 09 at Tue Jan 28 02:54:08 2020.
