 Gaussian 09, Revision D.01,
 Gaussian 09:  ES64L-G09RevD.01 24-Apr-2013

 -----------------------------
 # b3lyp 6-31G(2df,p) opt Freq
 -----------------------------

 -----
 titel
 -----
 Symbolic Z-matrix:
 Charge =  0 Multiplicity = 1

 SCF Done:  E(RB3LYP) =  -423.136441856     A.U. after   14 cycles
 Optimization completed.
    -- Stationary point found.
 Normal termination of Gaussian 09 at Tue Jan 28 09:02:15 2020.

 ----------------------------------------------------------------------
 #N Geom=AllCheck Guess=TCheck SCRF=Check GenChk RB3LYP/6-31G(2df,p) Fr
 eq
 ----------------------------------------------------------------------

 Structure from the checkpoint file:  "/scratch/puck/g09_ba30b1d9-dcc3-4799-ad7b-d82dd2133599/Gau-94243.chk"
 -----
 titel
 -----
 Charge =  0 Multiplicity = 1

                         Standard orientation:
 ---------------------------------------------------------------------
 Center     Atomic      Atomic             Coordinates (Angstroms)
 Number     Number       Type             X           Y           Z
 ---------------------------------------------------------------------
      1          6           0       -3.500401   -0.161278    0.025376
      2          6           0       -2.052594   -0.069994   -0.084576
      3          6           0       -0.854109    0.004503   -0.180214
      4          6           0        0.574512    0.153618   -0.303194
      5          6           0        1.090107    1.588291   -0.352371
      6          8           0        0.740336    2.337919    0.793730
      7          8           0        1.242118   -0.727124   -1.231789
      8          6           0        1.493812   -0.918357    0.160099
      9          6           0        1.025637   -2.210089    0.774224
     10          1           0       -3.929166   -0.681847   -0.837968
     11          1           0       -3.799731   -0.707867    0.926364
     12          1           0       -3.954487    0.834377    0.072894
     13          1           0        2.176868    1.553056   -0.519706
     14          1           0        0.636850    2.106633   -1.202732
     15          1           0        1.116926    1.897670    1.562815
     16          1           0        2.490990   -0.591679    0.468217
     17          1           0        1.663056   -3.037237    0.445156
     18          1           0        1.082582   -2.155051    1.866700
     19          1           0       -0.005307   -2.424577    0.486670
 ---------------------------------------------------------------------

 SCF Done:  E(RB3LYP) =  -423.136441856     A.U. after    1 cycles

 The electronic state is 1-A.
 Alpha  occ. eigenvalues --  -19.15326 -19.14041 -10.25657 -10.24434 -10.23252
 Alpha  occ. eigenvalues --  -10.20716 -10.18354 -10.18271 -10.17169  -1.07468
 Alpha  occ. eigenvalues --   -1.02148  -0.78423  -0.74845  -0.74391  -0.69431
 Alpha  occ. eigenvalues --   -0.62975  -0.60528  -0.52955  -0.49895  -0.46684
 Alpha  occ. eigenvalues --   -0.45433  -0.44161  -0.43201  -0.42946  -0.42771
 Alpha  occ. eigenvalues --   -0.41074  -0.38957  -0.37726  -0.34039  -0.31682
 Alpha  occ. eigenvalues --   -0.28747  -0.26915  -0.25818  -0.24425
 Alpha virt. eigenvalues --    0.02809   0.04703   0.07841   0.10695   0.11270
 Alpha virt. eigenvalues --    0.11726   0.13086   0.14778   0.16208   0.17212
 Alpha virt. eigenvalues --    0.17481   0.17697   0.19242   0.20645   0.20745

 Mulliken charges:
               1
     1  C   -0.505059
     2  C    0.129276
     3  C    0.040466
     4  C    0.119299
     5  C   -0.145361
     6  O   -0.401067
     7  O   -0.283670
     8  C    0.035459
     9  C   -0.428694
    10  H    0.154158
    11  H    0.149918
    12  H    0.155463
    13  H    0.097275
    14  H    0.123908
    15  H    0.283891
    16  H    0.083618
    17  H    0.130321
    18  H    0.119746
    19  H    0.141052
 Sum of Mulliken charges =   0.00000

 Dipole moment (field-independent basis, Debye):
    X=             -0.3772    Y=             -0.9652    Z=              1.8693  Tot=              2.1373
 Quadrupole moment (field-independent basis, Debye-Ang):
   XX=            -43.4638   YY=            -56.8445   ZZ=            -53.2432
   XY=              0.8767   XZ=              3.5499   YZ=             -2.9121

  Exact polarizability: 107.962  -3.045  74.770   0.235  -3.827  62.082
 Approx polarizability: 156.899  -5.735  99.395  -3.389  -1.708  96.963

                      1                      2                      3
                      A                      A                      A
 Frequencies --     13.8971                65.1883                84.6213
 Red. masses --      1.0171                 3.8287                 3.1291
 Frc consts  --      0.0001                 0.0096                 0.0132
 IR Inten    --      0.0250                 1.9772                 2.5005

                      4                      5                      6
                      A                      A                      A
 Frequencies --    114.5540               174.3381               192.6692
 Red. masses --      3.4981                 2.0431                 1.3455
 Frc consts  --      0.0270                 0.0366                 0.0294
 IR Inten    --      1.2341                 0.1133                 0.3969

                      7                      8                      9
                      A                      A                      A
 Frequencies --    231.3477               283.0057               293.7683
 Red. masses --      2.5754                 2.9973                 1.8515
 Frc consts  --      0.0812                 0.1414                 0.0941
 IR Inten    --     11.3678                 8.4547                56.4207

                     10                     11                     12
                      A                      A                      A
 Frequencies --    350.2344               381.8209               404.6678
 Red. masses --      1.9216                 4.0815                 4.1787
 Frc consts  --      0.1389                 0.3506                 0.4032
 IR Inten    --     39.3252                24.2248                 3.5861

                     13                     14                     15
                      A                      A                      A
 Frequencies --    495.6680               535.7469               581.9557
 Red. masses --      4.4559                 5.7379                 4.8808
 Frc consts  --      0.6450                 0.9703                 0.9739
 IR Inten    --      9.0294                 1.0591                 2.3275

                     16                     17                     18
                      A                      A                      A
 Frequencies --    633.9100               797.2019               849.9443
 Red. masses --      4.5450                 3.9829                 2.6525
 Frc consts  --      1.0761                 1.4914                 1.1290
 IR Inten    --     21.8384                 6.6032                22.5790

                     19                     20                     21
                      A                      A                      A
 Frequencies --    953.7141               991.2191              1035.7977
 Red. masses --      2.9756                 1.3124                 2.3017
 Frc consts  --      1.5946                 0.7597                 1.4549
 IR Inten    --     15.7422                14.2052                37.1886

                     22                     23                     24
                      A                      A                      A
 Frequencies --   1050.8419              1053.4027              1056.0708
 Red. masses --      1.4396                 1.5436                 2.2547
 Frc consts  --      0.9366                 1.0092                 1.4816
 IR Inten    --      0.2966                 1.7474                 4.5055

                     25                     26                     27
                      A                      A                      A
 Frequencies --   1095.5720              1131.6074              1163.5051
 Red. masses --      4.7683                 2.2447                 1.6965
 Frc consts  --      3.3720                 1.6935                 1.3531
 IR Inten    --     70.9062                 8.2551                 7.0993

                     28                     29                     30
                      A                      A                      A
 Frequencies --   1201.8083              1268.7492              1341.8855
 Red. masses --      1.2271                 2.4466                 1.6953
 Frc consts  --      1.0442                 2.3204                 1.7986
 IR Inten    --     21.6349                 9.6364                 6.6135

                     31                     32                     33
                      A                      A                      A
 Frequencies --   1372.8544              1407.4402              1412.1523
 Red. masses --      1.3135                 1.3008                 1.2401
 Frc consts  --      1.4585                 1.5182                 1.4570
 IR Inten    --     17.7826                 1.6846                 8.6596

                     34                     35                     36
                      A                      A                      A
 Frequencies --   1420.0545              1446.8375              1475.7911
 Red. masses --      1.2604                 2.1999                 1.0395
 Frc consts  --      1.4975                 2.7133                 1.3338
 IR Inten    --     43.6948                15.1270                 6.1301

                     37                     38                     39
                      A                      A                      A
 Frequencies --   1476.7385              1486.7029              1494.6450
 Red. masses --      1.0396                 1.0668                 1.1463
 Frc consts  --      1.3357                 1.3892                 1.5087
 IR Inten    --      5.8721                 4.6628                 2.7099

                     40                     41                     42
                      A                      A                      A
 Frequencies --   1503.5268              2367.6451              2997.7393
 Red. masses --      1.1012                11.8920                 1.0682
 Frc consts  --      1.4667                39.2771                 5.6558
 IR Inten    --      3.7507                15.8413                49.1947

                     43                     44                     45
                      A                      A                      A
 Frequencies --   3028.8582              3039.5248              3067.2081
 Red. masses --      1.0347                 1.0375                 1.0851
 Frc consts  --      5.5925                 5.6475                 6.0147
 IR Inten    --     27.5152                18.9973                36.1565

                     46                     47                     48
                      A                      A                      A
 Frequencies --   3088.6281              3090.0694              3092.7842
 Red. masses --      1.0952                 1.1002                 1.1002
 Frc consts  --      6.1556                 6.1898                 6.2002
 IR Inten    --     22.2172                 9.4520                 7.4282

                     49                     50                     51
                      A                      A                      A
 Frequencies --   3102.2988              3140.1904              3811.1704
 Red. masses --      1.1006                 1.1003                 1.0661
 Frc consts  --      6.2408                 6.3927                 9.1238
 IR Inten    --     16.7025                13.4686                13.9634

 - Thermochemistry -
 -------------------
 Temperature   298.150 Kelvin.  Pressure   1.00000 Atm.
 Atom     1 has atomic number  6 and mass  12.00000

 Molecular mass:   126.06808 amu.
 Principal axes and moments of inertia in atomic units:
                           1         2         3
     Eigenvalues --  1009.447551479.762312100.35239
           X            0.99994   0.00201   0.01033
           Y           -0.00157   0.99913  -0.04170
           Z           -0.01040   0.04168   0.99908
 This molecule is an asymmetric top.
 Rotational symmetry number  1.
 Warning -- assumption of classical behavior for rotation
           may cause significant error
 Rotational temperatures (Kelvin)      0.08580     0.05853     0.04124
 Rotational constants (GHZ):           1.78785     1.21962     0.85926
 Zero-point vibrational energy     407636.9 (Joules/Mol)
                                   97.42756 (Kcal/Mol)
 Warning -- explicit consideration of  15 degrees of freedom as
           vibrations may cause significant error
 Vibrational temperatures:     19.99    93.79   121.75   164.82   250.83
          (Kelvin)            277.21   332.86   407.18   422.67   503.91
                              549.35   582.23   713.15   770.82   837.30
                              912.05  1146.99  1222.88  1372.18  1426.14
                             1490.28  1511.93  1515.61  1519.45  1576.28
                             1628.13  1674.02  1729.13  1825.44  1930.67
                             1975.23  2024.99  2031.77  2043.14  2081.67
                             2123.33  2124.69  2139.03  2150.46  2163.24
                             3406.51  4313.07  4357.85  4373.19  4413.02
                             4443.84  4445.92  4449.82  4463.51  4518.03
                             5483.42

 Zero-point correction=                           0.155261 (Hartree/Particle)
 Thermal correction to Energy=                    0.166086
 Thermal correction to Enthalpy=                  0.167030
 Thermal correction to Gibbs Free Energy=         0.117353
 Sum of electronic and zero-point Energies=           -422.981181
 Sum of electronic and thermal Energies=              -422.970356
 Sum of electronic and thermal Enthalpies=            -422.969411
 Sum of electronic and thermal Free Energies=         -423.019089

                     E (Thermal)             CV                S
                      KCal/Mol        Cal/Mol-Kelvin    Cal/Mol-Kelvin
 Total                  104.221             37.250            104.556
 Electronic               0.000              0.000              0.000
 Translational            0.889              2.981             40.409
 Rotational               0.889              2.981             29.530
 Vibrational            102.443             31.289             34.617
 Vibration     1          0.593              1.986              7.357
 Vibration     2          0.597              1.971              4.294
 Vibration     3          0.601              1.960              3.781
 Vibration     4          0.607              1.937              3.190
 Vibration     5          0.627              1.874              2.388
 Vibration     6          0.635              1.850              2.202
 Vibration     7          0.653              1.793              1.868
 Vibration     8          0.682              1.705              1.515
 Vibration     9          0.689              1.685              1.452
 Vibration    10          0.727              1.575              1.165
 Vibration    11          0.751              1.509              1.032
 Vibration    12          0.770              1.460              0.946
 Vibration    13          0.851              1.260              0.669
 Vibration    14          0.891              1.171              0.575
 Vibration    15          0.939              1.070              0.482

 Optimization completed on the basis of negligible forces.
    -- Stationary point found.
 Normal termination of Gaussian 09 at Tue Jan 28 09:38:42 2020.
