 Gaussian 09, Revision D.01,
 Gaussian 09:  ES64L-G09RevD.01 24-Apr-2013

 -----------------------------
 # b3lyp 6-31G(2df,p) opt Freq
 -----------------------------

 -----
 titel
 -----
 Symbolic Z-matrix:
 Charge =  0 Multiplicity = 1

 SCF Done:  E(RB3LYP) =  -423.125852522     A.U. after   13 cycles
 Optimization completed.
    -- Stationary point found.
 Normal termination of Gaussian 09 at Tue Jan 28 02:53:49 2020.

 ----------------------------------------------------------------------
 #N Geom=AllCheck Guess=TCheck SCRF=Check GenChk RB3LYP/6-31G(2df,p) Fr
 eq
 ----------------------------------------------------------------------

 Structure from the checkpoint file:  "/scratch/puck/g09_bf184af6-90b6-4a71-ab72-ef44a751a7ed/Gau-90247.chk"
 -----
 titel
 -----
 Charge =  0 Multiplicity = 1

                         Standard orientation:
 ---------------------------------------------------------------------
 Center     Atomic      Atomic             Coordinates (Angstroms)
 Number     Number       Type             X           Y           Z
 ---------------------------------------------------------------------
      1          6           0        2.932171    0.027929   -0.346778
      2          6           0        1.578107    0.140074    0.338701
      3          6           0        0.810314   -1.210201    0.604554
      4          6           0       -0.425911   -0.552067    0.023948
      5          8           0       -1.545998   -1.146842   -0.605587
      6          6           0       -2.400203   -0.044428   -0.172524
      7          6           0       -1.259672    0.560464    0.681511
      8          8           0       -0.493492    1.615968    0.070043
      9          6           0        0.383656    0.639796   -0.544583
     10          1           0        3.655984   -0.489427    0.292092
     11          1           0        2.856572   -0.536318   -1.283299
     12          1           0        3.337846    1.017172   -0.584287
     13          1           0        1.650634    0.751736    1.241908
     14          1           0        1.184698   -2.008628   -0.045190
     15          1           0        0.756543   -1.586119    1.629505
     16          1           0       -2.721290    0.589163   -1.005580
     17          1           0       -3.269248   -0.418081    0.379372
     18          1           0       -1.436879    0.712249    1.748212
     19          1           0        0.590292    0.845844   -1.597349
 ---------------------------------------------------------------------

 SCF Done:  E(RB3LYP) =  -423.125852522     A.U. after    1 cycles

 The electronic state is 1-A.
 Alpha  occ. eigenvalues --  -19.14170 -19.13893 -10.23818 -10.23743 -10.23463
 Alpha  occ. eigenvalues --  -10.22841 -10.19608 -10.18878 -10.18164  -1.06834
 Alpha  occ. eigenvalues --   -1.01791  -0.83660  -0.73059  -0.72125  -0.65654
 Alpha  occ. eigenvalues --   -0.64581  -0.58119  -0.52270  -0.50940  -0.49575
 Alpha  occ. eigenvalues --   -0.47927  -0.44851  -0.42326  -0.40971  -0.40497
 Alpha  occ. eigenvalues --   -0.39434  -0.37023  -0.36014  -0.34659  -0.33893
 Alpha  occ. eigenvalues --   -0.30823  -0.28467  -0.25656  -0.22962
 Alpha virt. eigenvalues --    0.05263   0.09490   0.09731   0.11238   0.12419
 Alpha virt. eigenvalues --    0.13176   0.13927   0.15191   0.15924   0.16422
 Alpha virt. eigenvalues --    0.17028   0.17439   0.19001   0.19430   0.20891

 Mulliken charges:
               1
     1  C   -0.411855
     2  C    0.018509
     3  C   -0.365241
     4  C    0.433694
     5  O   -0.335251
     6  C   -0.115099
     7  C   -0.006772
     8  O   -0.307033
     9  C    0.020275
    10  H    0.119876
    11  H    0.117349
    12  H    0.122253
    13  H    0.088652
    14  H    0.115572
    15  H    0.104496
    16  H    0.117051
    17  H    0.110855
    18  H    0.089783
    19  H    0.082886
 Sum of Mulliken charges =   0.00000

 Dipole moment (field-independent basis, Debye):
    X=              0.6355    Y=             -0.2800    Z=              0.8749  Tot=              1.1170
 Quadrupole moment (field-independent basis, Debye-Ang):
   XX=            -49.0385   YY=            -59.0267   ZZ=            -51.5527
   XY=             -1.8672   XZ=             -2.1021   YZ=             -1.6120

  Exact polarizability:  93.114  -1.184  66.549  -2.122  -2.171  65.739
 Approx polarizability: 115.649  -0.506 105.396  -2.648  -0.599 100.604

                      1                      2                      3
                      A                      A                      A
 Frequencies --     96.7288               187.4012               228.1598
 Red. masses --      3.0020                 2.6873                 1.0983
 Frc consts  --      0.0165                 0.0556                 0.0337
 IR Inten    --      0.7790                 4.0841                 0.1311

                      4                      5                      6
                      A                      A                      A
 Frequencies --    263.9290               321.6470               346.2501
 Red. masses --      2.7368                 2.4285                 3.2873
 Frc consts  --      0.1123                 0.1480                 0.2322
 IR Inten    --      2.0685                 1.0329                 1.1619

                      7                      8                      9
                      A                      A                      A
 Frequencies --    400.1750               470.9022               507.5521
 Red. masses --      2.8444                 3.7063                 3.0224
 Frc consts  --      0.2684                 0.4842                 0.4587
 IR Inten    --      4.0581                 6.0395                 0.9726

                     10                     11                     12
                      A                      A                      A
 Frequencies --    676.3607               754.9503               822.1637
 Red. masses --      2.7972                 4.6459                 2.5488
 Frc consts  --      0.7539                 1.5601                 1.0151
 IR Inten    --      4.2252                 3.3976                 8.5096

                     13                     14                     15
                      A                      A                      A
 Frequencies --    832.4637               850.9015               861.3177
 Red. masses --      2.1576                 2.3532                 2.4761
 Frc consts  --      0.8809                 1.0038                 1.0823
 IR Inten    --      5.7063                18.7239                 5.2744

                     16                     17                     18
                      A                      A                      A
 Frequencies --    918.4515               946.2322               969.9179
 Red. masses --      1.6437                 1.5077                 5.5241
 Frc consts  --      0.8170                 0.7954                 3.0618
 IR Inten    --      2.8755                 1.7340                38.0034

                     19                     20                     21
                      A                      A                      A
 Frequencies --    987.5563              1013.9318              1050.9181
 Red. masses --      3.3135                 4.2032                 2.5492
 Frc consts  --      1.9040                 2.5459                 1.6588
 IR Inten    --     58.0141                41.5692                42.4245

                     22                     23                     24
                      A                      A                      A
 Frequencies --   1069.4191              1094.2689              1117.9267
 Red. masses --      2.2707                 2.2849                 2.2472
 Frc consts  --      1.5301                 1.6120                 1.6547
 IR Inten    --      5.7898                 1.3472                 9.6486

                     25                     26                     27
                      A                      A                      A
 Frequencies --   1138.1320              1157.0126              1168.8719
 Red. masses --      1.6974                 1.6350                 1.5220
 Frc consts  --      1.2954                 1.2896                 1.2252
 IR Inten    --      9.8652                 5.3938                 9.1460

                     28                     29                     30
                      A                      A                      A
 Frequencies --   1188.9889              1194.0068              1239.2035
 Red. masses --      1.5552                 1.5729                 1.4427
 Frc consts  --      1.2954                 1.3212                 1.3053
 IR Inten    --     15.0762                12.0555                 1.3323

                     31                     32                     33
                      A                      A                      A
 Frequencies --   1268.4941              1290.1130              1308.1823
 Red. masses --      1.5173                 1.4572                 2.1914
 Frc consts  --      1.4384                 1.4290                 2.2096
 IR Inten    --      9.4426                43.0989                19.4898

                     34                     35                     36
                      A                      A                      A
 Frequencies --   1335.5357              1358.4220              1368.3520
 Red. masses --      1.7217                 1.7824                 1.6392
 Frc consts  --      1.8094                 1.9379                 1.8083
 IR Inten    --     31.1307                 3.7705                 0.4386

                     37                     38                     39
                      A                      A                      A
 Frequencies --   1410.1434              1483.7898              1495.1457
 Red. masses --      1.2408                 1.1219                 1.0464
 Frc consts  --      1.4537                 1.4553                 1.3781
 IR Inten    --      1.4148                 4.3326                 5.5600

                     40                     41                     42
                      A                      A                      A
 Frequencies --   1497.7604              1502.6325              3025.8448
 Red. masses --      1.0475                 1.1238                 1.0351
 Frc consts  --      1.3845                 1.4950                 5.5839
 IR Inten    --      2.1902                 1.6552                26.5808

                     43                     44                     45
                      A                      A                      A
 Frequencies --   3034.6110              3048.3589              3070.7262
 Red. masses --      1.0553                 1.0590                 1.0876
 Frc consts  --      5.7260                 5.7980                 6.0420
 IR Inten    --     56.6789                25.5027                 2.0386

                     46                     47                     48
                      A                      A                      A
 Frequencies --   3086.0976              3090.1609              3095.0414
 Red. masses --      1.0931                 1.0959                 1.0996
 Frc consts  --      6.1335                 6.1660                 6.2061
 IR Inten    --     29.6225                16.3576                22.1607

                     49                     50                     51
                      A                      A                      A
 Frequencies --   3098.0225              3098.3542              3105.8782
 Red. masses --      1.1030                 1.1019                 1.1036
 Frc consts  --      6.2372                 6.2326                 6.2725
 IR Inten    --     21.2110                49.0901                43.5932

 - Thermochemistry -
 -------------------
 Temperature   298.150 Kelvin.  Pressure   1.00000 Atm.
 Atom     1 has atomic number  6 and mass  12.00000

 Molecular mass:   126.06808 amu.
 Principal axes and moments of inertia in atomic units:
                           1         2         3
     Eigenvalues --   497.040531317.363571559.72303
           X            0.99985  -0.01379  -0.01041
           Y            0.01341   0.99928  -0.03562
           Z            0.01089   0.03548   0.99931
 This molecule is an asymmetric top.
 Rotational symmetry number  1.
 Warning -- assumption of classical behavior for rotation
           may cause significant error
 Rotational temperatures (Kelvin)      0.17426     0.06575     0.05553
 Rotational constants (GHZ):           3.63097     1.36996     1.15709
 Zero-point vibrational energy     418378.4 (Joules/Mol)
                                   99.99484 (Kcal/Mol)
 Warning -- explicit consideration of   9 degrees of freedom as
           vibrations may cause significant error
 Vibrational temperatures:    139.17   269.63   328.27   379.73   462.78
          (Kelvin)            498.18   575.76   677.52   730.25   973.13
                             1086.20  1182.91  1197.73  1224.26  1239.24
                             1321.45  1361.42  1395.49  1420.87  1458.82
                             1512.03  1538.65  1574.41  1608.45  1637.52
                             1664.68  1681.74  1710.69  1717.91  1782.94
                             1825.08  1856.18  1882.18  1921.54  1954.46
                             1968.75  2028.88  2134.84  2151.18  2154.94
                             2161.95  4353.51  4366.12  4385.90  4418.08
                             4440.20  4446.05  4453.07  4457.36  4457.84
                             4468.66

 Zero-point correction=                           0.159352 (Hartree/Particle)
 Thermal correction to Energy=                    0.167025
 Thermal correction to Enthalpy=                  0.167970
 Thermal correction to Gibbs Free Energy=         0.127332
 Sum of electronic and zero-point Energies=           -422.966501
 Sum of electronic and thermal Energies=              -422.958827
 Sum of electronic and thermal Enthalpies=            -422.957883
 Sum of electronic and thermal Free Energies=         -422.998520

                     E (Thermal)             CV                S
                      KCal/Mol        Cal/Mol-Kelvin    Cal/Mol-Kelvin
 Total                  104.810             30.296             85.528
 Electronic               0.000              0.000              0.000
 Translational            0.889              2.981             40.409
 Rotational               0.889              2.981             28.415
 Vibrational            103.033             24.335             16.705
 Vibration     1          0.603              1.952              3.519
 Vibration     2          0.632              1.857              2.253
 Vibration     3          0.651              1.798              1.893
 Vibration     4          0.670              1.739              1.636
 Vibration     5          0.707              1.632              1.302
 Vibration     6          0.724              1.583              1.183
 Vibration     7          0.766              1.470              0.962
 Vibration     8          0.828              1.315              0.735
 Vibration     9          0.863              1.233              0.640

 Optimization completed.
    -- Stationary point found.
 Normal termination of Gaussian 09 at Tue Jan 28 03:36:04 2020.
