 Gaussian 09, Revision D.01,
 Gaussian 09:  ES64L-G09RevD.01 24-Apr-2013

 -----------------------------
 # b3lyp 6-31G(2df,p) opt Freq
 -----------------------------

 -----
 titel
 -----
 Symbolic Z-matrix:
 Charge =  0 Multiplicity = 1

 SCF Done:  E(RB3LYP) =  -423.123947437     A.U. after   12 cycles
 SCF Done:  E(RB3LYP) =  -423.123947826     A.U. after    6 cycles
 SCF Done:  E(RB3LYP) =  -423.123947899     A.U. after    6 cycles
 Optimization completed.
    -- Stationary point found.
 Normal termination of Gaussian 09 at Mon Jan 27 22:13:44 2020.

 ----------------------------------------------------------------------
 #N Geom=AllCheck Guess=TCheck SCRF=Check GenChk RB3LYP/6-31G(2df,p) Fr
 eq
 ----------------------------------------------------------------------

 Structure from the checkpoint file:  "/scratch/puck/g09_c53d273b-df4b-4cc9-a1b5-c48e5c52f2d6/Gau-62978.chk"
 -----
 titel
 -----
 Charge =  0 Multiplicity = 1

                         Standard orientation:
 ---------------------------------------------------------------------
 Center     Atomic      Atomic             Coordinates (Angstroms)
 Number     Number       Type             X           Y           Z
 ---------------------------------------------------------------------
      1          6           0        2.322820   -1.080363    0.036308
      2          6           0        0.815718   -0.983141    0.025201
      3          6           0        0.058087    0.113671    0.737530
      4          6           0       -1.373304   -0.019610    1.194101
      5          6           0       -2.077162   -0.568315   -0.090749
      6          8           0       -1.258447   -0.218415   -1.228059
      7          6           0        0.022987    0.048372   -0.757443
      8          6           0        0.642742    1.445229   -0.705192
      9          8           0        0.771068    1.368739    0.746730
     10          1           0        2.693813   -1.539363   -0.885457
     11          1           0        2.777449   -0.092994    0.143562
     12          1           0        2.661216   -1.691551    0.879575
     13          1           0        0.295296   -1.937367    0.057658
     14          1           0       -1.541508   -0.678712    2.050277
     15          1           0       -1.743136    0.977161    1.450145
     16          1           0       -2.177695   -1.660374   -0.037908
     17          1           0       -3.074177   -0.146661   -0.248329
     18          1           0        1.607360    1.610832   -1.196927
     19          1           0       -0.070929    2.221380   -1.000502
 ---------------------------------------------------------------------

 SCF Done:  E(RB3LYP) =  -423.123947899     A.U. after    1 cycles

 The electronic state is 1-A.
 Alpha  occ. eigenvalues --  -19.14923 -19.14256 -10.23816 -10.23798 -10.23070
 Alpha  occ. eigenvalues --  -10.22828 -10.20571 -10.19912 -10.17949  -1.06711
 Alpha  occ. eigenvalues --   -1.02680  -0.83749  -0.77096  -0.72086  -0.68306
 Alpha  occ. eigenvalues --   -0.64269  -0.56905  -0.52568  -0.50472  -0.48781
 Alpha  occ. eigenvalues --   -0.47540  -0.44516  -0.43110  -0.41968  -0.40834
 Alpha  occ. eigenvalues --   -0.39603  -0.38558  -0.36284  -0.35614  -0.33696
 Alpha  occ. eigenvalues --   -0.32190  -0.28255  -0.24353  -0.22187
 Alpha virt. eigenvalues --    0.05403   0.08154   0.09372   0.11333   0.13051
 Alpha virt. eigenvalues --    0.13577   0.14420   0.15288   0.15936   0.17179
 Alpha virt. eigenvalues --    0.17711   0.18511   0.19116   0.19637   0.21344

 Mulliken charges:
               1
     1  C   -0.424830
     2  C   -0.123673
     3  C    0.312718
     4  C   -0.325859
     5  C   -0.097288
     6  O   -0.292751
     7  C    0.255452
     8  C   -0.152385
     9  O   -0.324396
    10  H    0.121201
    11  H    0.138938
    12  H    0.121547
    13  H    0.099268
    14  H    0.113551
    15  H    0.127964
    16  H    0.107969
    17  H    0.116679
    18  H    0.109017
    19  H    0.116878
 Sum of Mulliken charges =   0.00000

 Dipole moment (field-independent basis, Debye):
    X=             -0.6463    Y=             -0.9241    Z=              0.3605  Tot=              1.1839
 Quadrupole moment (field-independent basis, Debye-Ang):
   XX=            -50.4331   YY=            -52.0932   ZZ=            -56.3262
   XY=             -0.9768   XZ=             -4.3745   YZ=             -3.5105

  Exact polarizability:  84.674  -1.085  72.766  -3.831  -3.837  64.664
 Approx polarizability: 110.378   0.204 107.346  -1.972  -3.216 107.416

                      1                      2                      3
                      A                      A                      A
 Frequencies --    143.5231               182.0337               227.6629
 Red. masses --      2.1119                 1.1030                 2.4539
 Frc consts  --      0.0256                 0.0215                 0.0749
 IR Inten    --      1.6893                 0.3109                 1.5595

                      4                      5                      6
                      A                      A                      A
 Frequencies --    234.7800               240.5784               358.3996
 Red. masses --      2.9190                 2.4353                 4.3677
 Frc consts  --      0.0948                 0.0830                 0.3306
 IR Inten    --      0.6901                 3.8768                 8.9200

                      7                      8                      9
                      A                      A                      A
 Frequencies --    379.3481               483.2163               564.9994
 Red. masses --      2.9140                 3.8889                 4.1847
 Frc consts  --      0.2471                 0.5350                 0.7871
 IR Inten    --      6.6923                 1.5844                20.3210

                     10                     11                     12
                      A                      A                      A
 Frequencies --    653.5572               690.3104               735.8126
 Red. masses --      3.1491                 4.2969                 2.7682
 Frc consts  --      0.7925                 1.2064                 0.8830
 IR Inten    --      1.6720                 2.1889                 0.8852

                     13                     14                     15
                      A                      A                      A
 Frequencies --    772.1817               846.9979               856.0735
 Red. masses --      3.5712                 1.8051                 4.7378
 Frc consts  --      1.2546                 0.7630                 2.0457
 IR Inten    --      2.8832                10.2100                19.2580

                     16                     17                     18
                      A                      A                      A
 Frequencies --    916.7437               935.1328               965.7828
 Red. masses --      2.8013                 2.1701                 2.0116
 Frc consts  --      1.3871                 1.1181                 1.1055
 IR Inten    --      0.8311                13.2844                15.1801

                     19                     20                     21
                      A                      A                      A
 Frequencies --    984.7747              1008.6690              1014.5305
 Red. masses --      4.2567                 2.3205                 2.4417
 Frc consts  --      2.4322                 1.3910                 1.4807
 IR Inten    --     28.5283                11.7329                59.9715

                     22                     23                     24
                      A                      A                      A
 Frequencies --   1047.6000              1106.3638              1121.6771
 Red. masses --      1.6877                 1.6525                 3.1905
 Frc consts  --      1.0913                 1.1918                 2.3651
 IR Inten    --      1.9823                 4.1277                 7.4091

                     25                     26                     27
                      A                      A                      A
 Frequencies --   1148.7522              1158.4254              1196.7486
 Red. masses --      1.3028                 1.9373                 2.1925
 Frc consts  --      1.0130                 1.5317                 1.8501
 IR Inten    --      1.9012                10.1717                 2.0431

                     28                     29                     30
                      A                      A                      A
 Frequencies --   1213.8997              1225.9071              1258.4373
 Red. masses --      1.4537                 1.2057                 2.1878
 Frc consts  --      1.2621                 1.0676                 2.0413
 IR Inten    --      5.8046                 3.7858                62.5514

                     31                     32                     33
                      A                      A                      A
 Frequencies --   1285.6377              1311.0403              1334.5425
 Red. masses --      1.4759                 2.0021                 1.4700
 Frc consts  --      1.4373                 2.0276                 1.5425
 IR Inten    --      2.2864                15.5311                 2.9989

                     34                     35                     36
                      A                      A                      A
 Frequencies --   1387.1085              1411.1775              1453.8087
 Red. masses --      1.5074                 1.2402                 2.5138
 Frc consts  --      1.7088                 1.4551                 3.1303
 IR Inten    --      3.7614                 2.1230                13.6542

                     37                     38                     39
                      A                      A                      A
 Frequencies --   1487.4858              1490.8330              1503.2225
 Red. masses --      1.0954                 1.0709                 1.1268
 Frc consts  --      1.4279                 1.4023                 1.5001
 IR Inten    --      2.0103                 2.0290                 1.8222

                     40                     41                     42
                      A                      A                      A
 Frequencies --   1514.4115              1522.6116              3015.9997
 Red. masses --      1.0979                 1.0938                 1.0676
 Frc consts  --      1.4835                 1.4941                 5.7216
 IR Inten    --      2.8071                 0.7353                50.8691

                     43                     44                     45
                      A                      A                      A
 Frequencies --   3032.6593              3039.4311              3060.7267
 Red. masses --      1.0540                 1.0371                 1.0598
 Frc consts  --      5.7115                 5.6451                 5.8496
 IR Inten    --     64.4991                35.3898                22.2098

                     46                     47                     48
                      A                      A                      A
 Frequencies --   3082.5126              3088.6050              3099.3935
 Red. masses --      1.0971                 1.1119                 1.1012
 Frc consts  --      6.1418                 6.2495                 6.2328
 IR Inten    --     33.5188                28.6212                20.1819

                     49                     50                     51
                      A                      A                      A
 Frequencies --   3110.3837              3125.1749              3149.6302
 Red. masses --      1.1060                 1.0976                 1.0884
 Frc consts  --      6.3044                 6.3162                 6.3614
 IR Inten    --     20.3017                 5.7829                13.4794

 - Thermochemistry -
 -------------------
 Temperature   298.150 Kelvin.  Pressure   1.00000 Atm.
 Atom     1 has atomic number  6 and mass  12.00000

 Molecular mass:   126.06808 amu.
 Principal axes and moments of inertia in atomic units:
                           1         2         3
     Eigenvalues --   664.247371111.482811209.90015
           X            0.99866  -0.03624  -0.03691
           Y            0.03029   0.98811  -0.15075
           Z            0.04194   0.14943   0.98788
 This molecule is an asymmetric top.
 Rotational symmetry number  1.
 Warning -- assumption of classical behavior for rotation
           may cause significant error
 Rotational temperatures (Kelvin)      0.13039     0.07793     0.07159
 Rotational constants (GHZ):           2.71697     1.62372     1.49164
 Zero-point vibrational energy     419765.5 (Joules/Mol)
                                  100.32637 (Kcal/Mol)
 Warning -- explicit consideration of   9 degrees of freedom as
           vibrations may cause significant error
 Vibrational temperatures:    206.50   261.91   327.56   337.80   346.14
          (Kelvin)            515.66   545.80   695.24   812.91   940.32
                              993.20  1058.67  1111.00  1218.64  1231.70
                             1318.99  1345.45  1389.54  1416.87  1451.25
                             1459.68  1507.26  1591.81  1613.84  1652.80
                             1666.71  1721.85  1746.53  1763.80  1810.61
                             1849.74  1886.29  1920.11  1995.74  2030.37
                             2091.70  2140.16  2144.97  2162.80  2178.90
                             2190.70  4339.35  4363.31  4373.06  4403.70
                             4435.04  4443.81  4459.33  4475.14  4496.42
                             4531.61

 Zero-point correction=                           0.159880 (Hartree/Particle)
 Thermal correction to Energy=                    0.167654
 Thermal correction to Enthalpy=                  0.168598
 Thermal correction to Gibbs Free Energy=         0.127989
 Sum of electronic and zero-point Energies=           -422.964068
 Sum of electronic and thermal Energies=              -422.956294
 Sum of electronic and thermal Enthalpies=            -422.955350
 Sum of electronic and thermal Free Energies=         -422.995959

                     E (Thermal)             CV                S
                      KCal/Mol        Cal/Mol-Kelvin    Cal/Mol-Kelvin
 Total                  105.204             30.608             85.468
 Electronic               0.000              0.000              0.000
 Translational            0.889              2.981             40.409
 Rotational               0.889              2.981             28.281
 Vibrational            103.427             24.646             16.778
 Vibration     1          0.616              1.910              2.756
 Vibration     2          0.630              1.864              2.307
 Vibration     3          0.651              1.799              1.897
 Vibration     4          0.655              1.788              1.842
 Vibration     5          0.658              1.778              1.799
 Vibration     6          0.733              1.558              1.129
 Vibration     7          0.749              1.514              1.042
 Vibration     8          0.839              1.287              0.701
 Vibration     9          0.921              1.107              0.514

 Normal termination of Gaussian 09 at Mon Jan 27 22:58:43 2020.
