 Gaussian 09, Revision D.01,
 Gaussian 09:  ES64L-G09RevD.01 24-Apr-2013

 -----------------------------
 # b3lyp 6-31G(2df,p) opt Freq
 -----------------------------

 -----
 titel
 -----
 Symbolic Z-matrix:
 Charge =  0 Multiplicity = 1

 SCF Done:  E(RB3LYP) =  -423.211973363     A.U. after   14 cycles
 SCF Done:  E(RB3LYP) =  -423.211973288     A.U. after    8 cycles
 SCF Done:  E(RB3LYP) =  -423.211973216     A.U. after    8 cycles
 Optimization completed.
    -- Stationary point found.
 Normal termination of Gaussian 09 at Tue Jan 28 04:07:26 2020.

 ----------------------------------------------------------------------
 #N Geom=AllCheck Guess=TCheck SCRF=Check GenChk RB3LYP/6-31G(2df,p) Fr
 eq
 ----------------------------------------------------------------------

 Structure from the checkpoint file:  "/scratch/puck/g09_0833b5a1-8b5e-48b3-b8e7-4d27a3df4330/Gau-62871.chk"
 -----
 titel
 -----
 Charge =  0 Multiplicity = 1

                         Standard orientation:
 ---------------------------------------------------------------------
 Center     Atomic      Atomic             Coordinates (Angstroms)
 Number     Number       Type             X           Y           Z
 ---------------------------------------------------------------------
      1          8           0        0.303051   -1.615544   -0.812277
      2          6           0        0.929997   -1.096729    0.350867
      3          6           0        2.025990   -0.131483   -0.116137
      4          6           0        1.481028    1.210876   -0.524256
      5          6           0        0.267017    1.653367   -0.201984
      6          6           0       -0.709723    0.844390    0.628893
      7          6           0       -0.058116   -0.383042    1.283650
      8          6           0       -1.926302    0.513576   -0.221041
      9          8           0       -2.342537   -0.596142   -0.452601
     10          1           0       -0.641492   -1.715795   -0.638351
     11          1           0        1.400144   -1.918827    0.913407
     12          1           0        2.777110   -0.000767    0.676304
     13          1           0        2.551496   -0.593315   -0.959450
     14          1           0        2.138806    1.852730   -1.105810
     15          1           0       -0.067269    2.632522   -0.535347
     16          1           0       -1.106117    1.509612    1.414440
     17          1           0        0.483718   -0.059298    2.179067
     18          1           0       -0.833255   -1.083496    1.611848
     19          1           0       -2.446607    1.404400   -0.637036
 ---------------------------------------------------------------------

 SCF Done:  E(RB3LYP) =  -423.211973216     A.U. after    1 cycles

 The electronic state is 1-A.
 Alpha  occ. eigenvalues --  -19.15488 -19.11621 -10.28315 -10.22843 -10.21018
 Alpha  occ. eigenvalues --  -10.19190 -10.19011 -10.18921 -10.18346  -1.06101
 Alpha  occ. eigenvalues --   -1.00247  -0.83893  -0.76480  -0.74139  -0.66461
 Alpha  occ. eigenvalues --   -0.60806  -0.57557  -0.52233  -0.50782  -0.49553
 Alpha  occ. eigenvalues --   -0.47301  -0.45491  -0.42784  -0.41592  -0.41211
 Alpha  occ. eigenvalues --   -0.39479  -0.39194  -0.37405  -0.34784  -0.32961
 Alpha  occ. eigenvalues --   -0.30397  -0.28087  -0.25487  -0.24266
 Alpha virt. eigenvalues --   -0.03387   0.02222   0.07870   0.11065   0.11818
 Alpha virt. eigenvalues --    0.13508   0.14815   0.15199   0.15949   0.16593
 Alpha virt. eigenvalues --    0.17883   0.18437   0.20436   0.21941   0.22758

 Mulliken charges:
               1
     1  O   -0.451738
     2  C    0.137779
     3  C   -0.256712
     4  C   -0.030754
     5  C   -0.079434
     6  C   -0.114991
     7  C   -0.287497
     8  C    0.164774
     9  O   -0.257717
    10  H    0.295206
    11  H    0.060881
    12  H    0.103362
    13  H    0.121487
    14  H    0.092848
    15  H    0.091257
    16  H    0.101058
    17  H    0.105091
    18  H    0.112930
    19  H    0.092169
 Sum of Mulliken charges =   0.00000

 Dipole moment (field-independent basis, Debye):
    X=              0.5355    Y=              2.4300    Z=              1.8662  Tot=              3.1103
 Quadrupole moment (field-independent basis, Debye-Ang):
   XX=            -53.2787   YY=            -53.4061   ZZ=            -53.8113
   XY=             -2.8021   XZ=             -1.1207   YZ=             -3.0667

  Exact polarizability:  90.451  -3.785  77.418  -1.611  -3.130  62.775
 Approx polarizability: 134.050  -3.810 116.915  -3.409   1.623  96.640

                      1                      2                      3
                      A                      A                      A
 Frequencies --     76.6021               129.4323               179.2607
 Red. masses --      5.3471                 2.6770                 6.6792
 Frc consts  --      0.0185                 0.0264                 0.1265
 IR Inten    --     13.9501                 1.8949                 1.7537

                      4                      5                      6
                      A                      A                      A
 Frequencies --    248.6374               260.2175               357.1079
 Red. masses --      5.2055                 2.5798                 2.3649
 Frc consts  --      0.1896                 0.1029                 0.1777
 IR Inten    --     16.2531                 5.0412                21.7255

                      7                      8                      9
                      A                      A                      A
 Frequencies --    386.0175               448.1779               464.0058
 Red. masses --      2.0767                 2.1525                 1.2722
 Frc consts  --      0.1823                 0.2547                 0.1614
 IR Inten    --      6.6543                24.7682                81.9869

                     10                     11                     12
                      A                      A                      A
 Frequencies --    542.5393               587.4993               662.3384
 Red. masses --      3.9718                 5.5381                 2.3367
 Frc consts  --      0.6888                 1.1262                 0.6040
 IR Inten    --      0.9027                 0.1239                 3.7905

                     13                     14                     15
                      A                      A                      A
 Frequencies --    722.6447               754.2346               822.6200
 Red. masses --      1.4746                 3.7192                 2.8536
 Frc consts  --      0.4537                 1.2466                 1.1377
 IR Inten    --     41.1177                 2.4073                 9.3333

                     16                     17                     18
                      A                      A                      A
 Frequencies --    870.2364               922.0386               928.9464
 Red. masses --      2.5123                 2.3670                 2.4394
 Frc consts  --      1.1210                 1.1856                 1.2402
 IR Inten    --      1.4021                 4.4336                41.9177

                     19                     20                     21
                      A                      A                      A
 Frequencies --    960.0130              1002.0163              1008.3115
 Red. masses --      2.3968                 1.4192                 1.9822
 Frc consts  --      1.3015                 0.8395                 1.1873
 IR Inten    --     14.7097                 5.7473                14.3193

                     22                     23                     24
                      A                      A                      A
 Frequencies --   1022.0097              1069.5053              1100.0459
 Red. masses --      2.1964                 1.7172                 2.0993
 Frc consts  --      1.3517                 1.1573                 1.4967
 IR Inten    --      2.1545                 2.8141                21.4596

                     25                     26                     27
                      A                      A                      A
 Frequencies --   1123.7103              1161.5858              1212.5160
 Red. masses --      1.8611                 1.0893                 1.0936
 Frc consts  --      1.3846                 0.8660                 0.9473
 IR Inten    --     16.4563                 2.3002                 0.1175

                     28                     29                     30
                      A                      A                      A
 Frequencies --   1252.5072              1271.1320              1290.9843
 Red. masses --      1.2219                 1.4031                 1.3926
 Frc consts  --      1.1294                 1.3357                 1.3675
 IR Inten    --     16.9026                 6.8608                 0.2003

                     31                     32                     33
                      A                      A                      A
 Frequencies --   1335.1260              1360.9385              1383.8499
 Red. masses --      1.7377                 1.3279                 1.4704
 Frc consts  --      1.8251                 1.4490                 1.6591
 IR Inten    --     29.9513                 5.3755                 4.8708

                     34                     35                     36
                      A                      A                      A
 Frequencies --   1388.1983              1403.7119              1426.3063
 Red. masses --      1.3693                 1.5024                 1.2383
 Frc consts  --      1.5547                 1.7441                 1.4843
 IR Inten    --      2.7054                19.2240                 6.1666

                     37                     38                     39
                      A                      A                      A
 Frequencies --   1452.9303              1457.5416              1479.1514
 Red. masses --      1.4561                 1.1061                 1.0978
 Frc consts  --      1.8110                 1.3844                 1.4152
 IR Inten    --     21.6541                 6.8454                 4.2040

                     40                     41                     42
                      A                      A                      A
 Frequencies --   1721.3026              1810.3814              2891.9546
 Red. masses --      6.6324                10.1810                 1.0834
 Frc consts  --     11.5781                19.6599                 5.3387
 IR Inten    --      4.3164               147.9510               113.1243

                     43                     44                     45
                      A                      A                      A
 Frequencies --   2966.1014              2967.3614              3009.7798
 Red. masses --      1.0830                 1.0807                 1.0692
 Frc consts  --      5.6136                 5.6066                 5.7068
 IR Inten    --     60.3897                26.4689                37.5903

                     46                     47                     48
                      A                      A                      A
 Frequencies --   3045.3636              3065.4628              3085.4114
 Red. masses --      1.0608                 1.0916                 1.1034
 Frc consts  --      5.7966                 6.0438                 6.1888
 IR Inten    --     31.2433                13.3329                16.5679

                     49                     50                     51
                      A                      A                      A
 Frequencies --   3144.0718              3167.5248              3759.9120
 Red. masses --      1.0830                 1.0968                 1.0667
 Frc consts  --      6.3078                 6.4833                 8.8847
 IR Inten    --      4.4775                32.1780                98.5719

 - Thermochemistry -
 -------------------
 Temperature   298.150 Kelvin.  Pressure   1.00000 Atm.
 Atom     1 has atomic number  8 and mass  15.99491

 Molecular mass:   126.06808 amu.
 Principal axes and moments of inertia in atomic units:
                           1         2         3
     Eigenvalues --   739.323491122.317721446.72578
           X            0.99944  -0.03272  -0.00625
           Y            0.03241   0.99847  -0.04483
           Z            0.00771   0.04460   0.99898
 This molecule is an asymmetric top.
 Rotational symmetry number  1.
 Warning -- assumption of classical behavior for rotation
           may cause significant error
 Rotational temperatures (Kelvin)      0.11715     0.07717     0.05987
 Rotational constants (GHZ):           2.44107     1.60805     1.24747
 Zero-point vibrational energy     419645.7 (Joules/Mol)
                                  100.29772 (Kcal/Mol)
 Warning -- explicit consideration of  11 degrees of freedom as
           vibrations may cause significant error
 Vibrational temperatures:    110.21   186.22   257.92   357.73   374.39
          (Kelvin)            513.80   555.39   644.83   667.60   780.59
                              845.28   952.96  1039.72  1085.17  1183.57
                             1252.07  1326.61  1336.54  1381.24  1441.68
                             1450.73  1470.44  1538.78  1582.72  1616.77
                             1671.26  1744.54  1802.08  1828.87  1857.44
                             1920.95  1958.08  1991.05  1997.31  2019.63
                             2052.13  2090.44  2097.07  2128.17  2476.57
                             2604.73  4160.87  4267.55  4269.37  4330.40
                             4381.59  4410.51  4439.21  4523.61  4557.36
                             5409.67

 Zero-point correction=                           0.159835 (Hartree/Particle)
 Thermal correction to Energy=                    0.168160
 Thermal correction to Enthalpy=                  0.169104
 Thermal correction to Gibbs Free Energy=         0.126920
 Sum of electronic and zero-point Energies=           -423.052139
 Sum of electronic and thermal Energies=              -423.043813
 Sum of electronic and thermal Enthalpies=            -423.042869
 Sum of electronic and thermal Free Energies=         -423.085053

                     E (Thermal)             CV                S
                      KCal/Mol        Cal/Mol-Kelvin    Cal/Mol-Kelvin
 Total                  105.522             31.981             88.784
 Electronic               0.000              0.000              0.000
 Translational            0.889              2.981             40.409
 Rotational               0.889              2.981             28.575
 Vibrational            103.745             26.019             19.800
 Vibration     1          0.599              1.965              3.976
 Vibration     2          0.612              1.924              2.954
 Vibration     3          0.629              1.868              2.336
 Vibration     4          0.662              1.765              1.740
 Vibration     5          0.668              1.745              1.660
 Vibration     6          0.732              1.561              1.135
 Vibration     7          0.755              1.500              1.015
 Vibration     8          0.807              1.365              0.801
 Vibration     9          0.822              1.330              0.755
 Vibration    10          0.898              1.156              0.560
 Vibration    11          0.945              1.058              0.472

 Optimization completed.
    -- Stationary point found.
 Normal termination of Gaussian 09 at Tue Jan 28 04:54:40 2020.
