 Gaussian 09, Revision D.01,
 Gaussian 09:  ES64L-G09RevD.01 24-Apr-2013

 -----------------------------
 # b3lyp 6-31G(2df,p) opt Freq
 -----------------------------

 -----
 titel
 -----
 Symbolic Z-matrix:
 Charge =  0 Multiplicity = 1

 SCF Done:  E(RB3LYP) =  -423.172478314     A.U. after   14 cycles
 Optimization completed.
    -- Stationary point found.
 Normal termination of Gaussian 09 at Tue Jan 28 00:06:23 2020.

 ----------------------------------------------------------------------
 #N Geom=AllCheck Guess=TCheck SCRF=Check GenChk RB3LYP/6-31G(2df,p) Fr
 eq
 ----------------------------------------------------------------------

 Structure from the checkpoint file:  "/scratch/puck/g09_d1ed95fa-bb2a-48e2-b3ca-a89a16522fa3/Gau-21206.chk"
 -----
 titel
 -----
 Charge =  0 Multiplicity = 1

                         Standard orientation:
 ---------------------------------------------------------------------
 Center     Atomic      Atomic             Coordinates (Angstroms)
 Number     Number       Type             X           Y           Z
 ---------------------------------------------------------------------
      1          6           0        2.682835    0.132501    0.155163
      2          6           0        1.177897    0.059355    0.084904
      3          6           0        0.380355   -0.938482    0.971320
      4          6           0       -0.464295   -1.063063   -0.312532
      5          8           0        0.692337   -0.669375   -1.098974
      6          6           0       -1.518911    0.053785   -0.438047
      7          8           0       -2.647049   -0.174377    0.401307
      8          6           0       -0.848823    1.383814   -0.155245
      9          6           0        0.455201    1.397756    0.119998
     10          1           0        3.077207    0.729556   -0.673882
     11          1           0        2.999155    0.601257    1.093265
     12          1           0        3.118782   -0.867949    0.098130
     13          1           0        0.943140   -1.853851    1.165643
     14          1           0       -0.073025   -0.564132    1.891830
     15          1           0       -0.863782   -2.039607   -0.595668
     16          1           0       -1.920317    0.040815   -1.458433
     17          1           0       -2.365317   -0.031545    1.311640
     18          1           0       -1.466183    2.277311   -0.165448
     19          1           0        1.002475    2.304170    0.360893
 ---------------------------------------------------------------------

 SCF Done:  E(RB3LYP) =  -423.172478314     A.U. after    1 cycles

 The electronic state is 1-A.
 Alpha  occ. eigenvalues --  -19.14001 -19.12880 -10.24586 -10.23367 -10.23216
 Alpha  occ. eigenvalues --  -10.18973 -10.18789 -10.18579 -10.18145  -1.04191
 Alpha  occ. eigenvalues --   -1.01810  -0.80406  -0.76345  -0.73417  -0.68762
 Alpha  occ. eigenvalues --   -0.60164  -0.59571  -0.53914  -0.49790  -0.47548
 Alpha  occ. eigenvalues --   -0.46507  -0.44514  -0.43237  -0.42663  -0.41726
 Alpha  occ. eigenvalues --   -0.38905  -0.37311  -0.35963  -0.34475  -0.32106
 Alpha  occ. eigenvalues --   -0.30662  -0.28709  -0.26046  -0.23052
 Alpha virt. eigenvalues --   -0.00411   0.07690   0.09416   0.11030   0.11220
 Alpha virt. eigenvalues --    0.13304   0.14997   0.15226   0.15883   0.16989
 Alpha virt. eigenvalues --    0.18203   0.19046   0.19214   0.20711   0.22641

 Mulliken charges:
               1
     1  C   -0.491171
     2  C    0.384383
     3  C   -0.289331
     4  C    0.049471
     5  O   -0.323611
     6  C    0.089463
     7  O   -0.435516
     8  C   -0.130614
     9  C   -0.085941
    10  H    0.131798
    11  H    0.120349
    12  H    0.125432
    13  H    0.107247
    14  H    0.087408
    15  H    0.080866
    16  H    0.102895
    17  H    0.280239
    18  H    0.101875
    19  H    0.094756
 Sum of Mulliken charges =   0.00000

 Dipole moment (field-independent basis, Debye):
    X=              1.0762    Y=              0.6947    Z=              1.9884  Tot=              2.3652
 Quadrupole moment (field-independent basis, Debye-Ang):
   XX=            -56.4778   YY=            -51.1524   ZZ=            -53.0276
   XY=              0.0357   XZ=              1.0983   YZ=             -0.5970

  Exact polarizability:  91.476   1.396  73.124   3.807  -0.067  61.793
 Approx polarizability: 132.898   3.788 104.406   5.018   1.951  99.786

                      1                      2                      3
                      A                      A                      A
 Frequencies --    132.7465               208.0992               228.8129
 Red. masses --      3.9652                 1.0528                 2.5251
 Frc consts  --      0.0412                 0.0269                 0.0779
 IR Inten    --      1.2200                 0.2420                 2.1084

                      4                      5                      6
                      A                      A                      A
 Frequencies --    286.5975               300.8194               329.9383
 Red. masses --      2.3400                 1.4690                 2.3814
 Frc consts  --      0.1132                 0.0783                 0.1527
 IR Inten    --      6.2519                36.4047                46.6396

                      7                      8                      9
                      A                      A                      A
 Frequencies --    402.6304               445.7289               470.4417
 Red. masses --      2.2328                 3.8732                 3.8524
 Frc consts  --      0.2133                 0.4534                 0.5023
 IR Inten    --      2.1892                 2.7234                 4.8456

                     10                     11                     12
                      A                      A                      A
 Frequencies --    482.5177               624.2842               666.3309
 Red. masses --      3.5250                 3.4134                 4.4810
 Frc consts  --      0.4835                 0.7838                 1.1722
 IR Inten    --      2.5100                 3.4210                 1.5964

                     13                     14                     15
                      A                      A                      A
 Frequencies --    698.7207               746.1530               833.8083
 Red. masses --      2.8635                 1.9671                 2.7693
 Frc consts  --      0.8237                 0.6452                 1.1343
 IR Inten    --      0.6249                17.8052                28.0455

                     16                     17                     18
                      A                      A                      A
 Frequencies --    852.2879               903.9701               927.8502
 Red. masses --      2.4023                 2.1757                 3.1838
 Frc consts  --      1.0281                 1.0475                 1.6149
 IR Inten    --     21.7080                 0.9419                12.4242

                     19                     20                     21
                      A                      A                      A
 Frequencies --    931.1624               980.3196               991.6604
 Red. masses --      2.6459                 1.3091                 2.6767
 Frc consts  --      1.3517                 0.7412                 1.5509
 IR Inten    --     13.9665                 0.5356                34.9354

                     22                     23                     24
                      A                      A                      A
 Frequencies --   1013.9025              1041.0368              1072.0192
 Red. masses --      2.1032                 1.4846                 3.5041
 Frc consts  --      1.2739                 0.9479                 2.3726
 IR Inten    --     13.6406                 3.9452               113.1919

                     25                     26                     27
                      A                      A                      A
 Frequencies --   1098.3652              1126.3627              1152.2801
 Red. masses --      1.3663                 2.0992                 1.1668
 Frc consts  --      0.9711                 1.5691                 0.9128
 IR Inten    --      2.7401                 7.5557                12.7694

                     28                     29                     30
                      A                      A                      A
 Frequencies --   1221.6898              1238.0654              1242.9420
 Red. masses --      1.6753                 1.8604                 1.4123
 Frc consts  --      1.4732                 1.6801                 1.2856
 IR Inten    --      7.0966                 3.9390                 9.8278

                     31                     32                     33
                      A                      A                      A
 Frequencies --   1268.0188              1290.4788              1320.0367
 Red. masses --      2.0486                 1.7875                 1.8528
 Frc consts  --      1.9407                 1.7539                 1.9022
 IR Inten    --      9.9774                18.9778                 4.4209

                     34                     35                     36
                      A                      A                      A
 Frequencies --   1359.7430              1389.5038              1408.6606
 Red. masses --      1.4729                 1.3762                 1.3644
 Frc consts  --      1.6045                 1.5655                 1.5952
 IR Inten    --      4.2494                 5.4775                 3.4639

                     37                     38                     39
                      A                      A                      A
 Frequencies --   1416.6028              1478.6248              1485.5340
 Red. masses --      1.4320                 1.0617                 1.1230
 Frc consts  --      1.6931                 1.3676                 1.4601
 IR Inten    --     77.2801                 1.8324                 7.8152

                     40                     41                     42
                      A                      A                      A
 Frequencies --   1494.3223              1689.3666              3036.0161
 Red. masses --      1.0624                 7.0857                 1.0358
 Frc consts  --      1.3977                11.9147                 5.6250
 IR Inten    --      2.1743                 1.8876                15.0874

                     43                     44                     45
                      A                      A                      A
 Frequencies --   3042.4011              3063.7140              3088.5520
 Red. masses --      1.0839                 1.0574                 1.0894
 Frc consts  --      5.9111                 5.8479                 6.1226
 IR Inten    --     20.1617                30.3969                48.8279

                     46                     47                     48
                      A                      A                      A
 Frequencies --   3104.1914              3122.2020              3126.7698
 Red. masses --      1.1007                 1.1029                 1.1077
 Frc consts  --      6.2493                 6.3347                 6.3806
 IR Inten    --     15.3341                 4.1307                38.3699

                     49                     50                     51
                      A                      A                      A
 Frequencies --   3161.8383              3185.3725              3803.2939
 Red. masses --      1.0844                 1.1009                 1.0659
 Frc consts  --      6.3873                 6.5811                 9.0842
 IR Inten    --      6.2155                20.4498                10.9489

 - Thermochemistry -
 -------------------
 Temperature   298.150 Kelvin.  Pressure   1.00000 Atm.
 Atom     1 has atomic number  6 and mass  12.00000

 Molecular mass:   126.06808 amu.
 Principal axes and moments of inertia in atomic units:
                           1         2         3
     Eigenvalues --   525.529971274.153741453.95129
           X            0.99991   0.00231   0.01287
           Y           -0.00191   0.99953  -0.03068
           Z           -0.01294   0.03065   0.99945
 This molecule is an asymmetric top.
 Rotational symmetry number  1.
 Warning -- assumption of classical behavior for rotation
           may cause significant error
 Rotational temperatures (Kelvin)      0.16481     0.06798     0.05957
 Rotational constants (GHZ):           3.43414     1.41642     1.24127
 Zero-point vibrational energy     418613.9 (Joules/Mol)
                                  100.05113 (Kcal/Mol)
 Warning -- explicit consideration of  10 degrees of freedom as
           vibrations may cause significant error
 Vibrational temperatures:    190.99   299.41   329.21   412.35   432.81
          (Kelvin)            474.71   579.29   641.30   676.86   694.23
                              898.20   958.70  1005.30  1073.55  1199.66
                             1226.25  1300.61  1334.97  1339.73  1410.46
                             1426.78  1458.78  1497.82  1542.39  1580.30
                             1620.58  1657.87  1757.74  1781.30  1788.31
                             1824.39  1856.71  1899.24  1956.36  1999.18
                             2026.75  2038.17  2127.41  2137.35  2149.99
                             2430.62  4368.14  4377.33  4408.00  4443.73
                             4466.23  4492.15  4498.72  4549.17  4583.03
                             5472.08

 Zero-point correction=                           0.159442 (Hartree/Particle)
 Thermal correction to Energy=                    0.167445
 Thermal correction to Enthalpy=                  0.168389
 Thermal correction to Gibbs Free Energy=         0.127542
 Sum of electronic and zero-point Energies=           -423.013037
 Sum of electronic and thermal Energies=              -423.005033
 Sum of electronic and thermal Enthalpies=            -423.004089
 Sum of electronic and thermal Free Energies=         -423.044936

                     E (Thermal)             CV                S
                      KCal/Mol        Cal/Mol-Kelvin    Cal/Mol-Kelvin
 Total                  105.073             32.246             85.970
 Electronic               0.000              0.000              0.000
 Translational            0.889              2.981             40.409
 Rotational               0.889              2.981             28.367
 Vibrational            103.296             26.285             17.194
 Vibration     1          0.613              1.921              2.906
 Vibration     2          0.641              1.828              2.060
 Vibration     3          0.651              1.797              1.888
 Vibration     4          0.684              1.699              1.494
 Vibration     5          0.693              1.672              1.412
 Vibration     6          0.713              1.616              1.260
 Vibration     7          0.768              1.464              0.953
 Vibration     8          0.805              1.370              0.809
 Vibration     9          0.827              1.316              0.736
 Vibration    10          0.839              1.289              0.703

 Normal termination of Gaussian 09 at Tue Jan 28 00:58:24 2020.
