 Gaussian 09, Revision D.01,
 Gaussian 09:  ES64L-G09RevD.01 24-Apr-2013

 -----------------------------
 # b3lyp 6-31G(2df,p) opt Freq
 -----------------------------

 -----
 titel
 -----
 Symbolic Z-matrix:
 Charge =  0 Multiplicity = 1

 SCF Done:  E(RB3LYP) =  -423.133977150     A.U. after   14 cycles
 Optimization completed.
    -- Stationary point found.
 Normal termination of Gaussian 09 at Tue Jan 28 02:23:40 2020.

 ----------------------------------------------------------------------
 #N Geom=AllCheck Guess=TCheck SCRF=Check GenChk RB3LYP/6-31G(2df,p) Fr
 eq
 ----------------------------------------------------------------------

 Structure from the checkpoint file:  "/scratch/puck/g09_9f113f7f-aec8-4d75-96f9-f580714233f7/Gau-194435.chk"
 -----
 titel
 -----
 Charge =  0 Multiplicity = 1

                         Standard orientation:
 ---------------------------------------------------------------------
 Center     Atomic      Atomic             Coordinates (Angstroms)
 Number     Number       Type             X           Y           Z
 ---------------------------------------------------------------------
      1          6           0       -2.700342   -0.035980   -0.452967
      2          6           0       -1.499310    0.046375    0.490739
      3          6           0       -0.601075    1.308621    0.277596
      4          6           0        0.730700    0.643428   -0.007214
      5          8           0        1.807893    1.467017   -0.248732
      6          6           0        0.510084   -0.651027   -0.867283
      7          8           0        1.651474   -1.298283   -0.190050
      8          6           0        0.890629   -0.636591    0.888393
      9          6           0       -0.462304   -1.061383    0.269139
     10          1           0       -3.387455    0.800585   -0.289593
     11          1           0       -2.383269   -0.005426   -1.501666
     12          1           0       -3.261141   -0.964566   -0.301759
     13          1           0       -1.861257    0.010389    1.524811
     14          1           0       -0.933240    1.922347   -0.565925
     15          1           0       -0.550467    1.955629    1.158062
     16          1           0        2.557525    0.874373   -0.406720
     17          1           0        0.428732   -0.774487   -1.947852
     18          1           0        1.260221   -0.741344    1.909503
     19          1           0       -0.754876   -2.108025    0.340972
 ---------------------------------------------------------------------

 SCF Done:  E(RB3LYP) =  -423.133977150     A.U. after    1 cycles

 The electronic state is 1-A.
 Alpha  occ. eigenvalues --  -19.14520 -19.13644 -10.24378 -10.23960 -10.23939
 Alpha  occ. eigenvalues --  -10.19650 -10.19624 -10.18415 -10.18050  -1.06846
 Alpha  occ. eigenvalues --   -1.02105  -0.85347  -0.74668  -0.70645  -0.65650
 Alpha  occ. eigenvalues --   -0.64470  -0.56717  -0.55446  -0.52216  -0.48422
 Alpha  occ. eigenvalues --   -0.46064  -0.45214  -0.41759  -0.41048  -0.39218
 Alpha  occ. eigenvalues --   -0.38400  -0.36173  -0.35477  -0.34419  -0.33606
 Alpha  occ. eigenvalues --   -0.31377  -0.30943  -0.25490  -0.23765
 Alpha virt. eigenvalues --    0.06720   0.09906   0.10657   0.12138   0.12635
 Alpha virt. eigenvalues --    0.12935   0.14205   0.14949   0.15378   0.15812
 Alpha virt. eigenvalues --    0.16764   0.18592   0.19099   0.19854   0.21095

 Mulliken charges:
               1
     1  C   -0.401526
     2  C   -0.002108
     3  C   -0.311686
     4  C    0.461086
     5  O   -0.492507
     6  C   -0.023667
     7  O   -0.344360
     8  C   -0.035793
     9  C   -0.039505
    10  H    0.118348
    11  H    0.116219
    12  H    0.115578
    13  H    0.076539
    14  H    0.107943
    15  H    0.109286
    16  H    0.286976
    17  H    0.089711
    18  H    0.089182
    19  H    0.080282
 Sum of Mulliken charges =   0.00000

 Dipole moment (field-independent basis, Debye):
    X=             -1.6487    Y=             -0.1373    Z=              0.3806  Tot=              1.6976
 Quadrupole moment (field-independent basis, Debye-Ang):
   XX=            -53.4545   YY=            -58.1616   ZZ=            -50.2160
   XY=              0.6928   XZ=              0.2413   YZ=             -0.1027

  Exact polarizability:  82.272   0.051  71.368   0.526   0.161  68.200
 Approx polarizability: 112.012  -0.980 108.520  -0.540   0.194 108.772

                      1                      2                      3
                      A                      A                      A
 Frequencies --    117.9955               229.4517               242.9339
 Red. masses --      2.7799                 1.9503                 1.3245
 Frc consts  --      0.0228                 0.0605                 0.0461
 IR Inten    --      0.1613                 0.1698                 0.7496

                      4                      5                      6
                      A                      A                      A
 Frequencies --    294.6372               350.5016               405.9116
 Red. masses --      4.5935                 2.5740                 2.3498
 Frc consts  --      0.2349                 0.1863                 0.2281
 IR Inten    --     17.3377                 1.0765                 1.7538

                      7                      8                      9
                      A                      A                      A
 Frequencies --    449.0266               505.6073               543.8958
 Red. masses --      3.2775                 3.8113                 1.1642
 Frc consts  --      0.3893                 0.5741                 0.2029
 IR Inten    --      0.4547                 0.0771                78.6515

                     10                     11                     12
                      A                      A                      A
 Frequencies --    653.0166               688.6731               703.7762
 Red. masses --      3.6231                 4.9616                 3.5572
 Frc consts  --      0.9103                 1.3864                 1.0381
 IR Inten    --      2.3166                 5.6858                 7.9703

                     13                     14                     15
                      A                      A                      A
 Frequencies --    753.0035               813.1557               851.2578
 Red. masses --      3.1652                 5.1336                 2.6831
 Frc consts  --      1.0574                 2.0000                 1.1455
 IR Inten    --      0.1982                22.2610                 0.8163

                     16                     17                     18
                      A                      A                      A
 Frequencies --    889.0584               898.6731               913.3453
 Red. masses --      2.2491                 2.8990                 2.3132
 Frc consts  --      1.0474                 1.3795                 1.1370
 IR Inten    --      2.2400                33.4411                 1.8662

                     19                     20                     21
                      A                      A                      A
 Frequencies --    943.3485               956.3359              1020.8215
 Red. masses --      1.3354                 1.6962                 1.3019
 Frc consts  --      0.7002                 0.9140                 0.7993
 IR Inten    --      0.7162                 3.4227                 0.3434

                     22                     23                     24
                      A                      A                      A
 Frequencies --   1045.3722              1055.5241              1115.0472
 Red. masses --      1.7367                 3.1276                 1.6969
 Frc consts  --      1.1182                 2.0531                 1.2431
 IR Inten    --      0.1762                15.8452                 1.4027

                     25                     26                     27
                      A                      A                      A
 Frequencies --   1122.7108              1137.6912              1157.6633
 Red. masses --      2.4006                 1.9885                 1.3473
 Frc consts  --      1.7828                 1.5165                 1.0639
 IR Inten    --     50.8629                 2.2883                 3.0264

                     28                     29                     30
                      A                      A                      A
 Frequencies --   1174.9996              1194.0747              1224.2889
 Red. masses --      1.7353                 2.0124                 1.4610
 Frc consts  --      1.4115                 1.6905                 1.2902
 IR Inten    --     22.5815                25.5134                 0.8320

                     31                     32                     33
                      A                      A                      A
 Frequencies --   1228.7431              1271.6600              1293.7300
 Red. masses --      1.6127                 1.4635                 2.0618
 Frc consts  --      1.4345                 1.3944                 2.0332
 IR Inten    --      3.9681                 7.2888                38.2153

                     34                     35                     36
                      A                      A                      A
 Frequencies --   1323.6662              1364.3878              1375.8373
 Red. masses --      1.5713                 1.6883                 2.2324
 Frc consts  --      1.6221                 1.8517                 2.4898
 IR Inten    --     35.5076                39.9656                68.0530

                     37                     38                     39
                      A                      A                      A
 Frequencies --   1413.0973              1427.8559              1495.8339
 Red. masses --      1.2596                 2.0087                 1.0634
 Frc consts  --      1.4820                 2.4128                 1.4019
 IR Inten    --      2.4700                30.2191                 2.9387

                     40                     41                     42
                      A                      A                      A
 Frequencies --   1499.0610              1503.5646              3027.1329
 Red. masses --      1.0443                 1.1139                 1.0369
 Frc consts  --      1.3826                 1.4837                 5.5980
 IR Inten    --      4.7288                 0.9906                21.4362

                     43                     44                     45
                      A                      A                      A
 Frequencies --   3032.7560              3052.4307              3092.3404
 Red. masses --      1.0824                 1.0604                 1.1030
 Frc consts  --      5.8654                 5.8214                 6.2144
 IR Inten    --     19.4698                28.2403                15.7616

                     46                     47                     48
                      A                      A                      A
 Frequencies --   3097.8459              3100.0981              3107.6416
 Red. masses --      1.1022                 1.1019                 1.0895
 Frc consts  --      6.2319                 6.2393                 6.1994
 IR Inten    --     33.5004                21.3038                80.0084

                     49                     50                     51
                      A                      A                      A
 Frequencies --   3112.5514              3137.3941              3734.2831
 Red. masses --      1.0918                 1.0926                 1.0641
 Frc consts  --      6.2317                 6.3367                 8.7430
 IR Inten    --     10.2890                23.2485                26.5211

 - Thermochemistry -
 -------------------
 Temperature   298.150 Kelvin.  Pressure   1.00000 Atm.
 Atom     1 has atomic number  6 and mass  12.00000

 Molecular mass:   126.06808 amu.
 Principal axes and moments of inertia in atomic units:
                           1         2         3
     Eigenvalues --   597.789241138.482381440.41184
           X            0.99993   0.00028   0.01208
           Y           -0.00032   0.99999   0.00326
           Z           -0.01208  -0.00327   0.99992
 This molecule is an asymmetric top.
 Rotational symmetry number  1.
 Warning -- assumption of classical behavior for rotation
           may cause significant error
 Rotational temperatures (Kelvin)      0.14489     0.07608     0.06013
 Rotational constants (GHZ):           3.01903     1.58522     1.25293
 Zero-point vibrational energy     419552.6 (Joules/Mol)
                                  100.27547 (Kcal/Mol)
 Warning -- explicit consideration of   9 degrees of freedom as
           vibrations may cause significant error
 Vibrational temperatures:    169.77   330.13   349.53   423.92   504.29
          (Kelvin)            584.02   646.05   727.46   782.54   939.54
                              990.85  1012.58  1083.40  1169.95  1224.77
                             1279.16  1292.99  1314.10  1357.27  1375.95
                             1468.73  1504.06  1518.66  1604.30  1615.33
                             1636.88  1665.62  1690.56  1718.01  1761.48
                             1767.89  1829.63  1861.39  1904.46  1963.05
                             1979.52  2033.13  2054.36  2152.17  2156.81
                             2163.29  4355.36  4363.45  4391.76  4449.18
                             4457.10  4460.34  4471.20  4478.26  4514.00
                             5372.79

 Zero-point correction=                           0.159799 (Hartree/Particle)
 Thermal correction to Energy=                    0.167287
 Thermal correction to Enthalpy=                  0.168231
 Thermal correction to Gibbs Free Energy=         0.128228
 Sum of electronic and zero-point Energies=           -422.974178
 Sum of electronic and thermal Energies=              -422.966690
 Sum of electronic and thermal Enthalpies=            -422.965746
 Sum of electronic and thermal Free Energies=         -423.005750

                     E (Thermal)             CV                S
                      KCal/Mol        Cal/Mol-Kelvin    Cal/Mol-Kelvin
 Total                  104.974             30.764             84.195
 Electronic               0.000              0.000              0.000
 Translational            0.889              2.981             40.409
 Rotational               0.889              2.981             28.374
 Vibrational            103.197             24.802             15.413
 Vibration     1          0.608              1.934              3.133
 Vibration     2          0.652              1.796              1.883
 Vibration     3          0.659              1.774              1.781
 Vibration     4          0.689              1.684              1.447
 Vibration     5          0.727              1.574              1.164
 Vibration     6          0.771              1.457              0.941
 Vibration     7          0.808              1.363              0.799
 Vibration     8          0.861              1.238              0.644
 Vibration     9          0.899              1.153              0.557

 Optimization completed.
    -- Stationary point found.
 Normal termination of Gaussian 09 at Tue Jan 28 03:09:58 2020.
 Normal termination of Gaussian 09 at Tue Jan 28 02:16:39 2020.
