 Gaussian 09, Revision D.01,
 Gaussian 09:  ES64L-G09RevD.01 24-Apr-2013

 -----------------------------
 # b3lyp 6-31G(2df,p) opt Freq
 -----------------------------

 -----
 titel
 -----
 Symbolic Z-matrix:
 Charge =  0 Multiplicity = 1

 SCF Done:  E(RB3LYP) =  -423.176282050     A.U. after   14 cycles
 Optimization completed.
    -- Stationary point found.
 Normal termination of Gaussian 09 at Tue Jan 28 12:39:48 2020.

 ----------------------------------------------------------------------
 #N Geom=AllCheck Guess=TCheck SCRF=Check GenChk RB3LYP/6-31G(2df,p) Fr
 eq
 ----------------------------------------------------------------------

 Structure from the checkpoint file:  "/scratch/puck/g09_64fef6e5-5ddd-4e3e-b582-139706cb5fb3/Gau-116166.chk"
 -----
 titel
 -----
 Charge =  0 Multiplicity = 1

                         Standard orientation:
 ---------------------------------------------------------------------
 Center     Atomic      Atomic             Coordinates (Angstroms)
 Number     Number       Type             X           Y           Z
 ---------------------------------------------------------------------
      1          6           0        2.679062   -0.997620   -0.306533
      2          6           0        1.400089   -0.275264    0.015635
      3          6           0        0.044181   -0.958489   -0.178655
      4          6           0       -0.918992    0.196189   -0.398068
      5          6           0       -2.397247   -0.022235   -0.504286
      6          8           0       -2.929981   -0.648906    0.660834
      7          6           0       -0.278383    1.372321   -0.404523
      8          6           0        1.174701    1.176903   -0.132923
      9          8           0        1.427590    0.581203    1.165790
     10          1           0        2.680469   -1.346800   -1.344422
     11          1           0        3.538645   -0.340024   -0.155097
     12          1           0        2.802969   -1.872453    0.341618
     13          1           0        0.057183   -1.636243   -1.043181
     14          1           0       -0.237402   -1.561519    0.691265
     15          1           0       -2.904101    0.930423   -0.719417
     16          1           0       -2.628400   -0.710813   -1.326260
     17          1           0       -2.702308   -0.089844    1.411837
     18          1           0       -0.742501    2.342165   -0.541861
     19          1           0        1.934117    1.875901   -0.471358
 ---------------------------------------------------------------------

 SCF Done:  E(RB3LYP) =  -423.176282050     A.U. after    1 cycles

 The electronic state is 1-A.
 Alpha  occ. eigenvalues --  -19.14071 -19.13770 -10.23805 -10.23299 -10.23156
 Alpha  occ. eigenvalues --  -10.19323 -10.18824 -10.18536 -10.18335  -1.06196
 Alpha  occ. eigenvalues --   -1.01702  -0.82570  -0.75264  -0.70741  -0.69392
 Alpha  occ. eigenvalues --   -0.62371  -0.56168  -0.54129  -0.51403  -0.47978
 Alpha  occ. eigenvalues --   -0.45303  -0.43996  -0.43521  -0.42991  -0.40348
 Alpha  occ. eigenvalues --   -0.39867  -0.37567  -0.36144  -0.35349  -0.33184
 Alpha  occ. eigenvalues --   -0.30132  -0.27595  -0.25599  -0.24162
 Alpha virt. eigenvalues --   -0.00501   0.08715   0.09978   0.11073   0.12412
 Alpha virt. eigenvalues --    0.12800   0.14466   0.15373   0.16108   0.16726
 Alpha virt. eigenvalues --    0.17628   0.18107   0.18791   0.21192   0.21956

 Mulliken charges:
               1
     1  C   -0.484554
     2  C    0.411124
     3  C   -0.365696
     4  C    0.272177
     5  C   -0.158553
     6  O   -0.412666
     7  C   -0.200378
     8  C   -0.058815
     9  O   -0.302009
    10  H    0.121110
    11  H    0.129785
    12  H    0.128485
    13  H    0.107371
    14  H    0.131452
    15  H    0.092755
    16  H    0.112156
    17  H    0.285676
    18  H    0.098955
    19  H    0.091625
 Sum of Mulliken charges =   0.00000

 Dipole moment (field-independent basis, Debye):
    X=              0.5197    Y=              0.5728    Z=             -1.5854  Tot=              1.7640
 Quadrupole moment (field-independent basis, Debye-Ang):
   XX=            -55.8678   YY=            -50.9608   ZZ=            -53.7474
   XY=             -4.5948   XZ=             -2.4644   YZ=             -0.1657

  Exact polarizability:  90.754   1.668  81.257   1.576  -0.971  59.554
 Approx polarizability: 114.881  11.634 131.283   3.859  -0.773  98.082

                      1                      2                      3
                      A                      A                      A
 Frequencies --     74.4596               110.1701               185.7983
 Red. masses --      3.8301                 3.6465                 1.1117
 Frc consts  --      0.0125                 0.0261                 0.0226
 IR Inten    --      3.6959                 0.2420                 0.2507

                      4                      5                      6
                      A                      A                      A
 Frequencies --    214.7796               248.5218               332.6894
 Red. masses --      2.5829                 2.3233                 1.7007
 Frc consts  --      0.0702                 0.0845                 0.1109
 IR Inten    --      4.1272                 1.9296                42.1786

                      7                      8                      9
                      A                      A                      A
 Frequencies --    361.0014               396.7370               407.1730
 Red. masses --      2.6382                 1.9686                 1.7265
 Frc consts  --      0.2026                 0.1826                 0.1686
 IR Inten    --      2.8043                73.1451                24.7608

                     10                     11                     12
                      A                      A                      A
 Frequencies --    462.2827               554.7151               580.1975
 Red. masses --      5.5059                 2.3823                 4.3021
 Frc consts  --      0.6933                 0.4319                 0.8533
 IR Inten    --      1.0542                13.4455                 1.4564

                     13                     14                     15
                      A                      A                      A
 Frequencies --    712.3043               733.8483               831.7435
 Red. masses --      4.6443                 4.5001                 2.8687
 Frc consts  --      1.3884                 1.4279                 1.1693
 IR Inten    --      5.0493                 7.1410                13.9325

                     16                     17                     18
                      A                      A                      A
 Frequencies --    853.8460               880.4671               905.0043
 Red. masses --      2.4201                 2.7801                 2.1148
 Frc consts  --      1.0395                 1.2698                 1.0205
 IR Inten    --     16.5922                 9.0884                16.6447

                     19                     20                     21
                      A                      A                      A
 Frequencies --    945.0315               963.8288               990.8238
 Red. masses --      1.8100                 1.8507                 1.7290
 Frc consts  --      0.9524                 1.0130                 1.0001
 IR Inten    --      8.6436                 9.9714                 5.8702

                     22                     23                     24
                      A                      A                      A
 Frequencies --   1011.2162              1048.7492              1076.1596
 Red. masses --      1.6091                 4.2234                 1.9139
 Frc consts  --      0.9695                 2.7369                 1.3059
 IR Inten    --     23.3566                52.8994                 4.1361

                     25                     26                     27
                      A                      A                      A
 Frequencies --   1099.4708              1171.6204              1186.4687
 Red. masses --      1.5874                 1.6671                 1.3671
 Frc consts  --      1.1306                 1.3483                 1.1339
 IR Inten    --      2.3742                19.8853                12.2241

                     28                     29                     30
                      A                      A                      A
 Frequencies --   1201.6297              1230.7195              1273.9056
 Red. masses --      1.1828                 2.2580                 1.4855
 Frc consts  --      1.0062                 2.0151                 1.4204
 IR Inten    --      5.6296                16.6698                 5.9312

                     31                     32                     33
                      A                      A                      A
 Frequencies --   1308.6723              1345.2664              1372.6618
 Red. masses --      2.1035                 2.1687                 1.3362
 Frc consts  --      2.1226                 2.3124                 1.4834
 IR Inten    --      7.8894                11.8330                 1.6206

                     34                     35                     36
                      A                      A                      A
 Frequencies --   1407.9008              1417.6191              1439.9059
 Red. masses --      1.3135                 1.2530                 2.4838
 Frc consts  --      1.5340                 1.4837                 3.0342
 IR Inten    --      5.0191                61.8071                20.9207

                     37                     38                     39
                      A                      A                      A
 Frequencies --   1463.6434              1485.2756              1495.7503
 Red. masses --      1.1899                 1.0879                 1.0996
 Frc consts  --      1.5019                 1.4141                 1.4494
 IR Inten    --      1.5298                 6.7490                 2.6425

                     40                     41                     42
                      A                      A                      A
 Frequencies --   1500.0353              1690.9983              2991.3761
 Red. masses --      1.0930                 7.3173                 1.0653
 Frc consts  --      1.4491                12.3278                 5.6164
 IR Inten    --      0.8856                 3.3887                60.6289

                     43                     44                     45
                      A                      A                      A
 Frequencies --   3021.8040              3034.6000              3051.8311
 Red. masses --      1.0660                 1.0374                 1.0965
 Frc consts  --      5.7350                 5.6287                 6.0171
 IR Inten    --     15.7038                26.1772                30.3748

                     46                     47                     48
                      A                      A                      A
 Frequencies --   3076.4751              3096.1788              3123.0924
 Red. masses --      1.0937                 1.1002                 1.1010
 Frc consts  --      6.0992                 6.2143                 6.3271
 IR Inten    --      5.7271                19.3176                12.9981

                     49                     50                     51
                      A                      A                      A
 Frequencies --   3156.1494              3199.0845              3804.0576
 Red. masses --      1.0905                 1.0950                 1.0662
 Frc consts  --      6.3999                 6.6027                 9.0906
 IR Inten    --     29.8073                13.2096                17.0114

 - Thermochemistry -
 -------------------
 Temperature   298.150 Kelvin.  Pressure   1.00000 Atm.
 Atom     1 has atomic number  6 and mass  12.00000

 Molecular mass:   126.06808 amu.
 Principal axes and moments of inertia in atomic units:
                           1         2         3
     Eigenvalues --   507.748201703.393091885.17128
           X            0.99967  -0.02522  -0.00568
           Y            0.02522   0.99968  -0.00090
           Z            0.00570   0.00076   0.99998
 This molecule is an asymmetric top.
 Rotational symmetry number  1.
 Warning -- assumption of classical behavior for rotation
           may cause significant error
 Rotational temperatures (Kelvin)      0.17058     0.05085     0.04594
 Rotational constants (GHZ):           3.55440     1.05950     0.95734
 Zero-point vibrational energy     415868.2 (Joules/Mol)
                                   99.39489 (Kcal/Mol)
 Warning -- explicit consideration of  12 degrees of freedom as
           vibrations may cause significant error
 Vibrational temperatures:    107.13   158.51   267.32   309.02   357.57
          (Kelvin)            478.67   519.40   570.82   585.83   665.12
                              798.11   834.77  1024.85  1055.84  1196.69
                             1228.49  1266.79  1302.10  1359.69  1386.73
                             1425.57  1454.91  1508.91  1548.35  1581.89
                             1685.70  1707.06  1728.87  1770.73  1832.86
                             1882.89  1935.54  1974.95  2025.65  2039.64
                             2071.70  2105.85  2136.98  2152.05  2158.21
                             2432.97  4303.92  4347.70  4366.11  4390.90
                             4426.36  4454.71  4493.43  4540.99  4602.76
                             5473.18

 Zero-point correction=                           0.158396 (Hartree/Particle)
 Thermal correction to Energy=                    0.167144
 Thermal correction to Enthalpy=                  0.168088
 Thermal correction to Gibbs Free Energy=         0.124925
 Sum of electronic and zero-point Energies=           -423.017886
 Sum of electronic and thermal Energies=              -423.009138
 Sum of electronic and thermal Enthalpies=            -423.008194
 Sum of electronic and thermal Free Energies=         -423.051357

                     E (Thermal)             CV                S
                      KCal/Mol        Cal/Mol-Kelvin    Cal/Mol-Kelvin
 Total                  104.884             33.247             90.844
 Electronic               0.000              0.000              0.000
 Translational            0.889              2.981             40.409
 Rotational               0.889              2.981             28.879
 Vibrational            103.107             27.286             21.556
 Vibration     1          0.599              1.966              4.032
 Vibration     2          0.606              1.941              3.266
 Vibration     3          0.632              1.859              2.269
 Vibration     4          0.645              1.818              2.003
 Vibration     5          0.662              1.765              1.741
 Vibration     6          0.715              1.610              1.247
 Vibration     7          0.735              1.553              1.118
 Vibration     8          0.763              1.477              0.975
 Vibration     9          0.772              1.455              0.937
 Vibration    10          0.820              1.334              0.759
 Vibration    11          0.910              1.129              0.534
 Vibration    12          0.937              1.074              0.485

 Normal termination of Gaussian 09 at Tue Jan 28 13:20:43 2020.
