 Gaussian 09, Revision D.01,
 Gaussian 09:  ES64L-G09RevD.01 24-Apr-2013

 -----------------------------
 # b3lyp 6-31G(2df,p) opt Freq
 -----------------------------

 -----
 titel
 -----
 Symbolic Z-matrix:
 Charge =  0 Multiplicity = 1

 SCF Done:  E(RB3LYP) =  -423.164275324     A.U. after   14 cycles
 Optimization completed.
    -- Stationary point found.
 Normal termination of Gaussian 09 at Mon Jan 27 23:03:43 2020.

 ----------------------------------------------------------------------
 #N Geom=AllCheck Guess=TCheck SCRF=Check GenChk RB3LYP/6-31G(2df,p) Fr
 eq
 ----------------------------------------------------------------------

 Structure from the checkpoint file:  "/scratch/puck/g09_64becbc5-f1c4-4f44-9477-1b4ff3d7f473/Gau-179087.chk"
 -----
 titel
 -----
 Charge =  0 Multiplicity = 1

                         Standard orientation:
 ---------------------------------------------------------------------
 Center     Atomic      Atomic             Coordinates (Angstroms)
 Number     Number       Type             X           Y           Z
 ---------------------------------------------------------------------
      1          6           0        1.946404    1.742253    0.247273
      2          6           0        1.079530    0.514688    0.495855
      3          6           0        1.653079   -0.814059   -0.030784
      4          8           0        0.668095   -1.829743    0.190153
      5          6           0        0.531512   -0.995019   -0.963319
      6          6           0       -0.110550    0.347621   -0.532835
      7          6           0       -1.573981    0.317325   -0.113759
      8          6           0       -1.928254   -0.338525    1.205258
      9          8           0       -2.418069    0.794807   -0.840350
     10          1           0        2.832966    1.733147    0.890432
     11          1           0        2.287970    1.784272   -0.792915
     12          1           0        1.390326    2.662077    0.453603
     13          1           0        0.786834    0.453442    1.547621
     14          1           0        2.687543   -1.132788   -0.093615
     15          1           0        0.462661   -1.487089   -1.926265
     16          1           0       -0.021018    1.076882   -1.342059
     17          1           0       -1.618905    0.311800    2.032850
     18          1           0       -3.007499   -0.487005    1.260166
     19          1           0       -1.387524   -1.280957    1.325627
 ---------------------------------------------------------------------

 SCF Done:  E(RB3LYP) =  -423.164275324     A.U. after    1 cycles

 The electronic state is 1-A.
 Alpha  occ. eigenvalues --  -19.16541 -19.12208 -10.26537 -10.25180 -10.24742
 Alpha  occ. eigenvalues --  -10.20968 -10.20219 -10.19135 -10.17895  -1.09143
 Alpha  occ. eigenvalues --   -1.03259  -0.83074  -0.74692  -0.72178  -0.66783
 Alpha  occ. eigenvalues --   -0.63231  -0.57918  -0.53167  -0.51828  -0.47533
 Alpha  occ. eigenvalues --   -0.46687  -0.43530  -0.43092  -0.42490  -0.40581
 Alpha  occ. eigenvalues --   -0.39840  -0.38480  -0.36511  -0.35800  -0.35175
 Alpha  occ. eigenvalues --   -0.33191  -0.30645  -0.26803  -0.23592
 Alpha virt. eigenvalues --   -0.01283   0.07630   0.09250   0.10145   0.11063
 Alpha virt. eigenvalues --    0.12100   0.13602   0.14600   0.15377   0.15742
 Alpha virt. eigenvalues --    0.16616   0.16755   0.18707   0.20338   0.21295

 Mulliken charges:
               1
     1  C   -0.414753
     2  C   -0.044990
     3  C    0.027180
     4  O   -0.237818
     5  C    0.001710
     6  C   -0.125667
     7  C    0.378670
     8  C   -0.494175
     9  O   -0.311203
    10  H    0.121786
    11  H    0.121745
    12  H    0.129827
    13  H    0.087978
    14  H    0.109983
    15  H    0.116965
    16  H    0.099336
    17  H    0.137271
    18  H    0.135036
    19  H    0.161118
 Sum of Mulliken charges =   0.00000

 Dipole moment (field-independent basis, Debye):
    X=              2.9466    Y=              0.3209    Z=              0.7085  Tot=              3.0475
 Quadrupole moment (field-independent basis, Debye-Ang):
   XX=            -56.5437   YY=            -56.2366   ZZ=            -51.7481
   XY=              3.5788   XZ=             -4.4636   YZ=              3.4155

  Exact polarizability:  86.643  -0.328  70.521   2.565  -0.357  69.524
 Approx polarizability: 120.132  -5.146 106.119  11.597  -5.820 109.754

                      1                      2                      3
                      A                      A                      A
 Frequencies --     44.1459               122.1966               177.6699
 Red. masses --      4.8493                 3.3937                 1.4225
 Frc consts  --      0.0056                 0.0299                 0.0265
 IR Inten    --      4.9441                 1.1517                 1.3316

                      4                      5                      6
                      A                      A                      A
 Frequencies --    186.6628               219.3186               249.4214
 Red. masses --      1.5586                 2.5399                 1.2782
 Frc consts  --      0.0320                 0.0720                 0.0469
 IR Inten    --      1.5399                 4.2555                 0.1281

                      7                      8                      9
                      A                      A                      A
 Frequencies --    273.1865               353.6506               452.9247
 Red. masses --      3.1337                 3.1864                 5.1585
 Frc consts  --      0.1378                 0.2348                 0.6235
 IR Inten    --      0.2439                 1.1148                 6.6422

                     10                     11                     12
                      A                      A                      A
 Frequencies --    491.6598               538.2412               608.3749
 Red. masses --      4.7534                 2.9741                 2.7945
 Frc consts  --      0.6770                 0.5076                 0.6094
 IR Inten    --      6.2980                 4.8974                 5.9186

                     13                     14                     15
                      A                      A                      A
 Frequencies --    729.9792               807.0491               838.2252
 Red. masses --      4.2625                 2.7506                 3.7955
 Frc consts  --      1.3383                 1.0555                 1.5712
 IR Inten    --      6.2336                 5.1962                 2.7745

                     16                     17                     18
                      A                      A                      A
 Frequencies --    857.6365               867.9528               892.6294
 Red. masses --      1.6183                 2.5272                 2.5603
 Frc consts  --      0.7013                 1.1217                 1.2020
 IR Inten    --     29.1079                 4.5950                 2.4870

                     19                     20                     21
                      A                      A                      A
 Frequencies --    948.0610               990.9740              1010.4164
 Red. masses --      1.9462                 1.8869                 1.9854
 Frc consts  --      1.0306                 1.0917                 1.1943
 IR Inten    --      6.4316                14.5614                13.5691

                     22                     23                     24
                      A                      A                      A
 Frequencies --   1040.8538              1060.3664              1082.7450
 Red. masses --      1.3286                 1.7622                 2.1016
 Frc consts  --      0.8480                 1.1674                 1.4516
 IR Inten    --      0.5508                 1.5740                 3.1542

                     25                     26                     27
                      A                      A                      A
 Frequencies --   1099.8040              1126.4192              1210.1534
 Red. masses --      1.9873                 1.9617                 1.6302
 Frc consts  --      1.4162                 1.4665                 1.4066
 IR Inten    --      2.8322                 0.1455                19.2050

                     28                     29                     30
                      A                      A                      A
 Frequencies --   1221.9505              1233.8326              1254.0081
 Red. masses --      1.3613                 1.5046                 2.0698
 Frc consts  --      1.1976                 1.3496                 1.9177
 IR Inten    --      6.4742                41.3603                36.4821

                     31                     32                     33
                      A                      A                      A
 Frequencies --   1262.2248              1300.9324              1359.2353
 Red. masses --      1.4925                 1.4581                 1.6779
 Frc consts  --      1.4010                 1.4539                 1.8264
 IR Inten    --      8.8192                 2.4766                 4.3111

                     34                     35                     36
                      A                      A                      A
 Frequencies --   1381.4140              1386.4258              1413.5259
 Red. masses --      1.5067                 2.6545                 1.2696
 Frc consts  --      1.6941                 3.0063                 1.4946
 IR Inten    --     54.6294                 6.6497                 6.1383

                     37                     38                     39
                      A                      A                      A
 Frequencies --   1470.9021              1471.9128              1494.4272
 Red. masses --      1.0498                 1.0550                 1.0437
 Frc consts  --      1.3382                 1.3467                 1.3733
 IR Inten    --      7.5613                13.4010                 3.9956

                     40                     41                     42
                      A                      A                      A
 Frequencies --   1499.1333              1795.8543              3030.1794
 Red. masses --      1.0491                10.5188                 1.0352
 Frc consts  --      1.3892                19.9874                 5.6004
 IR Inten    --      3.9166               179.7182                22.4637

                     43                     44                     45
                      A                      A                      A
 Frequencies --   3036.4539              3070.3524              3086.0006
 Red. masses --      1.0399                 1.0856                 1.0864
 Frc consts  --      5.6492                 6.0300                 6.0960
 IR Inten    --      2.7507                 8.6563                 5.9556

                     46                     47                     48
                      A                      A                      A
 Frequencies --   3099.4110              3105.5557              3106.1267
 Red. masses --      1.0990                 1.0996                 1.0934
 Frc consts  --      6.2203                 6.2481                 6.2153
 IR Inten    --     33.4155                19.7464                 8.4881

                     49                     50                     51
                      A                      A                      A
 Frequencies --   3156.4578              3179.4541              3196.5226
 Red. masses --      1.1049                 1.0875                 1.1008
 Frc consts  --      6.4859                 6.4773                 6.6268
 IR Inten    --      6.5611                13.4676                18.2022

 - Thermochemistry -
 -------------------
 Temperature   298.150 Kelvin.  Pressure   1.00000 Atm.
 Atom     1 has atomic number  6 and mass  12.00000

 Molecular mass:   126.06808 amu.
 Principal axes and moments of inertia in atomic units:
                           1         2         3
     Eigenvalues --   753.243521333.446021625.91183
           X            0.99675   0.07522  -0.02900
           Y           -0.07468   0.99702   0.01945
           Z            0.03038  -0.01722   0.99939
 This molecule is an asymmetric top.
 Rotational symmetry number  1.
 Warning -- assumption of classical behavior for rotation
           may cause significant error
 Rotational temperatures (Kelvin)      0.11499     0.06495     0.05327
 Rotational constants (GHZ):           2.39596     1.35344     1.10999
 Zero-point vibrational energy     412071.7 (Joules/Mol)
                                   98.48750 (Kcal/Mol)
 Warning -- explicit consideration of  12 degrees of freedom as
           vibrations may cause significant error
 Vibrational temperatures:     63.52   175.81   255.63   268.57   315.55
          (Kelvin)            358.86   393.05   508.82   651.66   707.39
                              774.41   875.31  1050.28  1161.16  1206.02
                             1233.95  1248.79  1284.29  1364.05  1425.79
                             1453.76  1497.55  1525.63  1557.83  1582.37
                             1620.66  1741.14  1758.11  1775.21  1804.24
                             1816.06  1871.75  1955.63  1987.54  1994.76
                             2033.75  2116.30  2117.75  2150.14  2156.92
                             2583.83  4359.75  4368.77  4417.55  4440.06
                             4459.36  4468.20  4469.02  4541.43  4574.52
                             4599.08

 Zero-point correction=                           0.156950 (Hartree/Particle)
 Thermal correction to Energy=                    0.165992
 Thermal correction to Enthalpy=                  0.166937
 Thermal correction to Gibbs Free Energy=         0.122738
 Sum of electronic and zero-point Energies=           -423.007325
 Sum of electronic and thermal Energies=              -422.998283
 Sum of electronic and thermal Enthalpies=            -422.997339
 Sum of electronic and thermal Free Energies=         -423.041538

                     E (Thermal)             CV                S
                      KCal/Mol        Cal/Mol-Kelvin    Cal/Mol-Kelvin
 Total                  104.162             33.411             93.024
 Electronic               0.000              0.000              0.000
 Translational            0.889              2.981             40.409
 Rotational               0.889              2.981             28.881
 Vibrational            102.384             27.450             23.735
 Vibration     1          0.595              1.980              5.064
 Vibration     2          0.610              1.931              3.065
 Vibration     3          0.628              1.870              2.353
 Vibration     4          0.632              1.858              2.261
 Vibration     5          0.647              1.812              1.965
 Vibration     6          0.662              1.764              1.735
 Vibration     7          0.676              1.723              1.576
 Vibration     8          0.730              1.568              1.150
 Vibration     9          0.811              1.354              0.787
 Vibration    10          0.847              1.269              0.679
 Vibration    11          0.893              1.165              0.569
 Vibration    12          0.967              1.014              0.435

 Optimization completed.
    -- Stationary point found.
 Normal termination of Gaussian 09 at Mon Jan 27 23:48:41 2020.
