 Gaussian 09, Revision D.01,
 Gaussian 09:  ES64L-G09RevD.01 24-Apr-2013

 -----------------------------
 # b3lyp 6-31G(2df,p) opt Freq
 -----------------------------

 -----
 titel
 -----
 Symbolic Z-matrix:
 Charge =  0 Multiplicity = 1

 SCF Done:  E(RB3LYP) =  -423.198390452     A.U. after   14 cycles
 SCF Done:  E(RB3LYP) =  -423.198390867     A.U. after    7 cycles
 SCF Done:  E(RB3LYP) =  -423.198390859     A.U. after    7 cycles
 SCF Done:  E(RB3LYP) =  -423.198391225     A.U. after    7 cycles
 Optimization completed.
    -- Stationary point found.
 Normal termination of Gaussian 09 at Mon Jan 27 13:18:37 2020.

 ----------------------------------------------------------------------
 #N Geom=AllCheck Guess=TCheck SCRF=Check GenChk RB3LYP/6-31G(2df,p) Fr
 eq
 ----------------------------------------------------------------------

 Structure from the checkpoint file:  "/scratch/puck/g09_e23d2191-096c-4b84-9c85-8a9a5c2ed7a4/Gau-27693.chk"
 -----
 titel
 -----
 Charge =  0 Multiplicity = 1

                         Standard orientation:
 ---------------------------------------------------------------------
 Center     Atomic      Atomic             Coordinates (Angstroms)
 Number     Number       Type             X           Y           Z
 ---------------------------------------------------------------------
      1          8           0       -1.781367    1.682507   -0.346952
      2          6           0       -1.453291    0.549143   -0.140508
      3          6           0       -2.207925   -0.774026    0.054919
      4          6           0       -0.865241   -1.398032    0.546169
      5          6           0       -0.088251   -0.112222    0.111315
      6          6           0        0.892262    0.565613    1.092946
      7          6           0        2.280660    0.396946    0.420802
      8          8           0        2.092372   -0.509844   -0.658201
      9          6           0        0.791125   -0.261737   -1.150676
     10          1           0       -3.045230   -0.742846    0.756675
     11          1           0       -2.571250   -1.181180   -0.894558
     12          1           0       -0.846543   -1.555981    1.626834
     13          1           0       -0.557562   -2.321333    0.051951
     14          1           0        0.636492    1.621188    1.219840
     15          1           0        0.850399    0.089214    2.075312
     16          1           0        2.646729    1.364657    0.045827
     17          1           0        3.040883   -0.025342    1.082596
     18          1           0        0.758543    0.671966   -1.736988
     19          1           0        0.503469   -1.095760   -1.796067
 ---------------------------------------------------------------------

 SCF Done:  E(RB3LYP) =  -423.198391225     A.U. after    1 cycles

 The electronic state is 1-A.
 Alpha  occ. eigenvalues --  -19.14335 -19.13999 -10.26896 -10.23587 -10.23108
 Alpha  occ. eigenvalues --  -10.20247 -10.19584 -10.19534 -10.19289  -1.04862
 Alpha  occ. eigenvalues --   -1.04256  -0.85369  -0.76167  -0.73104  -0.64033
 Alpha  occ. eigenvalues --   -0.61494  -0.60566  -0.52710  -0.50015  -0.47271
 Alpha  occ. eigenvalues --   -0.46986  -0.46472  -0.44277  -0.41583  -0.41241
 Alpha  occ. eigenvalues --   -0.38743  -0.37749  -0.37076  -0.34685  -0.34244
 Alpha  occ. eigenvalues --   -0.32062  -0.31758  -0.26072  -0.24168
 Alpha virt. eigenvalues --   -0.02503   0.07727   0.09050   0.10096   0.11912
 Alpha virt. eigenvalues --    0.13336   0.13927   0.15404   0.15782   0.15968
 Alpha virt. eigenvalues --    0.17274   0.17876   0.19333   0.20240   0.22814

 Mulliken charges:
               1
     1  O   -0.303929
     2  C    0.344096
     3  C   -0.342230
     4  C   -0.301546
     5  C    0.238568
     6  C   -0.329521
     7  C   -0.074639
     8  O   -0.239900
     9  C   -0.145412
    10  H    0.131616
    11  H    0.134100
    12  H    0.110480
    13  H    0.112907
    14  H    0.127748
    15  H    0.113062
    16  H    0.098261
    17  H    0.111849
    18  H    0.102670
    19  H    0.111821
 Sum of Mulliken charges =   0.00000

 Dipole moment (field-independent basis, Debye):
    X=              0.0047    Y=             -1.5994    Z=              1.0919  Tot=              1.9366
 Quadrupole moment (field-independent basis, Debye-Ang):
   XX=            -56.5095   YY=            -57.2043   ZZ=            -50.7658
   XY=              7.5067   XZ=              1.7655   YZ=              1.0990

  Exact polarizability:  86.263   3.683  73.566   2.940  -0.664  67.038
 Approx polarizability: 113.287  -2.358 116.975   3.806  -1.838  99.981

                      1                      2                      3
                      A                      A                      A
 Frequencies --     35.4577                64.3673               150.5750
 Red. masses --      2.2706                 2.5691                 3.8392
 Frc consts  --      0.0017                 0.0063                 0.0513
 IR Inten    --      0.8451                 3.2365                 3.8615

                      4                      5                      6
                      A                      A                      A
 Frequencies --    199.3549               272.6694               360.3657
 Red. masses --      2.9676                 3.8763                 2.2093
 Frc consts  --      0.0695                 0.1698                 0.1690
 IR Inten    --      7.9998                 0.3648                 1.5460

                      7                      8                      9
                      A                      A                      A
 Frequencies --    393.0685               505.3294               582.2102
 Red. masses --      2.6399                 2.0329                 3.9919
 Frc consts  --      0.2403                 0.3059                 0.7972
 IR Inten    --      0.9076                 0.1691                 4.5745

                     10                     11                     12
                      A                      A                      A
 Frequencies --    654.9924               707.3733               741.5263
 Red. masses --      3.6941                 4.5048                 1.3220
 Frc consts  --      0.9338                 1.3281                 0.4283
 IR Inten    --      5.5634                 4.1866                 0.6355

                     13                     14                     15
                      A                      A                      A
 Frequencies --    782.7285               814.6423               890.2347
 Red. masses --      3.5649                 1.5696                 2.5935
 Frc consts  --      1.2868                 0.6137                 1.2110
 IR Inten    --     11.6291                 1.9835                 9.7802

                     16                     17                     18
                      A                      A                      A
 Frequencies --    919.4763               931.1302               963.5455
 Red. masses --      2.4066                 2.8691                 3.3087
 Frc consts  --      1.1987                 1.4656                 1.8099
 IR Inten    --      1.2877                 4.5991                13.7144

                     19                     20                     21
                      A                      A                      A
 Frequencies --    967.0179              1003.4921              1044.1885
 Red. masses --      3.1321                 1.4918                 3.4063
 Frc consts  --      1.7256                 0.8851                 2.1882
 IR Inten    --     30.5655                 1.6227                56.6002

                     22                     23                     24
                      A                      A                      A
 Frequencies --   1074.6209              1103.4558              1133.8725
 Red. masses --      1.5557                 7.0906                 2.3763
 Frc consts  --      1.0585                 5.0868                 1.8000
 IR Inten    --      6.4168                53.7646                47.4635

                     25                     26                     27
                      A                      A                      A
 Frequencies --   1163.7607              1183.2945              1205.4737
 Red. masses --      2.3109                 2.2515                 1.4737
 Frc consts  --      1.8440                 1.8574                 1.2617
 IR Inten    --     23.0717                 4.2059                 2.9963

                     28                     29                     30
                      A                      A                      A
 Frequencies --   1224.9843              1238.2041              1258.1526
 Red. masses --      1.2301                 1.1669                 1.4431
 Frc consts  --      1.0876                 1.0540                 1.3459
 IR Inten    --      2.3947                11.4859                 2.6044

                     31                     32                     33
                      A                      A                      A
 Frequencies --   1280.7167              1286.5833              1307.7299
 Red. masses --      1.6711                 1.2967                 1.4554
 Frc consts  --      1.6149                 1.2646                 1.4664
 IR Inten    --     12.7226                 2.4346                 1.6989

                     34                     35                     36
                      A                      A                      A
 Frequencies --   1352.9119              1395.2475              1438.1395
 Red. masses --      1.2370                 1.3325                 1.0945
 Frc consts  --      1.3340                 1.5284                 1.3337
 IR Inten    --      2.4389                18.1967                 7.2920

                     37                     38                     39
                      A                      A                      A
 Frequencies --   1486.5036              1488.8451              1507.1828
 Red. masses --      1.0864                 1.0940                 1.0868
 Frc consts  --      1.4144                 1.4288                 1.4545
 IR Inten    --      3.2592                 2.9504                 0.1387

                     40                     41                     42
                      A                      A                      A
 Frequencies --   1524.2735              1881.1299              2965.8182
 Red. masses --      1.1018                12.7160                 1.0696
 Frc consts  --      1.5082                26.5118                 5.5433
 IR Inten    --      1.1250               230.7685                44.7736

                     43                     44                     45
                      A                      A                      A
 Frequencies --   2989.7791              3056.1972              3062.7672
 Red. masses --      1.0711                 1.0603                 1.0597
 Frc consts  --      5.6412                 5.8350                 5.8566
 IR Inten    --     71.5027                10.8644                17.3119

                     46                     47                     48
                      A                      A                      A
 Frequencies --   3072.3850              3090.5060              3094.9222
 Red. masses --      1.0602                 1.0939                 1.0941
 Frc consts  --      5.8964                 6.1556                 6.1748
 IR Inten    --     18.7663                27.5285                14.6797

                     49                     50                     51
                      A                      A                      A
 Frequencies --   3109.2382              3113.2664              3128.9743
 Red. masses --      1.1039                 1.1052                 1.1073
 Frc consts  --      6.2876                 6.3115                 6.3873
 IR Inten    --      4.6520                24.0004                23.7712

 - Thermochemistry -
 -------------------
 Temperature   298.150 Kelvin.  Pressure   1.00000 Atm.
 Atom     1 has atomic number  8 and mass  15.99491

 Molecular mass:   126.06808 amu.
 Principal axes and moments of inertia in atomic units:
                           1         2         3
     Eigenvalues --   600.575521398.994791553.26661
           X            0.99843   0.05513   0.00969
           Y           -0.05532   0.99826   0.02036
           Z           -0.00855  -0.02086   0.99975
 This molecule is an asymmetric top.
 Rotational symmetry number  1.
 Warning -- assumption of classical behavior for rotation
           may cause significant error
 Rotational temperatures (Kelvin)      0.14422     0.06191     0.05576
 Rotational constants (GHZ):           3.00502     1.29003     1.16190
 Zero-point vibrational energy     419905.3 (Joules/Mol)
                                  100.35977 (Kcal/Mol)
 Warning -- explicit consideration of   9 degrees of freedom as
           vibrations may cause significant error
 Vibrational temperatures:     51.02    92.61   216.64   286.83   392.31
          (Kelvin)            518.49   565.54   727.06   837.67   942.39
                             1017.75  1066.89  1126.17  1172.09  1280.85
                             1322.92  1339.69  1386.33  1391.32  1443.80
                             1502.35  1546.14  1587.62  1631.39  1674.39
                             1702.49  1734.41  1762.48  1781.50  1810.20
                             1842.66  1851.10  1881.53  1946.54  2007.45
                             2069.16  2138.74  2142.11  2168.50  2193.09
                             2706.52  4267.15  4301.62  4397.18  4406.63
                             4420.47  4446.54  4452.90  4473.49  4479.29
                             4501.89

 Zero-point correction=                           0.159933 (Hartree/Particle)
 Thermal correction to Energy=                    0.168204
 Thermal correction to Enthalpy=                  0.169148
 Thermal correction to Gibbs Free Energy=         0.125798
 Sum of electronic and zero-point Energies=           -423.038458
 Sum of electronic and thermal Energies=              -423.030187
 Sum of electronic and thermal Enthalpies=            -423.029243
 Sum of electronic and thermal Free Energies=         -423.072593

                     E (Thermal)             CV                S
                      KCal/Mol        Cal/Mol-Kelvin    Cal/Mol-Kelvin
 Total                  105.550             30.624             91.237
 Electronic               0.000              0.000              0.000
 Translational            0.889              2.981             40.409
 Rotational               0.889              2.981             28.658
 Vibrational            103.772             24.662             22.170
 Vibration     1          0.594              1.982              5.498
 Vibration     2          0.597              1.971              4.319
 Vibration     3          0.618              1.902              2.665
 Vibration     4          0.637              1.841              2.139
 Vibration     5          0.676              1.724              1.579
 Vibration     6          0.735              1.554              1.121
 Vibration     7          0.760              1.485              0.988
 Vibration     8          0.861              1.238              0.645
 Vibration     9          0.939              1.070              0.481

 Normal termination of Gaussian 09 at Mon Jan 27 14:05:10 2020.
