 Gaussian 09, Revision D.01,
 Gaussian 09:  ES64L-G09RevD.01 24-Apr-2013

 -----------------------------
 # b3lyp 6-31G(2df,p) opt Freq
 -----------------------------

 -----
 titel
 -----
 Symbolic Z-matrix:
 Charge =  0 Multiplicity = 1

 SCF Done:  E(RB3LYP) =  -423.116754792     A.U. after   13 cycles
 Optimization completed.
    -- Stationary point found.
 Normal termination of Gaussian 09 at Mon Jan 27 11:14:07 2020.

 ----------------------------------------------------------------------
 #N Geom=AllCheck Guess=TCheck SCRF=Check GenChk RB3LYP/6-31G(2df,p) Fr
 eq
 ----------------------------------------------------------------------

 Structure from the checkpoint file:  "/scratch/puck/g09_72d8caf2-110f-4040-ae30-3f2900b0b72b/Gau-162846.chk"
 -----
 titel
 -----
 Charge =  0 Multiplicity = 1

                         Standard orientation:
 ---------------------------------------------------------------------
 Center     Atomic      Atomic             Coordinates (Angstroms)
 Number     Number       Type             X           Y           Z
 ---------------------------------------------------------------------
      1          6           0        1.995821    1.000222    0.064218
      2          6           0        1.292043    0.022464   -0.908371
      3          8           0        1.842422   -1.096914   -0.110211
      4          6           0        1.327609   -0.128359    0.884979
      5          6           0        0.037874    0.021660    0.017205
      6          6           0       -0.905850    1.234058    0.155295
      7          6           0       -2.275558    0.663776   -0.245296
      8          6           0       -2.126223   -0.795021    0.186722
      9          8           0       -0.771001   -1.125712   -0.089891
     10          1           0        3.082585    0.931459    0.036150
     11          1           0        1.634626    2.026409    0.160219
     12          1           0        1.357210   -0.053826   -1.994547
     13          1           0        1.434660   -0.382985    1.940418
     14          1           0       -0.922579    1.577607    1.195656
     15          1           0       -0.600923    2.079698   -0.463628
     16          1           0       -3.115003    1.173904    0.232972
     17          1           0       -2.413070    0.720120   -1.329878
     18          1           0       -2.341982   -0.911479    1.261003
     19          1           0       -2.761188   -1.492697   -0.366061
 ---------------------------------------------------------------------

 SCF Done:  E(RB3LYP) =  -423.116754792     A.U. after    1 cycles

 The electronic state is 1-A.
 Alpha  occ. eigenvalues --  -19.13771 -19.12402 -10.24301 -10.23988 -10.23923
 Alpha  occ. eigenvalues --  -10.22866 -10.19302 -10.19065 -10.19052  -1.06209
 Alpha  occ. eigenvalues --   -1.02466  -0.79936  -0.77562  -0.71303  -0.64866
 Alpha  occ. eigenvalues --   -0.62423  -0.59955  -0.52417  -0.51623  -0.49434
 Alpha  occ. eigenvalues --   -0.48774  -0.44421  -0.42277  -0.40414  -0.39576
 Alpha  occ. eigenvalues --   -0.38207  -0.37134  -0.35486  -0.33427  -0.32896
 Alpha  occ. eigenvalues --   -0.31640  -0.30558  -0.24222  -0.23124
 Alpha virt. eigenvalues --    0.07974   0.09400   0.10062   0.11945   0.12637
 Alpha virt. eigenvalues --    0.12935   0.14781   0.15057   0.15140   0.15926
 Alpha virt. eigenvalues --    0.16777   0.18361   0.19176   0.19782   0.20410

 Mulliken charges:
               1
     1  C   -0.239898
     2  C   -0.023915
     3  O   -0.312253
     4  C   -0.029599
     5  C    0.510906
     6  C   -0.333220
     7  C   -0.227070
     8  C   -0.077757
     9  O   -0.300363
    10  H    0.113240
    11  H    0.096252
    12  H    0.091446
    13  H    0.091086
    14  H    0.111890
    15  H    0.113817
    16  H    0.103411
    17  H    0.110941
    18  H    0.090623
    19  H    0.110463
 Sum of Mulliken charges =   0.00000

 Dipole moment (field-independent basis, Debye):
    X=             -1.7480    Y=              2.8288    Z=              0.3587  Tot=              3.3446
 Quadrupole moment (field-independent basis, Debye-Ang):
   XX=            -52.0013   YY=            -56.7812   ZZ=            -49.8868
   XY=              3.2048   XZ=              0.0811   YZ=             -0.6828

  Exact polarizability:  87.861   3.133  69.407  -0.356  -0.446  68.713
 Approx polarizability: 111.391   0.688 108.162  -0.935   0.516 108.352

                      1                      2                      3
                      A                      A                      A
 Frequencies --     42.6949               190.2554               240.8902
 Red. masses --      2.9544                 2.4059                 4.4231
 Frc consts  --      0.0032                 0.0513                 0.1512
 IR Inten    --      0.9482                 1.0164                 1.2477

                      4                      5                      6
                      A                      A                      A
 Frequencies --    269.7047               394.9776               422.6805
 Red. masses --      2.0906                 3.0530                 5.0220
 Frc consts  --      0.0896                 0.2806                 0.5286
 IR Inten    --      0.7151                 0.8533                 1.1180

                      7                      8                      9
                      A                      A                      A
 Frequencies --    526.8416               605.5296               640.5135
 Red. masses --      2.5383                 1.8738                 3.6983
 Frc consts  --      0.4151                 0.4048                 0.8939
 IR Inten    --      1.4874                 0.8657                 9.5555

                     10                     11                     12
                      A                      A                      A
 Frequencies --    736.2800               770.0231               779.5607
 Red. masses --      3.0883                 6.0947                 3.4319
 Frc consts  --      0.9864                 2.1292                 1.2288
 IR Inten    --      6.7858                15.8144                 3.8475

                     13                     14                     15
                      A                      A                      A
 Frequencies --    858.9541               874.6004               896.4875
 Red. masses --      2.0460                 2.3544                 2.1711
 Frc consts  --      0.8894                 1.0611                 1.0281
 IR Inten    --      2.5268                22.1974                12.6227

                     16                     17                     18
                      A                      A                      A
 Frequencies --    911.3319               922.5995               943.7384
 Red. masses --      2.2659                 1.8736                 2.2505
 Frc consts  --      1.1088                 0.9396                 1.1809
 IR Inten    --     13.3497                 1.5930                 2.2797

                     19                     20                     21
                      A                      A                      A
 Frequencies --    992.0263              1013.4893              1022.9730
 Red. masses --      2.0360                 1.5114                 1.3806
 Frc consts  --      1.1805                 0.9147                 0.8513
 IR Inten    --      1.4856                 0.6098                 2.9773

                     22                     23                     24
                      A                      A                      A
 Frequencies --   1060.6435              1102.1203              1121.5536
 Red. masses --      2.7051                 4.4327                 1.4482
 Frc consts  --      1.7930                 3.1723                 1.0733
 IR Inten    --     20.2062                55.8961                 4.9938

                     25                     26                     27
                      A                      A                      A
 Frequencies --   1138.4235              1156.5978              1168.8651
 Red. masses --      1.9887                 3.9010                 1.3491
 Frc consts  --      1.5186                 3.0746                 1.0860
 IR Inten    --     13.7204               144.4958                 4.2316

                     28                     29                     30
                      A                      A                      A
 Frequencies --   1182.8836              1199.9816              1214.5801
 Red. masses --      1.8992                 1.5536                 1.4721
 Frc consts  --      1.5657                 1.3181                 1.2795
 IR Inten    --      7.6846                12.2057                 0.2673

                     31                     32                     33
                      A                      A                      A
 Frequencies --   1226.4897              1262.4438              1269.1551
 Red. masses --      1.7030                 1.5613                 1.2473
 Frc consts  --      1.5094                 1.4661                 1.1837
 IR Inten    --     10.7439                 1.9245                 5.7159

                     34                     35                     36
                      A                      A                      A
 Frequencies --   1308.3639              1337.6251              1341.3137
 Red. masses --      1.6120                 1.9172                 1.4028
 Frc consts  --      1.6258                 2.0211                 1.4870
 IR Inten    --     12.8035                25.0664                 0.5178

                     37                     38                     39
                      A                      A                      A
 Frequencies --   1393.0497              1483.1609              1487.5424
 Red. masses --      1.3715                 1.1147                 1.1222
 Frc consts  --      1.5681                 1.4447                 1.4630
 IR Inten    --      3.1694                 4.3051                 2.6997

                     40                     41                     42
                      A                      A                      A
 Frequencies --   1498.2636              1525.5435              2975.3638
 Red. masses --      1.1055                 1.0988                 1.0719
 Frc consts  --      1.4622                 1.5067                 5.5912
 IR Inten    --      2.8107                 0.8929                74.6353

                     43                     44                     45
                      A                      A                      A
 Frequencies --   3045.8131              3054.6142              3072.3695
 Red. masses --      1.0683                 1.0620                 1.0578
 Frc consts  --      5.8390                 5.8383                 5.8830
 IR Inten    --     12.8047                21.8323                31.7204

                     46                     47                     48
                      A                      A                      A
 Frequencies --   3088.7118              3106.9656              3108.4064
 Red. masses --      1.0912                 1.0971                 1.0901
 Frc consts  --      6.1336                 6.2401                 6.2056
 IR Inten    --     43.3832                16.2569                82.7677

                     49                     50                     51
                      A                      A                      A
 Frequencies --   3115.6965              3117.0419              3159.5780
 Red. masses --      1.0987                 1.1005                 1.1082
 Frc consts  --      6.2843                 6.2997                 6.5183
 IR Inten    --      4.6800                32.4215                20.9806

 - Thermochemistry -
 -------------------
 Temperature   298.150 Kelvin.  Pressure   1.00000 Atm.
 Atom     1 has atomic number  6 and mass  12.00000

 Molecular mass:   126.06808 amu.
 Principal axes and moments of inertia in atomic units:
                           1         2         3
     Eigenvalues --   477.679311283.315921517.01665
           X            0.99988   0.01542   0.00037
           Y           -0.01542   0.99984  -0.00924
           Z           -0.00051   0.00924   0.99996
 This molecule is an asymmetric top.
 Rotational symmetry number  1.
 Warning -- assumption of classical behavior for rotation
           may cause significant error
 Rotational temperatures (Kelvin)      0.18132     0.06749     0.05709
 Rotational constants (GHZ):           3.77814     1.40631     1.18966
 Zero-point vibrational energy     420961.8 (Joules/Mol)
                                  100.61228 (Kcal/Mol)
 Warning -- explicit consideration of   8 degrees of freedom as
           vibrations may cause significant error
 Vibrational temperatures:     61.43   273.73   346.59   388.04   568.28
          (Kelvin)            608.14   758.01   871.22   921.55  1059.34
                             1107.89  1121.61  1235.84  1258.35  1289.84
                             1311.20  1327.41  1357.83  1427.30  1458.18
                             1471.83  1526.03  1585.70  1613.66  1637.94
                             1664.08  1681.73  1701.90  1726.50  1747.51
                             1764.64  1816.37  1826.03  1882.44  1924.54
                             1929.85  2004.29  2133.94  2140.24  2155.66
                             2194.91  4280.88  4382.24  4394.90  4420.45
                             4443.96  4470.22  4472.30  4482.79  4484.72
                             4545.92

 Zero-point correction=                           0.160336 (Hartree/Particle)
 Thermal correction to Energy=                    0.167644
 Thermal correction to Enthalpy=                  0.168588
 Thermal correction to Gibbs Free Energy=         0.128059
 Sum of electronic and zero-point Energies=           -422.956419
 Sum of electronic and thermal Energies=              -422.949111
 Sum of electronic and thermal Enthalpies=            -422.948166
 Sum of electronic and thermal Free Energies=         -422.988696

                     E (Thermal)             CV                S
                      KCal/Mol        Cal/Mol-Kelvin    Cal/Mol-Kelvin
 Total                  105.198             29.124             85.302
 Electronic               0.000              0.000              0.000
 Translational            0.889              2.981             40.409
 Rotational               0.889              2.981             28.321
 Vibrational            103.421             23.163             16.572
 Vibration     1          0.595              1.980              5.130
 Vibration     2          0.634              1.853              2.225
 Vibration     3          0.658              1.778              1.796
 Vibration     4          0.674              1.729              1.598
 Vibration     5          0.762              1.481              0.981
 Vibration     6          0.785              1.421              0.883
 Vibration     7          0.882              1.191              0.594
 Vibration     8          0.964              1.020              0.440

 Optimization completed.
    -- Stationary point found.
 Normal termination of Gaussian 09 at Mon Jan 27 11:56:29 2020.
