 Gaussian 09, Revision D.01,
 Gaussian 09:  ES64L-G09RevD.01 24-Apr-2013

 -----------------------------
 # b3lyp 6-31G(2df,p) opt Freq
 -----------------------------

 -----
 titel
 -----
 Symbolic Z-matrix:
 Charge =  0 Multiplicity = 1

 SCF Done:  E(RB3LYP) =  -423.153854289     A.U. after   13 cycles
 Optimization completed.
    -- Stationary point found.
 Normal termination of Gaussian 09 at Mon Jan 27 23:00:40 2020.

 ----------------------------------------------------------------------
 #N Geom=AllCheck Guess=TCheck SCRF=Check GenChk RB3LYP/6-31G(2df,p) Fr
 eq
 ----------------------------------------------------------------------

 Structure from the checkpoint file:  "/scratch/puck/g09_b4b5c592-3826-4eb8-bd91-7515a092c43a/Gau-65448.chk"
 -----
 titel
 -----
 Charge =  0 Multiplicity = 1

                         Standard orientation:
 ---------------------------------------------------------------------
 Center     Atomic      Atomic             Coordinates (Angstroms)
 Number     Number       Type             X           Y           Z
 ---------------------------------------------------------------------
      1          6           0       -2.967308   -0.064742   -0.152733
      2          6           0       -1.497995    0.145479   -0.038742
      3          6           0       -0.698705    1.168326   -0.372395
      4          6           0        0.687581    0.643537   -0.016707
      5          6           0        1.913859    1.505680   -0.057219
      6          8           0        0.431840   -0.031695    1.283910
      7          6           0       -0.472684   -0.863143    0.481188
      8          6           0        0.616112   -0.809137   -0.649152
      9          8           0        1.740029   -1.602618   -0.452183
     10          1           0       -3.199093   -0.941184   -0.771027
     11          1           0       -3.421535   -0.246701    0.829345
     12          1           0       -3.460765    0.802570   -0.599852
     13          1           0       -0.934771    2.121002   -0.825752
     14          1           0        1.980507    2.027203   -1.017212
     15          1           0        1.884005    2.254031    0.740510
     16          1           0        2.815110    0.898343    0.065243
     17          1           0       -0.790768   -1.786477    0.965735
     18          1           0        0.300411   -0.907304   -1.689801
     19          1           0        1.966780   -1.502977    0.483559
 ---------------------------------------------------------------------

 SCF Done:  E(RB3LYP) =  -423.153854289     A.U. after    1 cycles

 The electronic state is 1-A.
 Alpha  occ. eigenvalues --  -19.14219 -19.13234 -10.24054 -10.23777 -10.23493
 Alpha  occ. eigenvalues --  -10.19199 -10.19033 -10.18071 -10.17781  -1.05864
 Alpha  occ. eigenvalues --   -1.01122  -0.81551  -0.75950  -0.72142  -0.68095
 Alpha  occ. eigenvalues --   -0.63716  -0.56510  -0.53220  -0.50209  -0.47981
 Alpha  occ. eigenvalues --   -0.45420  -0.44376  -0.42009  -0.41646  -0.41328
 Alpha  occ. eigenvalues --   -0.38819  -0.37927  -0.35719  -0.35230  -0.34516
 Alpha  occ. eigenvalues --   -0.32986  -0.25809  -0.25179  -0.23349
 Alpha virt. eigenvalues --    0.00764   0.09130   0.10270   0.10632   0.12648
 Alpha virt. eigenvalues --    0.13646   0.14512   0.15404   0.15542   0.15969
 Alpha virt. eigenvalues --    0.17135   0.17745   0.18820   0.20851   0.22969

 Mulliken charges:
               1
     1  C   -0.515409
     2  C    0.364956
     3  C   -0.262282
     4  C    0.328905
     5  C   -0.513191
     6  O   -0.348384
     7  C   -0.106383
     8  C    0.162363
     9  O   -0.448478
    10  H    0.131601
    11  H    0.134688
    12  H    0.129645
    13  H    0.104813
    14  H    0.125214
    15  H    0.135302
    16  H    0.126118
    17  H    0.077715
    18  H    0.087302
    19  H    0.285505
 Sum of Mulliken charges =   0.00000

 Dipole moment (field-independent basis, Debye):
    X=             -1.2723    Y=              0.6528    Z=             -0.6368  Tot=              1.5654
 Quadrupole moment (field-independent basis, Debye-Ang):
   XX=            -50.5950   YY=            -52.2850   ZZ=            -55.4114
   XY=              3.1091   XZ=              1.8587   YZ=             -3.4287

  Exact polarizability:  92.730   4.779  77.868  -0.062  -4.484  60.951
 Approx polarizability: 124.350   8.526 121.675  -1.737  -8.116 100.127

                      1                      2                      3
                      A                      A                      A
 Frequencies --    155.4409               162.6446               183.2285
 Red. masses --      2.1605                 1.2081                 1.0711
 Frc consts  --      0.0308                 0.0188                 0.0212
 IR Inten    --      1.8272                 0.7379                 0.3027

                      4                      5                      6
                      A                      A                      A
 Frequencies --    220.4300               233.8010               272.5515
 Red. masses --      3.3137                 2.5608                 3.4725
 Frc consts  --      0.0949                 0.0825                 0.1520
 IR Inten    --      1.2909                 1.4258                 6.0763

                      7                      8                      9
                      A                      A                      A
 Frequencies --    358.4270               429.9598               497.7407
 Red. masses --      3.1543                 2.8484                 4.1682
 Frc consts  --      0.2388                 0.3102                 0.6084
 IR Inten    --      3.3461                 1.8737                 1.3098

                     10                     11                     12
                      A                      A                      A
 Frequencies --    543.7199               567.0753               591.2890
 Red. masses --      3.0738                 1.4892                 2.4211
 Frc consts  --      0.5354                 0.2822                 0.4987
 IR Inten    --      1.9762                51.7583                37.5777

                     13                     14                     15
                      A                      A                      A
 Frequencies --    649.2346               694.4199               763.1393
 Red. masses --      4.0707                 3.5670                 2.0986
 Frc consts  --      1.0109                 1.0134                 0.7201
 IR Inten    --      4.8863                 1.9941                11.8699

                     16                     17                     18
                      A                      A                      A
 Frequencies --    813.6290               823.5584               871.2250
 Red. masses --      2.2247                 2.2940                 3.5977
 Frc consts  --      0.8677                 0.9167                 1.6089
 IR Inten    --     13.1525                11.5662                21.4474

                     19                     20                     21
                      A                      A                      A
 Frequencies --    906.2079               918.0564               976.9991
 Red. masses --      2.1019                 4.0248                 2.0167
 Frc consts  --      1.0170                 1.9987                 1.1342
 IR Inten    --      2.8135                49.9992                17.4085

                     22                     23                     24
                      A                      A                      A
 Frequencies --   1030.9118              1059.0293              1093.9765
 Red. masses --      2.5041                 1.5248                 2.1043
 Frc consts  --      1.5680                 1.0076                 1.4838
 IR Inten    --      0.9915                 5.8338                23.5640

                     25                     26                     27
                      A                      A                      A
 Frequencies --   1109.0566              1133.2257              1160.6048
 Red. masses --      1.9232                 2.9538                 1.5966
 Frc consts  --      1.3937                 2.2349                 1.2671
 IR Inten    --     37.7776                78.6406                 1.4125

                     28                     29                     30
                      A                      A                      A
 Frequencies --   1187.8440              1193.0566              1246.9960
 Red. masses --      1.5348                 1.4188                 1.6392
 Frc consts  --      1.2759                 1.1899                 1.5018
 IR Inten    --     26.4767                31.3341                13.6378

                     31                     32                     33
                      A                      A                      A
 Frequencies --   1283.8206              1306.5875              1344.0709
 Red. masses --      1.6505                 2.2887                 2.4528
 Frc consts  --      1.6028                 2.3021                 2.6107
 IR Inten    --      0.9048                 0.3575                12.5284

                     34                     35                     36
                      A                      A                      A
 Frequencies --   1413.3160              1417.0648              1432.9266
 Red. masses --      1.2876                 1.4963                 1.3658
 Frc consts  --      1.5154                 1.7703                 1.6523
 IR Inten    --      1.5824                13.8571               110.0264

                     37                     38                     39
                      A                      A                      A
 Frequencies --   1478.6090              1481.5810              1486.4914
 Red. masses --      1.0446                 1.0478                 1.0627
 Frc consts  --      1.3455                 1.3551                 1.3836
 IR Inten    --      6.0633                 5.3334                 8.2279

                     40                     41                     42
                      A                      A                      A
 Frequencies --   1489.3921              1680.3109              3018.5539
 Red. masses --      1.0478                 7.1050                 1.0378
 Frc consts  --      1.3695                11.8194                 5.5716
 IR Inten    --      4.2898                10.0827                28.9688

                     43                     44                     45
                      A                      A                      A
 Frequencies --   3041.4873              3065.0301              3103.2196
 Red. masses --      1.0349                 1.0986                 1.0878
 Frc consts  --      5.6408                 6.0807                 6.1718
 IR Inten    --     16.9144                14.9004                33.2171

                     46                     47                     48
                      A                      A                      A
 Frequencies --   3110.0093              3113.6281              3117.6484
 Red. masses --      1.0990                 1.1008                 1.1017
 Frc consts  --      6.2630                 6.2878                 6.3089
 IR Inten    --     16.0681                14.1207                12.0615

                     49                     50                     51
                      A                      A                      A
 Frequencies --   3125.3211              3228.0090              3745.9947
 Red. masses --      1.0919                 1.0981                 1.0639
 Frc consts  --      6.2837                 6.7413                 8.7958
 IR Inten    --     34.7904                 5.1406                25.5628

 - Thermochemistry -
 -------------------
 Temperature   298.150 Kelvin.  Pressure   1.00000 Atm.
 Atom     1 has atomic number  6 and mass  12.00000

 Molecular mass:   126.06808 amu.
 Principal axes and moments of inertia in atomic units:
                           1         2         3
     Eigenvalues --   629.576061248.317521539.85742
           X            0.99892   0.04616   0.00574
           Y           -0.04592   0.99830  -0.03577
           Z           -0.00738   0.03546   0.99934
 This molecule is an asymmetric top.
 Rotational symmetry number  1.
 Warning -- assumption of classical behavior for rotation
           may cause significant error
 Rotational temperatures (Kelvin)      0.13757     0.06938     0.05625
 Rotational constants (GHZ):           2.86660     1.44574     1.17202
 Zero-point vibrational energy     414688.8 (Joules/Mol)
                                   99.11300 (Kcal/Mol)
 Warning -- explicit consideration of  12 degrees of freedom as
           vibrations may cause significant error
 Vibrational temperatures:    223.64   234.01   263.62   317.15   336.39
          (Kelvin)            392.14   515.70   618.62   716.14   782.29
                              815.89   850.73   934.10   999.11  1097.99
                             1170.63  1184.92  1253.50  1303.83  1320.88
                             1405.68  1483.25  1523.71  1573.99  1595.68
                             1630.46  1669.85  1709.04  1716.54  1794.15
                             1847.13  1879.89  1933.82  2033.44  2038.84
                             2061.66  2127.39  2131.66  2138.73  2142.90
                             2417.59  4343.02  4376.02  4409.89  4464.84
                             4474.60  4479.81  4485.60  4496.63  4644.38
                             5389.64

 Zero-point correction=                           0.157947 (Hartree/Particle)
 Thermal correction to Energy=                    0.166481
 Thermal correction to Enthalpy=                  0.167425
 Thermal correction to Gibbs Free Energy=         0.125375
 Sum of electronic and zero-point Energies=           -422.995908
 Sum of electronic and thermal Energies=              -422.987373
 Sum of electronic and thermal Enthalpies=            -422.986429
 Sum of electronic and thermal Free Energies=         -423.028479

                     E (Thermal)             CV                S
                      KCal/Mol        Cal/Mol-Kelvin    Cal/Mol-Kelvin
 Total                  104.468             33.476             88.502
 Electronic               0.000              0.000              0.000
 Translational            0.889              2.981             40.409
 Rotational               0.889              2.981             28.583
 Vibrational            102.691             27.514             19.510
 Vibration     1          0.620              1.897              2.605
 Vibration     2          0.623              1.888              2.519
 Vibration     3          0.631              1.863              2.295
 Vibration     4          0.647              1.810              1.956
 Vibration     5          0.654              1.789              1.850
 Vibration     6          0.676              1.724              1.580
 Vibration     7          0.733              1.558              1.129
 Vibration     8          0.791              1.405              0.859
 Vibration     9          0.853              1.255              0.664
 Vibration    10          0.899              1.153              0.557
 Vibration    11          0.923              1.102              0.510
 Vibration    12          0.949              1.050              0.465

 Optimization completed.
    -- Stationary point found.
 Normal termination of Gaussian 09 at Mon Jan 27 23:43:41 2020.
