 Gaussian 09, Revision D.01,
 Gaussian 09:  ES64L-G09RevD.01 24-Apr-2013

 -----------------------------
 # b3lyp 6-31G(2df,p) opt Freq
 -----------------------------

 -----
 titel
 -----
 Symbolic Z-matrix:
 Charge =  0 Multiplicity = 1

 SCF Done:  E(RB3LYP) =  -423.172267491     A.U. after   13 cycles
 Optimization completed.
    -- Stationary point found.
 Normal termination of Gaussian 09 at Mon Jan 27 16:27:37 2020.

 ----------------------------------------------------------------------
 #N Geom=AllCheck Guess=TCheck SCRF=Check GenChk RB3LYP/6-31G(2df,p) Fr
 eq
 ----------------------------------------------------------------------

 Structure from the checkpoint file:  "/scratch/puck/g09_57a6016f-a277-4b40-942e-3330f29e1ce4/Gau-57354.chk"
 -----
 titel
 -----
 Charge =  0 Multiplicity = 1

                         Standard orientation:
 ---------------------------------------------------------------------
 Center     Atomic      Atomic             Coordinates (Angstroms)
 Number     Number       Type             X           Y           Z
 ---------------------------------------------------------------------
      1          8           0       -1.072760    0.000001    1.510185
      2          6           0       -1.259587    0.000010    0.115446
      3          6           0       -2.412028   -0.761503   -0.482859
      4          6           0       -2.412042    0.761528   -0.482838
      5          6           0        0.080180    0.000032   -0.571436
      6          6           0        1.100430    1.105685   -0.141885
      7          6           0        2.158579   -0.000006   -0.018348
      8          8           0        3.353153   -0.000018    0.053438
      9          6           0        1.100414   -1.105671   -0.141983
     10          1           0       -1.930618   -0.000444    1.944264
     11          1           0       -2.268684   -1.281323   -1.424336
     12          1           0       -3.091653   -1.263945    0.198850
     13          1           0       -2.268713    1.281369   -1.424306
     14          1           0       -3.091660    1.263936    0.198899
     15          1           0       -0.071331    0.000084   -1.653239
     16          1           0        1.318682    1.917246   -0.839923
     17          1           0        0.853268    1.527391    0.837222
     18          1           0        1.318656   -1.917180   -0.840086
     19          1           0        0.853241   -1.527447    0.837091
 ---------------------------------------------------------------------

 SCF Done:  E(RB3LYP) =  -423.172267491     A.U. after    1 cycles

 The electronic state is 1-A.
 Alpha  occ. eigenvalues --  -19.15316 -19.12753 -10.26232 -10.24983 -10.20169
 Alpha  occ. eigenvalues --  -10.19353 -10.19330 -10.18430 -10.18429  -1.03960
 Alpha  occ. eigenvalues --   -1.03629  -0.86068  -0.83315  -0.67613  -0.66793
 Alpha  occ. eigenvalues --   -0.61454  -0.57820  -0.52427  -0.51668  -0.49290
 Alpha  occ. eigenvalues --   -0.46906  -0.44252  -0.43166  -0.40104  -0.39347
 Alpha  occ. eigenvalues --   -0.38538  -0.38328  -0.37819  -0.35926  -0.33251
 Alpha  occ. eigenvalues --   -0.32697  -0.29494  -0.24911  -0.23320
 Alpha virt. eigenvalues --   -0.01002   0.05616   0.09147   0.11179   0.12505
 Alpha virt. eigenvalues --    0.12527   0.13311   0.13509   0.15460   0.16392
 Alpha virt. eigenvalues --    0.19095   0.20269   0.21291   0.21318   0.21432

 Mulliken charges:
               1
     1  O   -0.474496
     2  C    0.423361
     3  C   -0.333080
     4  C   -0.333054
     5  C   -0.023751
     6  C   -0.359768
     7  C    0.398091
     8  O   -0.293957
     9  C   -0.359763
    10  H    0.284956
    11  H    0.119287
    12  H    0.110076
    13  H    0.119283
    14  H    0.110083
    15  H    0.077514
    16  H    0.121258
    17  H    0.146356
    18  H    0.121257
    19  H    0.146345
 Sum of Mulliken charges =   0.00000

 Dipole moment (field-independent basis, Debye):
    X=             -4.2942    Y=             -0.0006    Z=             -0.4597  Tot=              4.3188
 Quadrupole moment (field-independent basis, Debye-Ang):
   XX=            -62.9613   YY=            -51.9183   ZZ=            -50.0490
   XY=              0.0017   XZ=             -3.7985   YZ=             -0.0015

  Exact polarizability:  91.776   0.001  72.321   0.708   0.000  64.768
 Approx polarizability: 123.661   0.001 106.514   1.787  -0.001 100.094

                      1                      2                      3
                      A                      A                      A
 Frequencies --     56.8359                61.0260                96.3428
 Red. masses --      1.8196                 4.9946                 1.4858
 Frc consts  --      0.0035                 0.0110                 0.0081
 IR Inten    --     44.4462                 2.8729                43.5785

                      4                      5                      6
                      A                      A                      A
 Frequencies --    179.7246               245.5251               294.2836
 Red. masses --      2.7024                 3.4771                 3.8660
 Frc consts  --      0.0514                 0.1235                 0.1973
 IR Inten    --      0.4777                 6.9689                 2.7553

                      7                      8                      9
                      A                      A                      A
 Frequencies --    342.1548               417.4525               463.7914
 Red. masses --      2.5782                 2.0797                 2.6358
 Frc consts  --      0.1778                 0.2135                 0.3341
 IR Inten    --      5.2447                 1.7223                 6.5698

                     10                     11                     12
                      A                      A                      A
 Frequencies --    464.7845               541.2075               634.1950
 Red. masses --      4.0553                 2.6412                 2.7668
 Frc consts  --      0.5162                 0.4558                 0.6556
 IR Inten    --      0.7567                 0.0367                 5.2539

                     13                     14                     15
                      A                      A                      A
 Frequencies --    668.9086               718.9665               762.8913
 Red. masses --      1.4644                 3.5390                 1.1096
 Frc consts  --      0.3860                 1.0778                 0.3805
 IR Inten    --      0.1146                 2.0401                 1.3867

                     16                     17                     18
                      A                      A                      A
 Frequencies --    832.8866               874.8171               917.8620
 Red. masses --      2.6436                 1.5813                 3.0911
 Frc consts  --      1.0805                 0.7130                 1.5343
 IR Inten    --     23.9622                 0.4833                 9.7931

                     19                     20                     21
                      A                      A                      A
 Frequencies --    928.5832               952.7030               978.4674
 Red. masses --      1.5678                 2.9542                 1.7980
 Frc consts  --      0.7965                 1.5798                 1.0142
 IR Inten    --      0.2104                14.9252                 1.7834

                     22                     23                     24
                      A                      A                      A
 Frequencies --   1011.9123              1014.1775              1050.8989
 Red. masses --      2.0432                 2.1994                 1.8017
 Frc consts  --      1.2327                 1.3328                 1.1724
 IR Inten    --      9.2516                34.5992                18.7686

                     25                     26                     27
                      A                      A                      A
 Frequencies --   1055.1623              1065.9719              1111.5124
 Red. masses --      2.2212                 1.4635                 3.2467
 Frc consts  --      1.4571                 0.9798                 2.3633
 IR Inten    --      7.6485                 1.0366                41.3696

                     28                     29                     30
                      A                      A                      A
 Frequencies --   1169.6623              1183.6262              1193.3714
 Red. masses --      1.4570                 1.2875                 1.4414
 Frc consts  --      1.1745                 1.0628                 1.2095
 IR Inten    --     42.3762                 0.1448                12.8976

                     31                     32                     33
                      A                      A                      A
 Frequencies --   1194.5612              1238.3720              1252.7197
 Red. masses --      1.3558                 1.5583                 1.3637
 Frc consts  --      1.1399                 1.4080                 1.2608
 IR Inten    --      1.0733                 1.0019                 5.1501

                     34                     35                     36
                      A                      A                      A
 Frequencies --   1284.4207              1356.0569              1423.6713
 Red. masses --      2.3672                 1.6245                 1.0907
 Frc consts  --      2.3009                 1.7600                 1.3025
 IR Inten    --     90.9873                 6.6175                17.2965

                     37                     38                     39
                      A                      A                      A
 Frequencies --   1442.5450              1452.9093              1462.6715
 Red. masses --      1.2506                 1.5379                 1.0870
 Frc consts  --      1.5333                 1.9127                 1.3702
 IR Inten    --      8.3895                 3.2511                 1.7956

                     40                     41                     42
                      A                      A                      A
 Frequencies --   1503.8633              1894.0614              3061.8717
 Red. masses --      1.6157                12.5229                 1.0570
 Frc consts  --      2.1530                26.4693                 5.8386
 IR Inten    --     17.6382               307.9967                 9.1785

                     43                     44                     45
                      A                      A                      A
 Frequencies --   3066.7690              3081.2737              3122.1333
 Red. masses --      1.0592                 1.0871                 1.0513
 Frc consts  --      5.8695                 6.0810                 6.0377
 IR Inten    --      7.1282                11.9509                13.8656

                     46                     47                     48
                      A                      A                      A
 Frequencies --   3123.5768              3124.5594              3126.6163
 Red. masses --      1.1048                 1.1007                 1.0634
 Frc consts  --      6.3511                 6.3311                 6.1250
 IR Inten    --      9.3172                 9.6000                 6.6502

                     49                     50                     51
                      A                      A                      A
 Frequencies --   3201.4573              3216.1840              3837.6991
 Red. masses --      1.1179                 1.1151                 1.0663
 Frc consts  --      6.7509                 6.7961                 9.2530
 IR Inten    --      0.1194                16.6428                22.3460

 - Thermochemistry -
 -------------------
 Temperature   298.150 Kelvin.  Pressure   1.00000 Atm.
 Atom     1 has atomic number  8 and mass  15.99491

 Molecular mass:   126.06808 amu.
 Principal axes and moments of inertia in atomic units:
                           1         2         3
     Eigenvalues --   436.079921928.430821934.44331
           X            1.00000   0.00000   0.00224
           Y            0.00000   1.00000  -0.00033
           Z           -0.00224   0.00033   1.00000
 This molecule is an asymmetric top.
 Rotational symmetry number  1.
 Warning -- assumption of classical behavior for rotation
           may cause significant error
 Rotational temperatures (Kelvin)      0.19862     0.04491     0.04477
 Rotational constants (GHZ):           4.13856     0.93586     0.93295
 Zero-point vibrational energy     411262.4 (Joules/Mol)
                                   98.29406 (Kcal/Mol)
 Warning -- explicit consideration of  11 degrees of freedom as
           vibrations may cause significant error
 Vibrational temperatures:     81.77    87.80   138.62   258.58   353.26
          (Kelvin)            423.41   492.28   600.62   667.29   668.72
                              778.68   912.46   962.41  1034.43  1097.63
                             1198.34  1258.67  1320.60  1336.02  1370.73
                             1407.79  1455.91  1459.17  1512.01  1518.14
                             1533.69  1599.22  1682.88  1702.97  1716.99
                             1718.71  1781.74  1802.38  1847.99  1951.06
                             2048.34  2075.50  2090.41  2104.46  2163.72
                             2725.13  4405.35  4412.39  4433.26  4492.05
                             4494.12  4495.54  4498.50  4606.18  4627.37
                             5521.59

 Zero-point correction=                           0.156642 (Hartree/Particle)
 Thermal correction to Energy=                    0.165831
 Thermal correction to Enthalpy=                  0.166775
 Thermal correction to Gibbs Free Energy=         0.121916
 Sum of electronic and zero-point Energies=           -423.015626
 Sum of electronic and thermal Energies=              -423.006436
 Sum of electronic and thermal Enthalpies=            -423.005492
 Sum of electronic and thermal Free Energies=         -423.050351

                     E (Thermal)             CV                S
                      KCal/Mol        Cal/Mol-Kelvin    Cal/Mol-Kelvin
 Total                  104.061             34.186             94.414
 Electronic               0.000              0.000              0.000
 Translational            0.889              2.981             40.409
 Rotational               0.889              2.981             28.877
 Vibrational            102.283             28.224             25.129
 Vibration     1          0.596              1.975              4.564
 Vibration     2          0.597              1.973              4.424
 Vibration     3          0.603              1.952              3.527
 Vibration     4          0.629              1.867              2.331
 Vibration     5          0.660              1.770              1.762
 Vibration     6          0.689              1.684              1.449
 Vibration     7          0.721              1.591              1.202
 Vibration     8          0.780              1.432              0.901
 Vibration     9          0.821              1.330              0.755
 Vibration    10          0.822              1.328              0.752
 Vibration    11          0.896              1.159              0.563

 Optimization completed.
    -- Stationary point found.
 Normal termination of Gaussian 09 at Mon Jan 27 17:08:39 2020.
