 Gaussian 09, Revision D.01,
 Gaussian 09:  ES64L-G09RevD.01 24-Apr-2013

 -----------------------------
 # b3lyp 6-31G(2df,p) opt Freq
 -----------------------------

 -----
 titel
 -----
 Symbolic Z-matrix:
 Charge =  0 Multiplicity = 1

 SCF Done:  E(RB3LYP) =  -423.195307503     A.U. after   14 cycles
 Optimization completed.
    -- Stationary point found.
 Normal termination of Gaussian 09 at Mon Jan 27 13:48:31 2020.

 ----------------------------------------------------------------------
 #N Geom=AllCheck Guess=TCheck SCRF=Check GenChk RB3LYP/6-31G(2df,p) Fr
 eq
 ----------------------------------------------------------------------

 Structure from the checkpoint file:  "/scratch/puck/g09_760afa7e-50e0-4269-bc24-9f1caa8cb3e3/Gau-76051.chk"
 -----
 titel
 -----
 Charge =  0 Multiplicity = 1

                         Standard orientation:
 ---------------------------------------------------------------------
 Center     Atomic      Atomic             Coordinates (Angstroms)
 Number     Number       Type             X           Y           Z
 ---------------------------------------------------------------------
      1          8           0       -3.442296   -0.533234   -0.423060
      2          6           0       -2.630980   -0.009903    0.295229
      3          6           0       -1.468124    0.836978   -0.172758
      4          6           0       -0.124840    0.386104    0.436889
      5          6           0        0.286053   -1.003046   -0.076244
      6          8           0        1.597359   -1.336296    0.335422
      7          6           0        2.579238   -0.496062   -0.239506
      8          6           0        2.204161    0.959336   -0.207060
      9          6           0        0.981942    1.365202    0.127118
     10          1           0       -2.694043   -0.118387    1.404966
     11          1           0       -1.440337    0.832342   -1.266711
     12          1           0       -1.671538    1.867322    0.154581
     13          1           0       -0.254516    0.326723    1.528695
     14          1           0       -0.367344   -1.786626    0.319289
     15          1           0        0.206018   -1.021711   -1.176502
     16          1           0        3.498220   -0.666634    0.333862
     17          1           0        2.793327   -0.804287   -1.279992
     18          1           0        2.983628    1.670668   -0.466978
     19          1           0        0.741385    2.425170    0.167883
 ---------------------------------------------------------------------

 SCF Done:  E(RB3LYP) =  -423.195307503     A.U. after    1 cycles

 The electronic state is 1-A.
 Alpha  occ. eigenvalues --  -19.14411 -19.14323 -10.27554 -10.23680 -10.23328
 Alpha  occ. eigenvalues --  -10.20682 -10.20149 -10.19191 -10.19064  -1.05014
 Alpha  occ. eigenvalues --   -1.04027  -0.82891  -0.78303  -0.72951  -0.64969
 Alpha  occ. eigenvalues --   -0.63562  -0.58017  -0.53162  -0.51434  -0.49106
 Alpha  occ. eigenvalues --   -0.47101  -0.45559  -0.45044  -0.42581  -0.41481
 Alpha  occ. eigenvalues --   -0.40369  -0.39299  -0.37386  -0.37029  -0.35376
 Alpha  occ. eigenvalues --   -0.30968  -0.26402  -0.25615  -0.24853
 Alpha virt. eigenvalues --   -0.02620   0.01183   0.09017   0.09955   0.11121
 Alpha virt. eigenvalues --    0.12458   0.13336   0.14442   0.15111   0.15685
 Alpha virt. eigenvalues --    0.16356   0.17442   0.19228   0.21358   0.22374

 Mulliken charges:
               1
     1  O   -0.238511
     2  C    0.162036
     3  C   -0.296758
     4  C   -0.059943
     5  C   -0.085987
     6  O   -0.248187
     7  C   -0.117699
     8  C   -0.089151
     9  C   -0.059202
    10  H    0.072922
    11  H    0.125869
    12  H    0.121972
    13  H    0.095308
    14  H    0.114841
    15  H    0.095788
    16  H    0.120660
    17  H    0.100939
    18  H    0.096786
    19  H    0.088316
 Sum of Mulliken charges =   0.00000

 Dipole moment (field-independent basis, Debye):
    X=              1.9044    Y=              2.1091    Z=              0.4348  Tot=              2.8748
 Quadrupole moment (field-independent basis, Debye-Ang):
   XX=            -60.2633   YY=            -53.8804   ZZ=            -53.5598
   XY=             -1.8163   XZ=             -5.6743   YZ=              0.5198

  Exact polarizability: 102.541   1.768  71.126  -4.359   1.530  62.378
 Approx polarizability: 139.345   0.826 105.122  -3.372   4.414 101.167

                      1                      2                      3
                      A                      A                      A
 Frequencies --     54.2107                72.9300               120.9698
 Red. masses --      5.8696                 3.5921                 2.2885
 Frc consts  --      0.0102                 0.0113                 0.0197
 IR Inten    --      4.3328                 2.5889                 1.4551

                      4                      5                      6
                      A                      A                      A
 Frequencies --    189.7067               289.6041               318.5290
 Red. masses --      2.6144                 2.6580                 3.1685
 Frc consts  --      0.0554                 0.1313                 0.1894
 IR Inten    --      2.1044                 5.2010                 1.6194

                      7                      8                      9
                      A                      A                      A
 Frequencies --    340.4811               416.9712               495.0315
 Red. masses --      2.6026                 2.8698                 3.4399
 Frc consts  --      0.1778                 0.2940                 0.4967
 IR Inten    --      0.2435                 1.5312                 7.4703

                     10                     11                     12
                      A                      A                      A
 Frequencies --    537.2842               544.4624               698.3656
 Red. masses --      3.3407                 2.8689                 1.5802
 Frc consts  --      0.5682                 0.5011                 0.4541
 IR Inten    --      5.8752                10.7536                17.8708

                     13                     14                     15
                      A                      A                      A
 Frequencies --    755.5053               815.5594               895.5136
 Red. masses --      1.7872                 2.0354                 2.6358
 Frc consts  --      0.6010                 0.7977                 1.2454
 IR Inten    --      4.3763                 7.3439                10.1374

                     16                     17                     18
                      A                      A                      A
 Frequencies --    901.5994               956.7335               992.5634
 Red. masses --      3.1815                 2.1985                 1.4405
 Frc consts  --      1.5237                 1.1856                 0.8361
 IR Inten    --      6.4103                 9.3265                 5.1550

                     19                     20                     21
                      A                      A                      A
 Frequencies --   1002.5196              1019.2926              1036.2322
 Red. masses --      1.6684                 2.1981                 1.9709
 Frc consts  --      0.9879                 1.3456                 1.2469
 IR Inten    --      4.3504                12.2904                17.2982

                     22                     23                     24
                      A                      A                      A
 Frequencies --   1081.2485              1100.1505              1122.6792
 Red. masses --      2.2556                 3.2097                 2.3220
 Frc consts  --      1.5537                 2.2888                 1.7244
 IR Inten    --      9.3124                27.1385                 7.9407

                     25                     26                     27
                      A                      A                      A
 Frequencies --   1151.5243              1203.4557              1218.1007
 Red. masses --      2.9154                 1.2749                 1.3619
 Frc consts  --      2.2777                 1.0879                 1.1906
 IR Inten    --     64.0909                 7.2506                30.1532

                     28                     29                     30
                      A                      A                      A
 Frequencies --   1247.5186              1266.6208              1317.6037
 Red. masses --      1.1655                 1.2560                 1.2783
 Frc consts  --      1.0687                 1.1873                 1.3075
 IR Inten    --      3.8349                 0.5972                 1.4941

                     31                     32                     33
                      A                      A                      A
 Frequencies --   1339.2512              1355.0580              1373.4426
 Red. masses --      1.3379                 1.3585                 1.3364
 Frc consts  --      1.4138                 1.4697                 1.4853
 IR Inten    --      0.7771                11.4345                 1.6616

                     34                     35                     36
                      A                      A                      A
 Frequencies --   1409.1817              1427.0295              1428.6607
 Red. masses --      1.6194                 1.2817                 1.2717
 Frc consts  --      1.8947                 1.5378                 1.5292
 IR Inten    --      4.8241                 3.2879                 5.2474

                     37                     38                     39
                      A                      A                      A
 Frequencies --   1459.9607              1485.2465              1497.0004
 Red. masses --      1.0968                 1.0829                 1.0976
 Frc consts  --      1.3774                 1.4074                 1.4492
 IR Inten    --      7.2181                 0.8717                 3.0018

                     40                     41                     42
                      A                      A                      A
 Frequencies --   1723.2481              1836.7909              2843.0010
 Red. masses --      6.9850                10.2347                 1.0814
 Frc consts  --     12.2212                20.3445                 5.1497
 IR Inten    --      0.3302               186.3600               104.3887

                     43                     44                     45
                      A                      A                      A
 Frequencies --   2933.6039              2964.1898              2986.8570
 Red. masses --      1.0728                 1.0706                 1.0801
 Frc consts  --      5.4395                 5.5421                 5.6776
 IR Inten    --     62.4268                32.0718                37.4427

                     46                     47                     48
                      A                      A                      A
 Frequencies --   3010.4031              3050.9591              3080.6693
 Red. masses --      1.0652                 1.0867                 1.0934
 Frc consts  --      5.6877                 5.9596                 6.1138
 IR Inten    --     12.2123                29.5444                28.7644

                     49                     50                     51
                      A                      A                      A
 Frequencies --   3094.3172              3145.2355              3172.4851
 Red. masses --      1.0958                 1.0845                 1.0969
 Frc consts  --      6.1816                 6.3210                 6.5043
 IR Inten    --     15.6685                 8.4638                22.2865

 - Thermochemistry -
 -------------------
 Temperature   298.150 Kelvin.  Pressure   1.00000 Atm.
 Atom     1 has atomic number  8 and mass  15.99491

 Molecular mass:   126.06808 amu.
 Principal axes and moments of inertia in atomic units:
                           1         2         3
     Eigenvalues --   461.941021969.564862294.17134
           X            0.99991  -0.00308  -0.01286
           Y            0.00317   0.99997   0.00702
           Z            0.01284  -0.00706   0.99989
 This molecule is an asymmetric top.
 Rotational symmetry number  1.
 Warning -- assumption of classical behavior for rotation
           may cause significant error
 Rotational temperatures (Kelvin)      0.18750     0.04398     0.03775
 Rotational constants (GHZ):           3.90687     0.91631     0.78666
 Zero-point vibrational energy     417374.4 (Joules/Mol)
                                   99.75489 (Kcal/Mol)
 Warning -- explicit consideration of  11 degrees of freedom as
           vibrations may cause significant error
 Vibrational temperatures:     78.00   104.93   174.05   272.95   416.68
          (Kelvin)            458.29   489.88   599.93   712.24   773.03
                              783.36  1004.79  1087.00  1173.41  1288.44
                             1297.20  1376.52  1428.08  1442.40  1466.53
                             1490.91  1555.67  1582.87  1615.28  1656.78
                             1731.50  1752.57  1794.90  1822.38  1895.74
                             1926.88  1949.62  1976.08  2027.50  2053.17
                             2055.52  2100.56  2136.94  2153.85  2479.37
                             2642.73  4090.44  4220.80  4264.80  4297.42
                             4331.29  4389.64  4432.39  4452.03  4525.29
                             4564.49

 Zero-point correction=                           0.158970 (Hartree/Particle)
 Thermal correction to Energy=                    0.167606
 Thermal correction to Enthalpy=                  0.168550
 Thermal correction to Gibbs Free Energy=         0.124673
 Sum of electronic and zero-point Energies=           -423.036338
 Sum of electronic and thermal Energies=              -423.027702
 Sum of electronic and thermal Enthalpies=            -423.026757
 Sum of electronic and thermal Free Energies=         -423.070635

                     E (Thermal)             CV                S
                      KCal/Mol        Cal/Mol-Kelvin    Cal/Mol-Kelvin
 Total                  105.174             31.616             92.348
 Electronic               0.000              0.000              0.000
 Translational            0.889              2.981             40.409
 Rotational               0.889              2.981             29.125
 Vibrational            103.397             25.655             22.815
 Vibration     1          0.596              1.976              4.658
 Vibration     2          0.599              1.967              4.073
 Vibration     3          0.609              1.932              3.085
 Vibration     4          0.633              1.854              2.231
 Vibration     5          0.686              1.693              1.476
 Vibration     6          0.705              1.638              1.318
 Vibration     7          0.720              1.595              1.210
 Vibration     8          0.780              1.433              0.902
 Vibration     9          0.851              1.261              0.671
 Vibration    10          0.892              1.168              0.571
 Vibration    11          0.900              1.152              0.556

 Optimization completed.
    -- Stationary point found.
 Normal termination of Gaussian 09 at Mon Jan 27 14:27:32 2020.
