 Gaussian 09, Revision D.01,
 Gaussian 09:  ES64L-G09RevD.01 24-Apr-2013

 -----------------------------
 # b3lyp 6-31G(2df,p) opt Freq
 -----------------------------

 -----
 titel
 -----
 Symbolic Z-matrix:
 Charge =  0 Multiplicity = 1

 SCF Done:  E(RB3LYP) =  -423.134543350     A.U. after   13 cycles
 Optimization completed.
    -- Stationary point found.
 Normal termination of Gaussian 09 at Mon Jan 27 23:03:33 2020.

 ----------------------------------------------------------------------
 #N Geom=AllCheck Guess=TCheck SCRF=Check GenChk RB3LYP/6-31G(2df,p) Fr
 eq
 ----------------------------------------------------------------------

 Structure from the checkpoint file:  "/scratch/puck/g09_bf87738a-5c52-41f8-b89c-553a81645b02/Gau-195641.chk"
 -----
 titel
 -----
 Charge =  0 Multiplicity = 1

                         Standard orientation:
 ---------------------------------------------------------------------
 Center     Atomic      Atomic             Coordinates (Angstroms)
 Number     Number       Type             X           Y           Z
 ---------------------------------------------------------------------
      1          8           0       -2.569679    0.549498   -0.177665
      2          6           0       -1.177905    0.510393   -0.385815
      3          6           0       -0.658531   -0.943165   -0.659301
      4          6           0       -0.730676   -1.135543    0.881905
      5          6           0       -0.265774    0.344506    0.897716
      6          6           0        1.104970    0.333572    0.199851
      7          8           0        1.715413    1.564880   -0.046066
      8          6           0        1.892493   -0.946470    0.084566
      9          6           0        0.818951   -0.621773   -0.940184
     10          1           0       -2.802624    1.437281    0.110763
     11          1           0       -0.855026    1.282414   -1.095718
     12          1           0       -1.181666   -1.607751   -1.346433
     13          1           0       -1.763092   -1.225840    1.215333
     14          1           0       -0.117074   -1.898557    1.361057
     15          1           0       -0.375986    0.982751    1.776655
     16          1           0        2.203946    1.815629    0.745442
     17          1           0        2.901937   -0.800397   -0.286635
     18          1           0        1.797419   -1.764157    0.789258
     19          1           0        1.125127   -0.385506   -1.952300
 ---------------------------------------------------------------------

 SCF Done:  E(RB3LYP) =  -423.134543350     A.U. after    1 cycles

 The electronic state is 1-A.
 Alpha  occ. eigenvalues --  -19.14212 -19.13709 -10.23182 -10.22863 -10.18906
 Alpha  occ. eigenvalues --  -10.18693 -10.18269 -10.18227 -10.17594  -1.02849
 Alpha  occ. eigenvalues --   -1.02078  -0.89617  -0.79149  -0.67421  -0.65751
 Alpha  occ. eigenvalues --   -0.60608  -0.55688  -0.53408  -0.51555  -0.50258
 Alpha  occ. eigenvalues --   -0.49032  -0.45232  -0.42019  -0.39427  -0.38852
 Alpha  occ. eigenvalues --   -0.37273  -0.35289  -0.34443  -0.33414  -0.30432
 Alpha  occ. eigenvalues --   -0.29999  -0.27412  -0.24968  -0.23984
 Alpha virt. eigenvalues --    0.07941   0.08141   0.11325   0.11818   0.12675
 Alpha virt. eigenvalues --    0.13538   0.14876   0.15866   0.16704   0.17653
 Alpha virt. eigenvalues --    0.18650   0.19563   0.21336   0.21534   0.23624

 Mulliken charges:
               1
     1  O   -0.453699
     2  C    0.159863
     3  C   -0.053769
     4  C   -0.249889
     5  C   -0.148250
     6  C    0.405603
     7  O   -0.471923
     8  C   -0.379098
     9  C   -0.090780
    10  H    0.283863
    11  H    0.073937
    12  H    0.066326
    13  H    0.117952
    14  H    0.089441
    15  H    0.049932
    16  H    0.281361
    17  H    0.112335
    18  H    0.110505
    19  H    0.096291
 Sum of Mulliken charges =   0.00000

 Dipole moment (field-independent basis, Debye):
    X=              0.7019    Y=              0.8028    Z=              1.3720  Tot=              1.7377
 Quadrupole moment (field-independent basis, Debye-Ang):
   XX=            -52.9968   YY=            -51.0936   ZZ=            -51.6608
   XY=             -2.9325   XZ=              1.1979   YZ=              2.5843

  Exact polarizability:  83.219  -2.050  72.463   0.131   0.758  66.971
 Approx polarizability: 114.251  -1.491 110.383   2.377   2.236 105.301

                      1                      2                      3
                      A                      A                      A
 Frequencies --    189.5696               245.2077               286.7199
 Red. masses --      4.4421                 2.4032                 1.2933
 Frc consts  --      0.0941                 0.0851                 0.0626
 IR Inten    --      1.9455                11.9524                98.8669

                      4                      5                      6
                      A                      A                      A
 Frequencies --    305.7529               310.1275               382.4931
 Red. masses --      1.1247                 3.7567                 4.7461
 Frc consts  --      0.0620                 0.2129                 0.4091
 IR Inten    --     70.4810                17.5153                 4.4701

                      7                      8                      9
                      A                      A                      A
 Frequencies --    433.7287               474.6098               501.9393
 Red. masses --      2.7580                 2.4225                 3.2084
 Frc consts  --      0.3057                 0.3215                 0.4763
 IR Inten    --      5.1758                 5.6429                 5.8263

                     10                     11                     12
                      A                      A                      A
 Frequencies --    548.4638               595.1159               705.0683
 Red. masses --      3.7131                 2.9419                 3.1179
 Frc consts  --      0.6581                 0.6139                 0.9132
 IR Inten    --      9.3012                 3.0402                 2.5592

                     13                     14                     15
                      A                      A                      A
 Frequencies --    784.5844               849.3309               881.2469
 Red. masses --      2.8797                 2.6268                 1.8625
 Frc consts  --      1.0444                 1.1164                 0.8522
 IR Inten    --      0.2057                 9.0409                11.2232

                     16                     17                     18
                      A                      A                      A
 Frequencies --    893.1790               904.9039               912.4698
 Red. masses --      2.4272                 2.9927                 2.5445
 Frc consts  --      1.1409                 1.4438                 1.2482
 IR Inten    --     21.2240                 2.9791                 3.3793

                     19                     20                     21
                      A                      A                      A
 Frequencies --    934.9127               983.9950              1015.9719
 Red. masses --      1.6228                 1.9026                 1.8732
 Frc consts  --      0.8357                 1.0854                 1.1392
 IR Inten    --     12.8859                 7.8508                 0.7536

                     22                     23                     24
                      A                      A                      A
 Frequencies --   1018.4785              1044.3758              1066.3704
 Red. masses --      1.5636                 1.4443                 1.2909
 Frc consts  --      0.9556                 0.9281                 0.8649
 IR Inten    --      8.9252                12.6282                 5.4786

                     25                     26                     27
                      A                      A                      A
 Frequencies --   1070.8521              1084.1557              1117.0200
 Red. masses --      2.0989                 1.3888                 4.2719
 Frc consts  --      1.4181                 0.9617                 3.1405
 IR Inten    --     14.9120                 2.4535                81.8455

                     28                     29                     30
                      A                      A                      A
 Frequencies --   1131.7815              1177.3862              1216.6340
 Red. masses --      1.4627                 1.3326                 1.5370
 Frc consts  --      1.1039                 1.0884                 1.3404
 IR Inten    --      2.6807                14.2941                39.0723

                     31                     32                     33
                      A                      A                      A
 Frequencies --   1232.3912              1240.7909              1248.7340
 Red. masses --      1.7520                 1.5739                 1.8025
 Frc consts  --      1.5678                 1.4276                 1.6561
 IR Inten    --     33.3201                17.2213                72.7880

                     34                     35                     36
                      A                      A                      A
 Frequencies --   1274.0842              1295.1442              1315.0741
 Red. masses --      1.7246                 2.0374                 1.5309
 Frc consts  --      1.6494                 2.0136                 1.5599
 IR Inten    --      7.0599                43.5314                13.0929

                     37                     38                     39
                      A                      A                      A
 Frequencies --   1330.5972              1392.6792              1426.9974
 Red. masses --      1.5464                 1.8210                 1.3273
 Frc consts  --      1.6131                 2.0809                 1.5925
 IR Inten    --     33.2782                 9.2067                 5.4685

                     40                     41                     42
                      A                      A                      A
 Frequencies --   1481.6181              1522.5839              3025.6259
 Red. masses --      1.4200                 1.1132                 1.0860
 Frc consts  --      1.8366                 1.5204                 5.8576
 IR Inten    --      3.7321                 7.5384                50.4615

                     43                     44                     45
                      A                      A                      A
 Frequencies --   3089.7110              3098.2546              3119.2225
 Red. masses --      1.0704                 1.0783                 1.0897
 Frc consts  --      6.0207                 6.0983                 6.2466
 IR Inten    --     37.1015                46.1011                34.9005

                     46                     47                     48
                      A                      A                      A
 Frequencies --   3134.4457              3155.1828              3184.9089
 Red. masses --      1.0549                 1.1049                 1.0919
 Frc consts  --      6.1061                 6.4805                 6.5255
 IR Inten    --     16.0485                18.5127                 7.5344

                     49                     50                     51
                      A                      A                      A
 Frequencies --   3216.0351              3793.3046              3821.8163
 Red. masses --      1.1143                 1.0662                 1.0662
 Frc consts  --      6.7905                 9.0389                 9.1755
 IR Inten    --     11.5845                19.5384                28.2822

 - Thermochemistry -
 -------------------
 Temperature   298.150 Kelvin.  Pressure   1.00000 Atm.
 Atom     1 has atomic number  8 and mass  15.99491

 Molecular mass:   126.06808 amu.
 Principal axes and moments of inertia in atomic units:
                           1         2         3
     Eigenvalues --   583.676991182.682371392.14020
           X            0.99982  -0.01864  -0.00299
           Y            0.01862   0.99979  -0.00811
           Z            0.00314   0.00805   0.99996
 This molecule is an asymmetric top.
 Rotational symmetry number  1.
 Warning -- assumption of classical behavior for rotation
           may cause significant error
 Rotational temperatures (Kelvin)      0.14839     0.07324     0.06222
 Rotational constants (GHZ):           3.09202     1.52597     1.29638
 Zero-point vibrational energy     421478.2 (Joules/Mol)
                                  100.73570 (Kcal/Mol)
 Warning -- explicit consideration of  11 degrees of freedom as
           vibrations may cause significant error
 Vibrational temperatures:    272.75   352.80   412.53   439.91   446.20
          (Kelvin)            550.32   624.04   682.86   722.18   789.12
                              856.24  1014.43  1128.84  1222.00  1267.92
                             1285.08  1301.95  1312.84  1345.13  1415.75
                             1461.76  1465.36  1502.62  1534.27  1540.72
                             1559.86  1607.14  1628.38  1693.99  1750.46
                             1773.13  1785.22  1796.65  1833.12  1863.42
                             1892.10  1914.43  2003.75  2053.13  2131.72
                             2190.66  4353.20  4445.40  4457.69  4487.86
                             4509.76  4539.60  4582.37  4627.15  5457.71
                             5498.73

 Zero-point correction=                           0.160533 (Hartree/Particle)
 Thermal correction to Energy=                    0.168054
 Thermal correction to Enthalpy=                  0.168998
 Thermal correction to Gibbs Free Energy=         0.129247
 Sum of electronic and zero-point Energies=           -422.974011
 Sum of electronic and thermal Energies=              -422.966489
 Sum of electronic and thermal Enthalpies=            -422.965545
 Sum of electronic and thermal Free Energies=         -423.005296

                     E (Thermal)             CV                S
                      KCal/Mol        Cal/Mol-Kelvin    Cal/Mol-Kelvin
 Total                  105.456             31.547             83.664
 Electronic               0.000              0.000              0.000
 Translational            0.889              2.981             40.409
 Rotational               0.889              2.981             28.354
 Vibrational            103.678             25.585             14.901
 Vibration     1          0.633              1.854              2.232
 Vibration     2          0.660              1.771              1.765
 Vibration     3          0.684              1.698              1.493
 Vibration     4          0.696              1.663              1.385
 Vibration     5          0.699              1.654              1.362
 Vibration     6          0.752              1.508              1.029
 Vibration     7          0.794              1.397              0.847
 Vibration     8          0.831              1.306              0.725
 Vibration     9          0.857              1.246              0.653
 Vibration    10          0.904              1.143              0.547
 Vibration    11          0.953              1.042              0.458

 Normal termination of Gaussian 09 at Mon Jan 27 23:47:43 2020.
