 Gaussian 09, Revision D.01,
 Gaussian 09:  ES64L-G09RevD.01 24-Apr-2013

 -----------------------------
 # b3lyp 6-31G(2df,p) opt Freq
 -----------------------------

 -----
 titel
 -----
 Symbolic Z-matrix:
 Charge =  0 Multiplicity = 1

 SCF Done:  E(RB3LYP) =  -423.172368299     A.U. after   13 cycles
 Optimization completed.
    -- Stationary point found.
 Normal termination of Gaussian 09 at Tue Jan 28 00:03:08 2020.

 ----------------------------------------------------------------------
 #N Geom=AllCheck Guess=TCheck SCRF=Check GenChk RB3LYP/6-31G(2df,p) Fr
 eq
 ----------------------------------------------------------------------

 Structure from the checkpoint file:  "/scratch/puck/g09_9736ae5e-61e3-482b-8baa-470d64b8a651/Gau-184671.chk"
 -----
 titel
 -----
 Charge =  0 Multiplicity = 1

                         Standard orientation:
 ---------------------------------------------------------------------
 Center     Atomic      Atomic             Coordinates (Angstroms)
 Number     Number       Type             X           Y           Z
 ---------------------------------------------------------------------
      1          8           0        1.958572   -1.229859   -0.149633
      2          6           0        0.575890   -0.968651   -0.140601
      3          6           0        0.094567    0.126786   -1.132315
      4          6           0        0.863718    1.329246   -0.537627
      5          8           0        0.898662    1.055562    0.888784
      6          6           0        0.114159   -0.150843    1.079380
      7          6           0       -1.338714    0.195350    0.797897
      8          6           0       -2.170882   -0.727105   -0.061149
      9          6           0       -1.360656    0.359490   -0.720374
     10          1           0        2.378161   -0.499932    0.323471
     11          1           0        0.078056   -1.927421   -0.273797
     12          1           0        0.290084   -0.062929   -2.188101
     13          1           0        1.892226    1.397885   -0.908937
     14          1           0        0.359004    2.284154   -0.719313
     15          1           0        0.358395   -0.549171    2.064666
     16          1           0       -1.828192    0.899913    1.459919
     17          1           0       -1.925278   -1.776452   -0.170121
     18          1           0       -3.239583   -0.542825   -0.027837
     19          1           0       -1.889229    1.185527   -1.184414
 ---------------------------------------------------------------------

 SCF Done:  E(RB3LYP) =  -423.172368299     A.U. after    1 cycles

 The electronic state is 1-A.
 Alpha  occ. eigenvalues --  -19.14128 -19.13432 -10.23338 -10.23032 -10.22767
 Alpha  occ. eigenvalues --  -10.19705 -10.19369 -10.19329 -10.19281  -1.04728
 Alpha  occ. eigenvalues --   -1.00545  -0.88137  -0.76392  -0.73499  -0.63454
 Alpha  occ. eigenvalues --   -0.62087  -0.57249  -0.54309  -0.53829  -0.50679
 Alpha  occ. eigenvalues --   -0.48325  -0.45930  -0.41896  -0.41221  -0.39760
 Alpha  occ. eigenvalues --   -0.38343  -0.37557  -0.36175  -0.34001  -0.32734
 Alpha  occ. eigenvalues --   -0.29696  -0.27741  -0.26260  -0.24696
 Alpha virt. eigenvalues --    0.08564   0.08989   0.10805   0.11397   0.13514
 Alpha virt. eigenvalues --    0.13888   0.14468   0.15161   0.15665   0.16345
 Alpha virt. eigenvalues --    0.17522   0.19255   0.20531   0.21313   0.22948

 Mulliken charges:
               1
     1  O   -0.467601
     2  C    0.150880
     3  C   -0.096466
     4  C   -0.090110
     5  O   -0.304469
     6  C    0.045504
     7  C   -0.036766
     8  C   -0.331811
     9  C   -0.024764
    10  H    0.291442
    11  H    0.085676
    12  H    0.073895
    13  H    0.101146
    14  H    0.102591
    15  H    0.079204
    16  H    0.095938
    17  H    0.119837
    18  H    0.114835
    19  H    0.091039
 Sum of Mulliken charges =   0.00000

 Dipole moment (field-independent basis, Debye):
    X=             -1.5421    Y=              0.5746    Z=             -0.4399  Tot=              1.7034
 Quadrupole moment (field-independent basis, Debye-Ang):
   XX=            -52.7880   YY=            -54.8467   ZZ=            -52.9617
   XY=              2.0059   XZ=             -0.0488   YZ=             -2.8250

  Exact polarizability:  80.934   2.951  69.697  -1.065  -2.519  67.277
 Approx polarizability: 112.160   4.462 106.662   0.244  -1.439 106.691

                      1                      2                      3
                      A                      A                      A
 Frequencies --    245.2961               262.7321               327.0248
 Red. masses --      4.7578                 2.7076                 4.3943
 Frc consts  --      0.1687                 0.1101                 0.2769
 IR Inten    --      5.9133                 6.4545                 5.3470

                      4                      5                      6
                      A                      A                      A
 Frequencies --    331.8950               370.1043               488.6791
 Red. masses --      2.7374                 3.2715                 1.1832
 Frc consts  --      0.1777                 0.2640                 0.1665
 IR Inten    --      2.3582                 3.1539                55.9090

                      7                      8                      9
                      A                      A                      A
 Frequencies --    511.5529               566.5240               610.8915
 Red. masses --      2.8478                 3.7693                 3.9763
 Frc consts  --      0.4391                 0.7128                 0.8743
 IR Inten    --      8.8791                 0.9805                 1.3408

                     10                     11                     12
                      A                      A                      A
 Frequencies --    761.7791               792.7442               819.0327
 Red. masses --      2.8657                 3.3165                 1.6866
 Frc consts  --      0.9798                 1.2280                 0.6666
 IR Inten    --     21.5888                 5.2727                13.5291

                     13                     14                     15
                      A                      A                      A
 Frequencies --    830.7402               881.4166               885.5194
 Red. masses --      3.8462                 1.9881                 2.6385
 Frc consts  --      1.5639                 0.9100                 1.2190
 IR Inten    --      8.1165                 6.9220                20.1215

                     16                     17                     18
                      A                      A                      A
 Frequencies --    895.6827               909.3214               970.3437
 Red. masses --      1.9937                 3.5161                 2.2250
 Frc consts  --      0.9424                 1.7130                 1.2343
 IR Inten    --      8.0405                 6.6977                 3.0210

                     19                     20                     21
                      A                      A                      A
 Frequencies --    973.9055              1012.5129              1026.3154
 Red. masses --      2.6335                 3.0791                 1.9607
 Frc consts  --      1.4717                 1.8598                 1.2168
 IR Inten    --     19.2156                31.0397                19.3665

                     22                     23                     24
                      A                      A                      A
 Frequencies --   1042.5609              1057.9720              1078.6973
 Red. masses --      1.6622                 1.2450                 1.5203
 Frc consts  --      1.0645                 0.8211                 1.0423
 IR Inten    --      6.0000                 2.8950                10.5144

                     25                     26                     27
                      A                      A                      A
 Frequencies --   1082.1241              1119.9603              1139.2062
 Red. masses --      1.5086                 1.4005                 2.6469
 Frc consts  --      1.0408                 1.0350                 2.0239
 IR Inten    --      8.2596                 6.6666               105.8004

                     28                     29                     30
                      A                      A                      A
 Frequencies --   1179.2366              1197.3469              1220.2389
 Red. masses --      1.4650                 1.6839                 1.4642
 Frc consts  --      1.2003                 1.4224                 1.2845
 IR Inten    --      9.2106                 3.9483                 4.1616

                     31                     32                     33
                      A                      A                      A
 Frequencies --   1246.2952              1270.7078              1290.3217
 Red. masses --      1.4614                 1.4547                 1.7905
 Frc consts  --      1.3374                 1.3839                 1.7564
 IR Inten    --     11.5375                 7.6239                 7.5549

                     34                     35                     36
                      A                      A                      A
 Frequencies --   1296.7795              1327.2332              1340.9827
 Red. masses --      1.2241                 1.5513                 1.6703
 Frc consts  --      1.2128                 1.6100                 1.7696
 IR Inten    --      0.9951                17.8990                10.0288

                     37                     38                     39
                      A                      A                      A
 Frequencies --   1363.2894              1391.9069              1450.6790
 Red. masses --      1.5807                 1.7146                 1.2980
 Frc consts  --      1.7309                 1.9572                 1.6094
 IR Inten    --      0.7516                 1.0886                44.7739

                     40                     41                     42
                      A                      A                      A
 Frequencies --   1504.4203              1523.1703              3031.2419
 Red. masses --      1.1809                 1.0891                 1.0563
 Frc consts  --      1.5747                 1.4887                 5.7185
 IR Inten    --      7.1132                 1.0698                60.8081

                     43                     44                     45
                      A                      A                      A
 Frequencies --   3072.5758              3112.7813              3116.1602
 Red. masses --      1.1103                 1.0873                 1.0879
 Frc consts  --      6.1760                 6.2071                 6.2243
 IR Inten    --     31.9384                33.8012                24.5108

                     46                     47                     48
                      A                      A                      A
 Frequencies --   3128.0731              3142.3667              3160.7922
 Red. masses --      1.0819                 1.0622                 1.0898
 Frc consts  --      6.2372                 6.1800                 6.4147
 IR Inten    --      6.2009                30.4188                17.5261

                     49                     50                     51
                      A                      A                      A
 Frequencies --   3181.1323              3217.4938              3771.4647
 Red. masses --      1.0932                 1.1136                 1.0650
 Frc consts  --      6.5177                 6.7920                 8.9249
 IR Inten    --     10.6450                12.4749                27.5149

 - Thermochemistry -
 -------------------
 Temperature   298.150 Kelvin.  Pressure   1.00000 Atm.
 Atom     1 has atomic number  8 and mass  15.99491

 Molecular mass:   126.06808 amu.
 Principal axes and moments of inertia in atomic units:
                           1         2         3
     Eigenvalues --   623.684771044.400951141.10250
           X            0.99962   0.02550  -0.01011
           Y           -0.02655   0.99202  -0.12325
           Z            0.00689   0.12347   0.99232
 This molecule is an asymmetric top.
 Rotational symmetry number  1.
 Warning -- assumption of classical behavior for rotation
           may cause significant error
 Rotational temperatures (Kelvin)      0.13887     0.08293     0.07590
 Rotational constants (GHZ):           2.89368     1.72802     1.58158
 Zero-point vibrational energy     427851.7 (Joules/Mol)
                                  102.25902 (Kcal/Mol)
 Warning -- explicit consideration of   9 degrees of freedom as
           vibrations may cause significant error
 Vibrational temperatures:    352.93   378.01   470.52   477.52   532.50
          (Kelvin)            703.10   736.01   815.10   878.94  1096.03
                             1140.58  1178.40  1195.25  1268.16  1274.06
                             1288.69  1308.31  1396.11  1401.23  1456.78
                             1476.64  1500.01  1522.18  1552.00  1556.93
                             1611.37  1639.06  1696.66  1722.71  1755.65
                             1793.14  1828.26  1856.48  1865.77  1909.59
                             1929.37  1961.47  2002.64  2087.20  2164.52
                             2191.50  4361.28  4420.75  4478.59  4483.45
                             4500.59  4521.16  4547.67  4576.93  4629.25
                             5426.29

 Zero-point correction=                           0.162960 (Hartree/Particle)
 Thermal correction to Energy=                    0.169641
 Thermal correction to Enthalpy=                  0.170586
 Thermal correction to Gibbs Free Energy=         0.132416
 Sum of electronic and zero-point Energies=           -423.009408
 Sum of electronic and thermal Energies=              -423.002727
 Sum of electronic and thermal Enthalpies=            -423.001783
 Sum of electronic and thermal Free Energies=         -423.039952

                     E (Thermal)             CV                S
                      KCal/Mol        Cal/Mol-Kelvin    Cal/Mol-Kelvin
 Total                  106.452             28.764             80.335
 Electronic               0.000              0.000              0.000
 Translational            0.889              2.981             40.409
 Rotational               0.889              2.981             28.099
 Vibrational            104.674             22.802             11.827
 Vibration     1          0.660              1.771              1.764
 Vibration     2          0.670              1.741              1.644
 Vibration     3          0.711              1.621              1.275
 Vibration     4          0.714              1.612              1.251
 Vibration     5          0.742              1.534              1.079
 Vibration     6          0.845              1.275              0.687
 Vibration     7          0.867              1.224              0.630
 Vibration     8          0.922              1.104              0.511
 Vibration     9          0.970              1.009              0.431

 Optimization completed.
    -- Stationary point found.
 Normal termination of Gaussian 09 at Tue Jan 28 00:54:46 2020.
