 Gaussian 09, Revision D.01,
 Gaussian 09:  ES64L-G09RevD.01 24-Apr-2013

 -----------------------------
 # b3lyp 6-31G(2df,p) opt Freq
 -----------------------------

 -----
 titel
 -----
 Symbolic Z-matrix:
 Charge =  0 Multiplicity = 1

 SCF Done:  E(RB3LYP) =  -423.228300044     A.U. after   14 cycles
 Optimization completed.
    -- Stationary point found.
 Normal termination of Gaussian 09 at Tue Jan 28 09:20:12 2020.

 ----------------------------------------------------------------------
 #N Geom=AllCheck Guess=TCheck SCRF=Check GenChk RB3LYP/6-31G(2df,p) Fr
 eq
 ----------------------------------------------------------------------

 Structure from the checkpoint file:  "/scratch/puck/g09_3b43a123-7d67-476c-9e57-939971920ff3/Gau-84127.chk"
 -----
 titel
 -----
 Charge =  0 Multiplicity = 1

                         Standard orientation:
 ---------------------------------------------------------------------
 Center     Atomic      Atomic             Coordinates (Angstroms)
 Number     Number       Type             X           Y           Z
 ---------------------------------------------------------------------
      1          6           0       -3.109142    0.251384    0.010776
      2          6           0       -1.901425   -0.332712   -0.734429
      3          6           0       -0.595335   -0.138171    0.002314
      4          6           0       -0.140509   -1.096334    1.060888
      5          6           0        0.640641   -0.975489   -0.239751
      6          6           0        1.810999   -0.050259   -0.168235
      7          8           0        2.963414   -0.271322   -0.400694
      8          8           0        1.373657    1.186021    0.234151
      9          6           0       -0.057652    1.279065    0.182964
     10          1           0       -3.219067   -0.203560    1.000459
     11          1           0       -3.010311    1.333195    0.150578
     12          1           0       -4.033492    0.075177   -0.546821
     13          1           0       -2.057358   -1.405196   -0.900019
     14          1           0       -1.825947    0.124543   -1.729688
     15          1           0        0.313035   -0.719716    1.972546
     16          1           0       -0.710382   -2.011180    1.182876
     17          1           0        0.692286   -1.811902   -0.923506
     18          1           0       -0.396562    1.760295    1.105473
     19          1           0       -0.334227    1.915848   -0.666721
 ---------------------------------------------------------------------

 SCF Done:  E(RB3LYP) =  -423.228300044     A.U. after    1 cycles

 The electronic state is 1-A.
 Alpha  occ. eigenvalues --  -19.17606 -19.11770 -10.30061 -10.25074 -10.22035
 Alpha  occ. eigenvalues --  -10.21092 -10.20933 -10.20387 -10.19012  -1.09470
 Alpha  occ. eigenvalues --   -1.01683  -0.89170  -0.78172  -0.72811  -0.65772
 Alpha  occ. eigenvalues --   -0.65160  -0.58754  -0.55563  -0.51674  -0.48646
 Alpha  occ. eigenvalues --   -0.47176  -0.46217  -0.43769  -0.42147  -0.41492
 Alpha  occ. eigenvalues --   -0.40558  -0.39233  -0.37963  -0.36372  -0.33683
 Alpha  occ. eigenvalues --   -0.31190  -0.30406  -0.29107  -0.25895
 Alpha virt. eigenvalues --    0.01237   0.07169   0.08856   0.10049   0.11795
 Alpha virt. eigenvalues --    0.12080   0.13735   0.14395   0.14908   0.15970
 Alpha virt. eigenvalues --    0.17112   0.18470   0.18563   0.20019   0.20995

 Mulliken charges:
               1
     1  C   -0.381357
     2  C   -0.286147
     3  C    0.339905
     4  C   -0.327885
     5  C   -0.267498
     6  C    0.459466
     7  O   -0.346567
     8  O   -0.235904
     9  C   -0.142961
    10  H    0.123577
    11  H    0.122339
    12  H    0.120997
    13  H    0.104914
    14  H    0.106449
    15  H    0.131367
    16  H    0.124456
    17  H    0.116778
    18  H    0.122348
    19  H    0.115723
 Sum of Mulliken charges =   0.00000

 Dipole moment (field-independent basis, Debye):
    X=             -4.7846    Y=             -0.4996    Z=              0.2645  Tot=              4.8179
 Quadrupole moment (field-independent basis, Debye-Ang):
   XX=            -65.7995   YY=            -51.5873   ZZ=            -51.5075
   XY=             -0.4836   XZ=              1.7085   YZ=             -0.2866

  Exact polarizability:  90.984  -3.921  71.153  -2.388  -0.146  63.984
 Approx polarizability: 124.892  -7.802 107.529  -6.885   0.813  98.835

                      1                      2                      3
                      A                      A                      A
 Frequencies --     81.4973               119.4005               180.1866
 Red. masses --      2.7805                 3.8206                 3.2989
 Frc consts  --      0.0109                 0.0321                 0.0631
 IR Inten    --      1.3487                 2.3565                 0.8091

                      4                      5                      6
                      A                      A                      A
 Frequencies --    203.7196               243.5623               337.2092
 Red. masses --      1.5388                 1.8148                 2.6861
 Frc consts  --      0.0376                 0.0634                 0.1800
 IR Inten    --      0.8205                 1.5300                 1.0505

                      7                      8                      9
                      A                      A                      A
 Frequencies --    374.9852               377.2060               493.4069
 Red. masses --      2.3317                 2.4795                 5.0224
 Frc consts  --      0.1932                 0.2079                 0.7204
 IR Inten    --      2.0295                 1.8734                 1.8601

                     10                     11                     12
                      A                      A                      A
 Frequencies --    594.6792               668.9406               725.3156
 Red. masses --      3.4026                 4.6841                 6.0111
 Frc consts  --      0.7090                 1.2350                 1.8632
 IR Inten    --      1.3746                 2.0465                 2.7013

                     13                     14                     15
                      A                      A                      A
 Frequencies --    773.7160               787.2381               819.3590
 Red. masses --      2.3402                 1.2581                 3.4673
 Frc consts  --      0.8254                 0.4594                 1.3715
 IR Inten    --      0.8706                 2.3565                10.5044

                     16                     17                     18
                      A                      A                      A
 Frequencies --    898.6265               921.3357               959.4166
 Red. masses --      2.6027                 1.8002                 1.5943
 Frc consts  --      1.2383                 0.9004                 0.8646
 IR Inten    --      9.7615                 9.6797                17.5827

                     19                     20                     21
                      A                      A                      A
 Frequencies --    979.7324               993.1694              1044.6019
 Red. masses --      3.2748                 1.7173                 2.7912
 Frc consts  --      1.8520                 0.9980                 1.7945
 IR Inten    --      4.9272                29.7596                40.9238

                     22                     23                     24
                      A                      A                      A
 Frequencies --   1053.2604              1066.6208              1078.0300
 Red. masses --      1.7932                 1.7510                 1.3977
 Frc consts  --      1.1720                 1.1737                 0.9570
 IR Inten    --     24.8677                36.2977                11.5530

                     25                     26                     27
                      A                      A                      A
 Frequencies --   1092.5152              1131.4367              1176.5741
 Red. masses --      2.0958                 1.9730                 2.4640
 Frc consts  --      1.4739                 1.4881                 2.0097
 IR Inten    --     11.9426                13.3655                75.9815

                     28                     29                     30
                      A                      A                      A
 Frequencies --   1225.9258              1249.5503              1264.4342
 Red. masses --      1.3117                 1.3633                 1.7219
 Frc consts  --      1.1615                 1.2541                 1.6220
 IR Inten    --      3.1301                 3.3665                 3.7388

                     31                     32                     33
                      A                      A                      A
 Frequencies --   1342.0838              1358.1866              1381.9937
 Red. masses --      1.8243                 1.5496                 1.8804
 Frc consts  --      1.9360                 1.6841                 2.1160
 IR Inten    --      9.0627                 9.2159                20.5510

                     34                     35                     36
                      A                      A                      A
 Frequencies --   1411.7450              1421.8047              1481.5167
 Red. masses --      1.2532                 1.7121                 1.1095
 Frc consts  --      1.4716                 2.0392                 1.4349
 IR Inten    --      1.8314                 1.1062                 1.7934

                     37                     38                     39
                      A                      A                      A
 Frequencies --   1494.4681              1499.1186              1506.8327
 Red. masses --      1.2642                 1.0511                 1.0816
 Frc consts  --      1.6636                 1.3918                 1.4469
 IR Inten    --      4.7741                 4.1561                 3.7580

                     40                     41                     42
                      A                      A                      A
 Frequencies --   1519.6816              1883.0162              3020.5332
 Red. masses --      1.0959                12.6351                 1.0617
 Frc consts  --      1.4912                26.3960                 5.7074
 IR Inten    --      0.9216               447.4352                20.6934

                     43                     44                     45
                      A                      A                      A
 Frequencies --   3026.9566              3036.4454              3058.4373
 Red. masses --      1.0617                 1.0358                 1.1000
 Frc consts  --      5.7312                 5.6267                 6.0625
 IR Inten    --     42.5157                22.8688                13.0441

                     46                     47                     48
                      A                      A                      A
 Frequencies --   3081.0022              3104.1559              3112.0180
 Red. masses --      1.1033                 1.1017                 1.1017
 Frc consts  --      6.1707                 6.2544                 6.2861
 IR Inten    --     23.5432                34.8791                29.0695

                     49                     50                     51
                      A                      A                      A
 Frequencies --   3126.9100              3210.0560              3218.1491
 Red. masses --      1.0541                 1.1009                 1.1085
 Frc consts  --      6.0727                 6.6837                 6.7640
 IR Inten    --      9.2946                 1.3951                 4.8123

 - Thermochemistry -
 -------------------
 Temperature   298.150 Kelvin.  Pressure   1.00000 Atm.
 Atom     1 has atomic number  6 and mass  12.00000

 Molecular mass:   126.06808 amu.
 Principal axes and moments of inertia in atomic units:
                           1         2         3
     Eigenvalues --   456.818341642.859581829.21039
           X            0.99996  -0.00673   0.00621
           Y            0.00679   0.99994  -0.00890
           Z           -0.00615   0.00894   0.99994
 This molecule is an asymmetric top.
 Rotational symmetry number  1.
 Warning -- assumption of classical behavior for rotation
           may cause significant error
 Rotational temperatures (Kelvin)      0.18960     0.05272     0.04735
 Rotational constants (GHZ):           3.95068     1.09854     0.98662
 Zero-point vibrational energy     419953.6 (Joules/Mol)
                                  100.37132 (Kcal/Mol)
 Warning -- explicit consideration of  10 degrees of freedom as
           vibrations may cause significant error
 Vibrational temperatures:    117.26   171.79   259.25   293.11   350.43
          (Kelvin)            485.17   539.52   542.71   709.90   855.61
                              962.46  1043.57  1113.20  1132.66  1178.87
                             1292.92  1325.59  1380.38  1409.61  1428.95
                             1502.95  1515.40  1534.63  1551.04  1571.88
                             1627.88  1692.83  1763.83  1797.82  1819.24
                             1930.96  1954.13  1988.38  2031.18  2045.66
                             2131.57  2150.20  2156.89  2167.99  2186.48
                             2709.24  4345.87  4355.11  4368.76  4400.40
                             4432.87  4466.18  4477.49  4498.92  4618.55
                             4630.19

 Zero-point correction=                           0.159952 (Hartree/Particle)
 Thermal correction to Energy=                    0.168316
 Thermal correction to Enthalpy=                  0.169260
 Thermal correction to Gibbs Free Energy=         0.126826
 Sum of electronic and zero-point Energies=           -423.068348
 Sum of electronic and thermal Energies=              -423.059984
 Sum of electronic and thermal Enthalpies=            -423.059040
 Sum of electronic and thermal Free Energies=         -423.101474

                     E (Thermal)             CV                S
                      KCal/Mol        Cal/Mol-Kelvin    Cal/Mol-Kelvin
 Total                  105.620             31.633             89.310
 Electronic               0.000              0.000              0.000
 Translational            0.889              2.981             40.409
 Rotational               0.889              2.981             28.708
 Vibrational            103.842             25.671             20.193
 Vibration     1          0.600              1.962              3.854
 Vibration     2          0.609              1.933              3.110
 Vibration     3          0.629              1.867              2.326
 Vibration     4          0.639              1.835              2.099
 Vibration     5          0.659              1.773              1.777
 Vibration     6          0.718              1.601              1.225
 Vibration     7          0.746              1.523              1.059
 Vibration     8          0.748              1.519              1.050
 Vibration     9          0.849              1.265              0.675
 Vibration    10          0.952              1.043              0.459

 Optimization completed.
    -- Stationary point found.
 Normal termination of Gaussian 09 at Tue Jan 28 10:08:10 2020.
