 Gaussian 09, Revision D.01,
 Gaussian 09:  ES64L-G09RevD.01 24-Apr-2013

 -----------------------------
 # b3lyp 6-31G(2df,p) opt Freq
 -----------------------------

 -----
 titel
 -----
 Symbolic Z-matrix:
 Charge =  0 Multiplicity = 1

 SCF Done:  E(RB3LYP) =  -423.162564978     A.U. after   14 cycles
 Optimization completed.
    -- Stationary point found.
 Normal termination of Gaussian 09 at Mon Jan 27 14:13:19 2020.

 ----------------------------------------------------------------------
 #N Geom=AllCheck Guess=TCheck SCRF=Check GenChk RB3LYP/6-31G(2df,p) Fr
 eq
 ----------------------------------------------------------------------

 Structure from the checkpoint file:  "/scratch/puck/g09_4170bb99-0585-4942-9b2c-1b9118c42b0b/Gau-4619.chk"
 -----
 titel
 -----
 Charge =  0 Multiplicity = 1

                         Standard orientation:
 ---------------------------------------------------------------------
 Center     Atomic      Atomic             Coordinates (Angstroms)
 Number     Number       Type             X           Y           Z
 ---------------------------------------------------------------------
      1          6           0        2.048303   -1.217439   -0.361493
      2          6           0        1.406882    0.005313    0.251574
      3          8           0        1.959525    0.703137    1.071046
      4          6           0       -0.019271    0.373140   -0.196188
      5          6           0       -0.016685    1.730150   -0.881288
      6          8           0       -0.611304   -0.686774   -1.012686
      7          6           0       -1.474397   -1.061946    0.066941
      8          6           0       -2.428108    0.039642    0.391024
      9          6           0       -1.015016    0.082926    0.938239
     10          1           0        1.997357   -1.171433   -1.453729
     11          1           0        3.082737   -1.292113   -0.024211
     12          1           0        1.493801   -2.116024   -0.072151
     13          1           0        0.536883    1.679977   -1.824982
     14          1           0       -1.034263    2.059981   -1.100898
     15          1           0        0.469495    2.461696   -0.231460
     16          1           0       -1.627649   -2.118669    0.250980
     17          1           0       -2.755693    0.716444   -0.392175
     18          1           0       -3.180126   -0.197966    1.137456
     19          1           0       -0.778568    0.136483    1.991424
 ---------------------------------------------------------------------

 SCF Done:  E(RB3LYP) =  -423.162564979     A.U. after    1 cycles

 The electronic state is 1-A.
 Alpha  occ. eigenvalues --  -19.14611 -19.13179 -10.26976 -10.25149 -10.24664
 Alpha  occ. eigenvalues --  -10.20387 -10.19725 -10.18593 -10.18220  -1.06219
 Alpha  occ. eigenvalues --   -1.04022  -0.83968  -0.77437  -0.73774  -0.66308
 Alpha  occ. eigenvalues --   -0.60463  -0.58201  -0.52865  -0.49781  -0.49509
 Alpha  occ. eigenvalues --   -0.45776  -0.45511  -0.42918  -0.42005  -0.41053
 Alpha  occ. eigenvalues --   -0.40501  -0.37980  -0.37486  -0.35833  -0.34436
 Alpha  occ. eigenvalues --   -0.32028  -0.29207  -0.26088  -0.23206
 Alpha virt. eigenvalues --   -0.01701   0.07854   0.09685   0.10974   0.11345
 Alpha virt. eigenvalues --    0.12742   0.13804   0.15570   0.15671   0.16095
 Alpha virt. eigenvalues --    0.17495   0.18007   0.19528   0.20042   0.21831

 Mulliken charges:
               1
     1  C   -0.475378
     2  C    0.339569
     3  O   -0.316887
     4  C    0.303110
     5  C   -0.444326
     6  O   -0.330617
     7  C    0.097364
     8  C   -0.317688
     9  C   -0.145308
    10  H    0.149233
    11  H    0.135198
    12  H    0.148251
    13  H    0.126965
    14  H    0.122020
    15  H    0.147435
    16  H    0.105704
    17  H    0.120475
    18  H    0.119996
    19  H    0.114884
 Sum of Mulliken charges =   0.00000

 Dipole moment (field-independent basis, Debye):
    X=             -1.4854    Y=             -0.9880    Z=             -0.2227  Tot=              1.7979
 Quadrupole moment (field-independent basis, Debye-Ang):
   XX=            -53.5435   YY=            -51.4846   ZZ=            -55.2457
   XY=             -2.4885   XZ=             -5.7021   YZ=             -3.6711

  Exact polarizability:  85.876   0.488  73.239  -1.377   0.787  65.467
 Approx polarizability: 114.783   5.746 109.287   3.620   9.467 106.379

                      1                      2                      3
                      A                      A                      A
 Frequencies --     28.4371               148.5397               162.2027
 Red. masses --      3.8431                 1.0703                 3.5892
 Frc consts  --      0.0018                 0.0139                 0.0556
 IR Inten    --      4.8552                 0.5611                 0.7525

                      4                      5                      6
                      A                      A                      A
 Frequencies --    194.3565               223.5445               265.5255
 Red. masses --      3.0153                 1.0778                 2.9312
 Frc consts  --      0.0671                 0.0317                 0.1218
 IR Inten    --      5.4409                 0.4085                 3.4556

                      7                      8                      9
                      A                      A                      A
 Frequencies --    294.4910               343.3368               475.1168
 Red. masses --      2.5164                 3.6628                 3.0007
 Frc consts  --      0.1286                 0.2544                 0.3991
 IR Inten    --      4.3663                 0.1341                 3.4155

                     10                     11                     12
                      A                      A                      A
 Frequencies --    495.0998               530.4167               582.5538
 Red. masses --      4.2110                 2.9197                 2.9047
 Frc consts  --      0.6082                 0.4840                 0.5808
 IR Inten    --      1.9708                12.9702                 8.2962

                     13                     14                     15
                      A                      A                      A
 Frequencies --    643.3869               758.2317               789.3186
 Red. masses --      3.1635                 1.8527                 1.9680
 Frc consts  --      0.7715                 0.6276                 0.7224
 IR Inten    --      2.9684                 9.4506                 1.9577

                     16                     17                     18
                      A                      A                      A
 Frequencies --    824.6462               883.3690               922.2537
 Red. masses --      2.4556                 2.5629                 2.3008
 Frc consts  --      0.9839                 1.1783                 1.1530
 IR Inten    --     16.6717                19.9611                 1.6438

                     19                     20                     21
                      A                      A                      A
 Frequencies --    960.7879               973.9907               977.6114
 Red. masses --      1.9965                 1.7321                 1.7763
 Frc consts  --      1.0859                 0.9681                 1.0002
 IR Inten    --      4.2643                17.2560                14.5081

                     22                     23                     24
                      A                      A                      A
 Frequencies --   1020.5437              1031.9606              1047.1826
 Red. masses --      1.8405                 1.7071                 1.4881
 Frc consts  --      1.1294                 1.0711                 0.9615
 IR Inten    --      3.5975                41.5724                18.9431

                     25                     26                     27
                      A                      A                      A
 Frequencies --   1061.3531              1084.9710              1124.6134
 Red. masses --      1.7997                 1.7488                 2.1229
 Frc consts  --      1.1944                 1.2129                 1.5820
 IR Inten    --      8.5211                26.1280                20.6947

                     28                     29                     30
                      A                      A                      A
 Frequencies --   1139.1780              1165.5157              1230.8997
 Red. masses --      2.1367                 1.9642                 2.7283
 Frc consts  --      1.6337                 1.5721                 2.4355
 IR Inten    --     54.4081                 9.7187                 1.1522

                     31                     32                     33
                      A                      A                      A
 Frequencies --   1264.3337              1287.2611              1347.1897
 Red. masses --      3.1597                 2.0812                 2.0537
 Frc consts  --      2.9759                 2.0319                 2.1960
 IR Inten    --     24.5234                 5.4842                 9.4888

                     34                     35                     36
                      A                      A                      A
 Frequencies --   1381.5323              1396.5283              1449.8153
 Red. masses --      1.3207                 1.2636                 1.0543
 Frc consts  --      1.4852                 1.4520                 1.3057
 IR Inten    --     33.0149                10.5292                13.3919

                     37                     38                     39
                      A                      A                      A
 Frequencies --   1465.3050              1470.9961              1485.5748
 Red. masses --      1.0541                 1.2210                 1.0576
 Frc consts  --      1.3335                 1.5567                 1.3751
 IR Inten    --      9.8393                 1.9218                 8.9246

                     40                     41                     42
                      A                      A                      A
 Frequencies --   1492.1935              1804.7059              3045.2203
 Red. masses --      1.0735                11.2462                 1.0364
 Frc consts  --      1.4083                21.5808                 5.6627
 IR Inten    --      5.3428               133.9245                12.7196

                     43                     44                     45
                      A                      A                      A
 Frequencies --   3047.7496              3109.3700              3116.5167
 Red. masses --      1.0351                 1.0969                 1.0976
 Frc consts  --      5.6649                 6.2481                 6.2811
 IR Inten    --      0.7660                 3.8481                11.9408

                     46                     47                     48
                      A                      A                      A
 Frequencies --   3123.0886              3140.2838              3156.1048
 Red. masses --      1.0541                 1.1023                 1.1046
 Frc consts  --      6.0576                 6.4045                 6.4829
 IR Inten    --     12.8179                 9.7851                12.2669

                     49                     50                     51
                      A                      A                      A
 Frequencies --   3183.0389              3209.9377              3219.5552
 Red. masses --      1.0928                 1.1129                 1.0987
 Frc consts  --      6.5233                 6.7561                 6.7100
 IR Inten    --     18.4257                 3.4938                 8.4357

 - Thermochemistry -
 -------------------
 Temperature   298.150 Kelvin.  Pressure   1.00000 Atm.
 Atom     1 has atomic number  6 and mass  12.00000

 Molecular mass:   126.06808 amu.
 Principal axes and moments of inertia in atomic units:
                           1         2         3
     Eigenvalues --   647.674871287.829721429.75394
           X            0.99848  -0.04628  -0.02991
           Y            0.04262   0.99264  -0.11333
           Z            0.03494   0.11189   0.99311
 This molecule is an asymmetric top.
 Rotational symmetry number  1.
 Warning -- assumption of classical behavior for rotation
           may cause significant error
 Rotational temperatures (Kelvin)      0.13373     0.06726     0.06058
 Rotational constants (GHZ):           2.78649     1.40138     1.26227
 Zero-point vibrational energy     410197.9 (Joules/Mol)
                                   98.03965 (Kcal/Mol)
 Warning -- explicit consideration of  12 degrees of freedom as
           vibrations may cause significant error
 Vibrational temperatures:     40.91   213.72   233.37   279.64   321.63
          (Kelvin)            382.03   423.71   493.98   683.59   712.34
                              763.15   838.16   925.69  1090.92  1135.65
                             1186.48  1270.97  1326.92  1382.36  1401.35
                             1406.56  1468.33  1484.76  1506.66  1527.05
                             1561.03  1618.07  1639.02  1676.92  1770.99
                             1819.09  1852.08  1938.30  1987.71  2009.29
                             2085.96  2108.24  2116.43  2137.41  2146.93
                             2596.57  4381.39  4385.03  4473.68  4483.97
                             4493.42  4518.16  4540.93  4579.68  4618.38
                             4632.22

 Zero-point correction=                           0.156236 (Hartree/Particle)
 Thermal correction to Energy=                    0.165339
 Thermal correction to Enthalpy=                  0.166283
 Thermal correction to Gibbs Free Energy=         0.121922
 Sum of electronic and zero-point Energies=           -423.006329
 Sum of electronic and thermal Energies=              -422.997226
 Sum of electronic and thermal Enthalpies=            -422.996282
 Sum of electronic and thermal Free Energies=         -423.040643

                     E (Thermal)             CV                S
                      KCal/Mol        Cal/Mol-Kelvin    Cal/Mol-Kelvin
 Total                  103.751             34.048             93.364
 Electronic               0.000              0.000              0.000
 Translational            0.889              2.981             40.409
 Rotational               0.889              2.981             28.569
 Vibrational            101.974             28.087             24.387
 Vibration     1          0.593              1.984              5.936
 Vibration     2          0.618              1.904              2.691
 Vibration     3          0.622              1.889              2.524
 Vibration     4          0.635              1.848              2.186
 Vibration     5          0.649              1.805              1.930
 Vibration     6          0.671              1.736              1.625
 Vibration     7          0.689              1.684              1.448
 Vibration     8          0.722              1.589              1.197
 Vibration     9          0.832              1.305              0.723
 Vibration    10          0.851              1.261              0.670
 Vibration    11          0.885              1.183              0.586
 Vibration    12          0.939              1.069              0.481

 Optimization completed.
    -- Stationary point found.
 Normal termination of Gaussian 09 at Mon Jan 27 16:06:14 2020.
