 Gaussian 09, Revision D.01,
 Gaussian 09:  ES64L-G09RevD.01 24-Apr-2013

 -----------------------------
 # b3lyp 6-31G(2df,p) opt Freq
 -----------------------------

 -----
 titel
 -----
 Symbolic Z-matrix:
 Charge =  0 Multiplicity = 1

 SCF Done:  E(RB3LYP) =  -423.142341748     A.U. after   14 cycles
 Optimization completed.
    -- Stationary point found.
 Normal termination of Gaussian 09 at Mon Jan 27 12:17:11 2020.

 ----------------------------------------------------------------------
 #N Geom=AllCheck Guess=TCheck SCRF=Check GenChk RB3LYP/6-31G(2df,p) Fr
 eq
 ----------------------------------------------------------------------

 Structure from the checkpoint file:  "/scratch/puck/g09_134c23b3-a4b3-45d3-b478-029be76f5c75/Gau-153354.chk"
 -----
 titel
 -----
 Charge =  0 Multiplicity = 1

                         Standard orientation:
 ---------------------------------------------------------------------
 Center     Atomic      Atomic             Coordinates (Angstroms)
 Number     Number       Type             X           Y           Z
 ---------------------------------------------------------------------
      1          6           0       -2.066326   -0.595036   -0.467572
      2          6           0       -1.920159    0.828116    0.179873
      3          6           0       -0.412193    0.591643    0.194565
      4          6           0        0.802641    1.460550    0.009345
      5          8           0        1.841525    0.618749   -0.516917
      6          6           0        1.846069   -0.739844   -0.070005
      7          6           0        0.426277   -1.244990    0.213283
      8          8           0       -0.070874   -0.363781    1.262587
      9          6           0       -0.534269   -0.604477   -0.786380
     10          1           0       -2.376128   -1.366044    0.239420
     11          1           0       -2.711202   -0.640209   -1.346679
     12          1           0       -2.207697    1.623918   -0.514106
     13          1           0       -2.390259    1.001038    1.150336
     14          1           0        0.653789    2.251025   -0.733911
     15          1           0        1.106652    1.915272    0.963157
     16          1           0        2.335205   -1.313664   -0.865700
     17          1           0        2.432262   -0.845035    0.855315
     18          1           0        0.386643   -2.306177    0.482964
     19          1           0       -0.246705   -0.535651   -1.834813
 ---------------------------------------------------------------------

 SCF Done:  E(RB3LYP) =  -423.142341748     A.U. after    1 cycles

 The electronic state is 1-A.
 Alpha  occ. eigenvalues --  -19.13698 -19.13026 -10.23673 -10.23510 -10.22810
 Alpha  occ. eigenvalues --  -10.22677 -10.18993 -10.18969 -10.18814  -1.05736
 Alpha  occ. eigenvalues --   -1.00746  -0.82544  -0.76356  -0.70453  -0.66602
 Alpha  occ. eigenvalues --   -0.62455  -0.59397  -0.51186  -0.50801  -0.48445
 Alpha  occ. eigenvalues --   -0.46971  -0.45903  -0.45550  -0.41965  -0.40667
 Alpha  occ. eigenvalues --   -0.37969  -0.36343  -0.34875  -0.33949  -0.32876
 Alpha  occ. eigenvalues --   -0.30068  -0.27416  -0.26130  -0.23473
 Alpha virt. eigenvalues --    0.08690   0.09246   0.10205   0.11088   0.12043
 Alpha virt. eigenvalues --    0.12961   0.14274   0.15139   0.16359   0.16656
 Alpha virt. eigenvalues --    0.17170   0.18451   0.19236   0.20365   0.21406

 Mulliken charges:
               1
     1  C   -0.251567
     2  C   -0.316805
     3  C    0.426212
     4  C   -0.159596
     5  O   -0.278430
     6  C   -0.063728
     7  C    0.047834
     8  O   -0.348774
     9  C   -0.063153
    10  H    0.116740
    11  H    0.103411
    12  H    0.105320
    13  H    0.111649
    14  H    0.105764
    15  H    0.101876
    16  H    0.104184
    17  H    0.100761
    18  H    0.074250
    19  H    0.084051
 Sum of Mulliken charges =   0.00000

 Dipole moment (field-independent basis, Debye):
    X=             -1.0717    Y=             -0.3147    Z=             -0.9526  Tot=              1.4680
 Quadrupole moment (field-independent basis, Debye-Ang):
   XX=            -54.2141   YY=            -49.5748   ZZ=            -55.3940
   XY=             -2.9785   XZ=              1.9557   YZ=              0.9520

  Exact polarizability:  82.182  -4.256  76.573   1.627   0.601  64.596
 Approx polarizability: 107.387  -5.492 111.581  -0.131  -0.141 105.134

                      1                      2                      3
                      A                      A                      A
 Frequencies --    199.0782               228.3232               275.1471
 Red. masses --      3.4359                 1.8895                 2.2295
 Frc consts  --      0.0802                 0.0580                 0.0994
 IR Inten    --      5.3968                 2.6082                 2.7320

                      4                      5                      6
                      A                      A                      A
 Frequencies --    319.5582               380.9574               451.1835
 Red. masses --      2.6784                 2.2166                 4.6749
 Frc consts  --      0.1611                 0.1895                 0.5607
 IR Inten    --      0.6571                 1.3458                 4.1384

                      7                      8                      9
                      A                      A                      A
 Frequencies --    490.5360               583.4314               696.8617
 Red. masses --      5.1680                 4.3920                 2.9474
 Frc consts  --      0.7327                 0.8808                 0.8433
 IR Inten    --      1.6586                 3.0264                 3.7828

                     10                     11                     12
                      A                      A                      A
 Frequencies --    722.9255               785.5415               828.4515
 Red. masses --      1.5923                 2.4704                 3.1213
 Frc consts  --      0.4903                 0.8982                 1.2622
 IR Inten    --      3.9689                11.6301                28.5274

                     13                     14                     15
                      A                      A                      A
 Frequencies --    841.3123               863.7431               913.7285
 Red. masses --      2.9930                 2.6961                 2.8498
 Frc consts  --      1.2482                 1.1851                 1.4018
 IR Inten    --      3.8152                21.0654                11.8001

                     16                     17                     18
                      A                      A                      A
 Frequencies --    925.5762               931.4223               961.8288
 Red. masses --      2.6949                 3.1079                 2.9956
 Frc consts  --      1.3603                 1.5886                 1.6328
 IR Inten    --      9.0305                25.6729                 6.8580

                     19                     20                     21
                      A                      A                      A
 Frequencies --    995.7688              1014.4259              1026.9488
 Red. masses --      1.8642                 1.9111                 1.7954
 Frc consts  --      1.0891                 1.1587                 1.1156
 IR Inten    --      5.9732                25.6464                 0.5347

                     22                     23                     24
                      A                      A                      A
 Frequencies --   1093.8014              1105.9927              1125.7935
 Red. masses --      2.4679                 2.6498                 2.2589
 Frc consts  --      1.7396                 1.9097                 1.6868
 IR Inten    --     21.4694                71.5746                 4.2506

                     25                     26                     27
                      A                      A                      A
 Frequencies --   1138.1982              1190.2167              1210.4462
 Red. masses --      1.7990                 2.6136                 1.3051
 Frc consts  --      1.3731                 2.1814                 1.1267
 IR Inten    --      2.9445                 7.0468                 0.3043

                     28                     29                     30
                      A                      A                      A
 Frequencies --   1226.6144              1229.0942              1253.7421
 Red. masses --      1.4986                 1.2858                 1.1656
 Frc consts  --      1.3285                 1.1444                 1.0795
 IR Inten    --      6.7386                 2.5867                 6.7604

                     31                     32                     33
                      A                      A                      A
 Frequencies --   1263.9689              1284.2765              1304.2252
 Red. masses --      1.4657                 1.3991                 1.8573
 Frc consts  --      1.3797                 1.3596                 1.8614
 IR Inten    --      2.2129                 0.5130                11.1188

                     34                     35                     36
                      A                      A                      A
 Frequencies --   1317.2408              1345.1894              1375.3959
 Red. masses --      1.4030                 1.7834                 1.5731
 Frc consts  --      1.4343                 1.9013                 1.7534
 IR Inten    --      1.0260                 0.5006                 2.8110

                     37                     38                     39
                      A                      A                      A
 Frequencies --   1414.9651              1463.9243              1482.2909
 Red. masses --      1.5306                 1.0945                 1.1410
 Frc consts  --      1.8056                 1.3820                 1.4771
 IR Inten    --      0.4580                 1.1491                 1.5298

                     40                     41                     42
                      A                      A                      A
 Frequencies --   1487.4058              1495.4391              2992.0851
 Red. masses --      1.0873                 1.0954                 1.0640
 Frc consts  --      1.4173                 1.4433                 5.6125
 IR Inten    --      0.3164                 1.2166                56.6713

                     43                     44                     45
                      A                      A                      A
 Frequencies --   3002.8302              3051.6769              3056.9963
 Red. masses --      1.0646                 1.0886                 1.0598
 Frc consts  --      5.6561                 5.9730                 5.8354
 IR Inten    --     55.8686                69.8248                24.8104

                     46                     47                     48
                      A                      A                      A
 Frequencies --   3063.7760              3073.5604              3079.7927
 Red. masses --      1.0971                 1.0987                 1.0589
 Frc consts  --      6.0674                 6.1153                 5.9179
 IR Inten    --     41.1823                26.9278                36.1090

                     49                     50                     51
                      A                      A                      A
 Frequencies --   3114.4146              3119.8732              3139.5961
 Red. masses --      1.1030                 1.0940                 1.1069
 Frc consts  --      6.3032                 6.2742                 6.4287
 IR Inten    --     19.0967                 3.9882                34.0590

 - Thermochemistry -
 -------------------
 Temperature   298.150 Kelvin.  Pressure   1.00000 Atm.
 Atom     1 has atomic number  6 and mass  12.00000

 Molecular mass:   126.06808 amu.
 Principal axes and moments of inertia in atomic units:
                           1         2         3
     Eigenvalues --   550.499821051.607781236.02269
           X            0.99962  -0.02365   0.01398
           Y            0.02330   0.99943   0.02458
           Z           -0.01455  -0.02424   0.99960
 This molecule is an asymmetric top.
 Rotational symmetry number  1.
 Warning -- assumption of classical behavior for rotation
           may cause significant error
 Rotational temperatures (Kelvin)      0.15734     0.08236     0.07007
 Rotational constants (GHZ):           3.27837     1.71617     1.46012
 Zero-point vibrational energy     424312.9 (Joules/Mol)
                                  101.41321 (Kcal/Mol)
 Warning -- explicit consideration of   8 degrees of freedom as
           vibrations may cause significant error
 Vibrational temperatures:    286.43   328.51   395.87   459.77   548.11
          (Kelvin)            649.15   705.77   839.43  1002.63  1040.13
                             1130.22  1191.96  1210.46  1242.73  1314.65
                             1331.70  1340.11  1383.86  1432.69  1459.53
                             1477.55  1573.73  1591.27  1619.76  1637.61
                             1712.45  1741.56  1764.82  1768.39  1803.85
                             1818.57  1847.79  1876.49  1895.21  1935.43
                             1978.89  2035.82  2106.26  2132.68  2140.04
                             2151.60  4304.94  4320.40  4390.68  4398.33
                             4408.08  4422.16  4431.13  4480.94  4488.80
                             4517.17

 Zero-point correction=                           0.161612 (Hartree/Particle)
 Thermal correction to Energy=                    0.168424
 Thermal correction to Enthalpy=                  0.169368
 Thermal correction to Gibbs Free Energy=         0.130833
 Sum of electronic and zero-point Energies=           -422.980730
 Sum of electronic and thermal Energies=              -422.973918
 Sum of electronic and thermal Enthalpies=            -422.972973
 Sum of electronic and thermal Free Energies=         -423.011509

                     E (Thermal)             CV                S
                      KCal/Mol        Cal/Mol-Kelvin    Cal/Mol-Kelvin
 Total                  105.688             28.416             81.105
 Electronic               0.000              0.000              0.000
 Translational            0.889              2.981             40.409
 Rotational               0.889              2.981             28.061
 Vibrational            103.910             22.455             12.636
 Vibration     1          0.637              1.841              2.142
 Vibration     2          0.651              1.798              1.892
 Vibration     3          0.677              1.719              1.564
 Vibration     4          0.705              1.636              1.312
 Vibration     5          0.751              1.511              1.035
 Vibration     6          0.810              1.358              0.792
 Vibration     7          0.846              1.271              0.682
 Vibration     8          0.940              1.067              0.479

 Optimization completed.
    -- Stationary point found.
 Normal termination of Gaussian 09 at Mon Jan 27 13:03:29 2020.
