 Gaussian 09, Revision D.01,
 Gaussian 09:  ES64L-G09RevD.01 24-Apr-2013

 -----------------------------
 # b3lyp 6-31G(2df,p) opt Freq
 -----------------------------

 -----
 titel
 -----
 Symbolic Z-matrix:
 Charge =  0 Multiplicity = 1

 SCF Done:  E(RB3LYP) =  -423.136939152     A.U. after   13 cycles
 Optimization completed.
    -- Stationary point found.
 Normal termination of Gaussian 09 at Mon Jan 27 12:21:29 2020.

 ----------------------------------------------------------------------
 #N Geom=AllCheck Guess=TCheck SCRF=Check GenChk RB3LYP/6-31G(2df,p) Fr
 eq
 ----------------------------------------------------------------------

 Structure from the checkpoint file:  "/scratch/puck/g09_55742c7d-9f03-415e-86e1-8eb44f682ed7/Gau-167241.chk"
 -----
 titel
 -----
 Charge =  0 Multiplicity = 1

                         Standard orientation:
 ---------------------------------------------------------------------
 Center     Atomic      Atomic             Coordinates (Angstroms)
 Number     Number       Type             X           Y           Z
 ---------------------------------------------------------------------
      1          6           0       -2.324691   -0.250630   -0.575942
      2          8           0       -1.988498   -0.630178    0.788620
      3          6           0       -1.043073    0.437341    0.861365
      4          6           0       -1.257029    0.839137   -0.584440
      5          6           0        0.065863    0.261928   -0.136981
      6          6           0        0.652267   -1.093738   -0.490707
      7          6           0        2.021968   -0.986905    0.186378
      8          8           0        2.422331    0.373558    0.034184
      9          6           0        1.267359    1.203703   -0.035889
     10          1           0       -2.215241   -1.083042   -1.280505
     11          1           0       -3.346946    0.140429   -0.618340
     12          1           0       -0.974985    0.999965    1.786705
     13          1           0       -1.350048    1.816113   -1.042010
     14          1           0        0.045393   -1.917498   -0.109529
     15          1           0        0.766101   -1.207718   -1.574841
     16          1           0        1.947039   -1.251071    1.253077
     17          1           0        2.793382   -1.614238   -0.269031
     18          1           0        1.206172    1.855761    0.848821
     19          1           0        1.362484    1.849248   -0.919480
 ---------------------------------------------------------------------

 SCF Done:  E(RB3LYP) =  -423.136939152     A.U. after    1 cycles

 The electronic state is 1-A.
 Alpha  occ. eigenvalues --  -19.14322 -19.13223 -10.24159 -10.24028 -10.22981
 Alpha  occ. eigenvalues --  -10.22454 -10.20280 -10.20074 -10.18363  -1.05618
 Alpha  occ. eigenvalues --   -1.02899  -0.84786  -0.75450  -0.71791  -0.69121
 Alpha  occ. eigenvalues --   -0.60056  -0.56107  -0.55682  -0.52216  -0.49161
 Alpha  occ. eigenvalues --   -0.48170  -0.46393  -0.43887  -0.42599  -0.40760
 Alpha  occ. eigenvalues --   -0.39436  -0.37888  -0.35650  -0.33625  -0.32234
 Alpha  occ. eigenvalues --   -0.30908  -0.27554  -0.24713  -0.23585
 Alpha virt. eigenvalues --    0.07298   0.09107   0.10054   0.10423   0.12036
 Alpha virt. eigenvalues --    0.12443   0.14242   0.14623   0.14987   0.17194
 Alpha virt. eigenvalues --    0.17411   0.18710   0.19682   0.20550   0.22536

 Mulliken charges:
               1
     1  C   -0.097209
     2  O   -0.284380
     3  C    0.039432
     4  C   -0.223734
     5  C    0.292911
     6  C   -0.316090
     7  C   -0.070843
     8  O   -0.260647
     9  C   -0.130843
    10  H    0.109193
    11  H    0.113397
    12  H    0.106156
    13  H    0.099098
    14  H    0.122300
    15  H    0.103838
    16  H    0.093944
    17  H    0.106597
    18  H    0.095996
    19  H    0.100883
 Sum of Mulliken charges =   0.00000

 Dipole moment (field-independent basis, Debye):
    X=             -1.0262    Y=              0.5661    Z=             -1.0072  Tot=              1.5454
 Quadrupole moment (field-independent basis, Debye-Ang):
   XX=            -58.8176   YY=            -50.9949   ZZ=            -52.3725
   XY=             -4.2516   XZ=              3.0178   YZ=              1.5460

  Exact polarizability:  85.344  -2.100  72.368   2.411   1.213  66.537
 Approx polarizability: 112.439  -0.038 105.509   0.821  -1.144 106.409

                      1                      2                      3
                      A                      A                      A
 Frequencies --     44.6289               165.0758               181.3899
 Red. masses --      3.5073                 2.6408                 3.0866
 Frc consts  --      0.0041                 0.0424                 0.0598
 IR Inten    --      3.6120                 5.0906                 0.7672

                      4                      5                      6
                      A                      A                      A
 Frequencies --    223.0431               306.2326               383.0434
 Red. masses --      2.4823                 2.5289                 3.1223
 Frc consts  --      0.0728                 0.1397                 0.2699
 IR Inten    --      1.3298                 3.7732                 3.5354

                      7                      8                      9
                      A                      A                      A
 Frequencies --    471.1522               554.4243               673.0372
 Red. masses --      2.7556                 3.4413                 2.7078
 Frc consts  --      0.3604                 0.6232                 0.7227
 IR Inten    --      0.5141                 0.4749                 7.0710

                     10                     11                     12
                      A                      A                      A
 Frequencies --    750.3247               791.8303               830.2809
 Red. masses --      2.6543                 4.6113                 1.4178
 Frc consts  --      0.8804                 1.7035                 0.5759
 IR Inten    --      6.6489                 7.2559                 1.5288

                     13                     14                     15
                      A                      A                      A
 Frequencies --    873.2199               894.2101               931.9691
 Red. masses --      2.2084                 2.6970                 2.8883
 Frc consts  --      0.9922                 1.2706                 1.4781
 IR Inten    --      3.7066                 3.5000                25.9807

                     16                     17                     18
                      A                      A                      A
 Frequencies --    948.8949               963.8167               972.6062
 Red. masses --      3.5355                 1.7550                 2.3704
 Frc consts  --      1.8756                 0.9606                 1.3211
 IR Inten    --     25.9916                14.8703                 5.8939

                     19                     20                     21
                      A                      A                      A
 Frequencies --    994.0545              1024.1479              1036.1021
 Red. masses --      1.7664                 3.1122                 1.4131
 Frc consts  --      1.0284                 1.9233                 0.8938
 IR Inten    --     37.0448                34.4677                 1.5976

                     22                     23                     24
                      A                      A                      A
 Frequencies --   1078.8062              1088.5444              1094.3497
 Red. masses --      2.8592                 2.8142                 3.4979
 Frc consts  --      1.9606                 1.9647                 2.4682
 IR Inten    --     11.7602                18.7586                58.9176

                     25                     26                     27
                      A                      A                      A
 Frequencies --   1140.2752              1156.3673              1161.8283
 Red. masses --      2.6281                 1.7133                 1.3913
 Frc consts  --      2.0133                 1.3498                 1.1065
 IR Inten    --     18.5583                22.2611                 5.1194

                     28                     29                     30
                      A                      A                      A
 Frequencies --   1203.5674              1234.6158              1240.5360
 Red. masses --      1.2034                 1.2443                 1.4477
 Frc consts  --      1.0271                 1.1175                 1.3127
 IR Inten    --      4.5667                 2.0167                 3.5368

                     31                     32                     33
                      A                      A                      A
 Frequencies --   1245.3995              1268.7636              1313.7249
 Red. masses --      1.2832                 2.0482                 1.4044
 Frc consts  --      1.1726                 1.9426                 1.4281
 IR Inten    --     11.0899                 6.1482                 2.2117

                     34                     35                     36
                      A                      A                      A
 Frequencies --   1334.8202              1363.4612              1397.0930
 Red. masses --      1.5845                 1.2630                 1.5276
 Frc consts  --      1.6634                 1.3834                 1.7567
 IR Inten    --      3.9674                 1.3150                 1.4505

                     37                     38                     39
                      A                      A                      A
 Frequencies --   1434.0169              1484.4401              1514.5274
 Red. masses --      2.8282                 1.0992                 1.1055
 Frc consts  --      3.4267                 1.4271                 1.4940
 IR Inten    --     15.8956                 1.9660                 0.2718

                     40                     41                     42
                      A                      A                      A
 Frequencies --   1517.6079              1530.4845              2977.3841
 Red. masses --      1.0899                 1.0933                 1.0674
 Frc consts  --      1.4789                 1.5089                 5.5752
 IR Inten    --      1.0923                 0.2489                85.3498

                     43                     44                     45
                      A                      A                      A
 Frequencies --   2984.8539              3019.2821              3028.6358
 Red. masses --      1.0667                 1.1007                 1.0548
 Frc consts  --      5.5995                 5.9119                 5.7006
 IR Inten    --     47.2036                42.0961                63.4247

                     46                     47                     48
                      A                      A                      A
 Frequencies --   3041.1067              3078.4866              3085.9185
 Red. masses --      1.0655                 1.1115                 1.0925
 Frc consts  --      5.8058                 6.2065                 6.1297
 IR Inten    --     29.4211                32.5946                47.7367

                     49                     50                     51
                      A                      A                      A
 Frequencies --   3115.9935              3165.8718              3189.6212
 Red. masses --      1.0988                 1.0905                 1.0962
 Frc consts  --      6.2858                 6.4397                 6.5705
 IR Inten    --     10.2147                19.3057                10.8615

 - Thermochemistry -
 -------------------
 Temperature   298.150 Kelvin.  Pressure   1.00000 Atm.
 Atom     1 has atomic number  6 and mass  12.00000

 Molecular mass:   126.06808 amu.
 Principal axes and moments of inertia in atomic units:
                           1         2         3
     Eigenvalues --   459.153571445.056131601.36751
           X            0.99974  -0.01761   0.01425
           Y            0.01695   0.99885   0.04494
           Z           -0.01502  -0.04469   0.99889
 This molecule is an asymmetric top.
 Rotational symmetry number  1.
 Warning -- assumption of classical behavior for rotation
           may cause significant error
 Rotational temperatures (Kelvin)      0.18864     0.05994     0.05409
 Rotational constants (GHZ):           3.93058     1.24891     1.12700
 Zero-point vibrational energy     421706.8 (Joules/Mol)
                                  100.79034 (Kcal/Mol)
 Warning -- explicit consideration of   8 degrees of freedom as
           vibrations may cause significant error
 Vibrational temperatures:     64.21   237.51   260.98   320.91   440.60
          (Kelvin)            551.11   677.88   797.69   968.35  1079.55
                             1139.27  1194.59  1256.37  1286.57  1340.89
                             1365.25  1386.72  1399.36  1430.22  1473.52
                             1490.72  1552.16  1566.17  1574.52  1640.60
                             1663.75  1671.61  1731.66  1776.33  1784.85
                             1791.85  1825.47  1890.15  1920.51  1961.71
                             2010.10  2063.23  2135.78  2179.06  2183.50
                             2202.02  4283.79  4294.53  4344.07  4357.53
                             4375.47  4429.25  4439.94  4483.21  4554.98
                             4589.15

 Zero-point correction=                           0.160620 (Hartree/Particle)
 Thermal correction to Energy=                    0.168240
 Thermal correction to Enthalpy=                  0.169184
 Thermal correction to Gibbs Free Energy=         0.127849
 Sum of electronic and zero-point Energies=           -422.976320
 Sum of electronic and thermal Energies=              -422.968699
 Sum of electronic and thermal Enthalpies=            -422.967755
 Sum of electronic and thermal Free Energies=         -423.009090

                     E (Thermal)             CV                S
                      KCal/Mol        Cal/Mol-Kelvin    Cal/Mol-Kelvin
 Total                  105.572             29.213             86.997
 Electronic               0.000              0.000              0.000
 Translational            0.889              2.981             40.409
 Rotational               0.889              2.981             28.454
 Vibrational            103.795             23.251             18.134
 Vibration     1          0.595              1.980              5.042
 Vibration     2          0.623              1.885              2.491
 Vibration     3          0.630              1.865              2.314
 Vibration     4          0.649              1.806              1.934
 Vibration     5          0.697              1.662              1.383
 Vibration     6          0.752              1.506              1.027
 Vibration     7          0.828              1.314              0.734
 Vibration     8          0.910              1.130              0.535

 Optimization completed.
    -- Stationary point found.
 Normal termination of Gaussian 09 at Mon Jan 27 13:07:15 2020.
