 Gaussian 09, Revision D.01,
 Gaussian 09:  ES64L-G09RevD.01 24-Apr-2013

 -----------------------------
 # b3lyp 6-31G(2df,p) opt Freq
 -----------------------------

 -----
 titel
 -----
 Symbolic Z-matrix:
 Charge =  0 Multiplicity = 1

 SCF Done:  E(RB3LYP) =  -423.145902805     A.U. after   14 cycles
 SCF Done:  E(RB3LYP) =  -423.145902623     A.U. after    7 cycles
 Optimization completed.
    -- Stationary point found.
 Normal termination of Gaussian 09 at Tue Jan 28 12:13:25 2020.

 ----------------------------------------------------------------------
 #N Geom=AllCheck Guess=TCheck SCRF=Check GenChk RB3LYP/6-31G(2df,p) Fr
 eq
 ----------------------------------------------------------------------

 Structure from the checkpoint file:  "/scratch/puck/g09_ff5a3a70-75a1-4869-a2a9-13c048b1573b/Gau-113943.chk"
 -----
 titel
 -----
 Charge =  0 Multiplicity = 1

                         Standard orientation:
 ---------------------------------------------------------------------
 Center     Atomic      Atomic             Coordinates (Angstroms)
 Number     Number       Type             X           Y           Z
 ---------------------------------------------------------------------
      1          6           0        3.151891   -0.419022   -0.423022
      2          6           0        1.923209    0.082640    0.316042
      3          8           0        0.781183   -0.506592   -0.297955
      4          6           0       -0.492076   -0.071526    0.160663
      5          6           0       -0.798719   -0.480213    1.606019
      6          6           0       -1.461323   -0.776139   -0.822794
      7          8           0       -2.531678   -1.221717   -0.520035
      8          6           0       -0.688451    1.371584   -0.050838
      9          6           0       -0.879092    2.540552   -0.259941
     10          1           0        4.057902    0.003266    0.021791
     11          1           0        3.215812   -1.509565   -0.370325
     12          1           0        3.112369   -0.127867   -1.476294
     13          1           0        1.973492   -0.196552    1.378096
     14          1           0        1.853347    1.177647    0.261106
     15          1           0       -0.230823    0.120949    2.318480
     16          1           0       -1.864478   -0.346247    1.799987
     17          1           0       -0.549770   -1.536147    1.740991
     18          1           0       -1.050507   -0.821551   -1.852079
     19          1           0       -1.046027    3.575287   -0.434601
 ---------------------------------------------------------------------

 SCF Done:  E(RB3LYP) =  -423.145902623     A.U. after    1 cycles

 The electronic state is 1-A.
 Alpha  occ. eigenvalues --  -19.15450 -19.15170 -10.27795 -10.27311 -10.23469
 Alpha  occ. eigenvalues --  -10.19595 -10.19217 -10.18585 -10.18124  -1.06274
 Alpha  occ. eigenvalues --   -1.04459  -0.81418  -0.75607  -0.73351  -0.67953
 Alpha  occ. eigenvalues --   -0.61520  -0.58986  -0.53914  -0.51632  -0.50319
 Alpha  occ. eigenvalues --   -0.47609  -0.45593  -0.42823  -0.40621  -0.39874
 Alpha  occ. eigenvalues --   -0.39433  -0.39017  -0.37817  -0.36356  -0.33352
 Alpha  occ. eigenvalues --   -0.29678  -0.28591  -0.27336  -0.25387
 Alpha virt. eigenvalues --   -0.03623   0.03061   0.05653   0.09467   0.11339
 Alpha virt. eigenvalues --    0.12011   0.13192   0.14739   0.15232   0.15618
 Alpha virt. eigenvalues --    0.17035   0.17465   0.18480   0.19459   0.21393

 Mulliken charges:
               1
     1  C   -0.382856
     2  C   -0.050650
     3  O   -0.280392
     4  C    0.100027
     5  C   -0.429343
     6  C    0.150496
     7  O   -0.240898
     8  C    0.334009
     9  C   -0.496224
    10  H    0.117984
    11  H    0.128285
    12  H    0.128904
    13  H    0.095762
    14  H    0.105765
    15  H    0.125733
    16  H    0.150810
    17  H    0.130205
    18  H    0.104107
    19  H    0.208277
 Sum of Mulliken charges =   0.00000

 Dipole moment (field-independent basis, Debye):
    X=              2.1919    Y=              1.6123    Z=              0.6362  Tot=              2.7944
 Quadrupole moment (field-independent basis, Debye-Ang):
   XX=            -57.8245   YY=            -49.9332   ZZ=            -52.0289
   XY=             -3.8339   XZ=              0.1620   YZ=             -1.5339

  Exact polarizability:  83.498  -0.882  87.046  -0.391  -2.923  66.792
 Approx polarizability: 110.933   0.746 139.354  -1.086  -5.695  95.131

                      1                      2                      3
                      A                      A                      A
 Frequencies --     48.9707                77.4385                93.1250
 Red. masses --      2.0070                 4.8625                 2.8456
 Frc consts  --      0.0028                 0.0172                 0.0145
 IR Inten    --      0.2674                 4.2115                 2.9571

                      4                      5                      6
                      A                      A                      A
 Frequencies --    138.1334               161.7006               192.3832
 Red. masses --      3.7931                 2.7430                 1.9181
 Frc consts  --      0.0426                 0.0423                 0.0418
 IR Inten    --      0.1800                 1.6271                 2.8180

                      7                      8                      9
                      A                      A                      A
 Frequencies --    224.7903               250.5866               278.7163
 Red. masses --      1.2414                 1.2930                 3.0046
 Frc consts  --      0.0370                 0.0478                 0.1375
 IR Inten    --      2.1598                 2.8848                 6.9094

                     10                     11                     12
                      A                      A                      A
 Frequencies --    350.5677               377.6900               410.7598
 Red. masses --      3.1898                 3.3501                 4.0698
 Frc consts  --      0.2310                 0.2816                 0.4046
 IR Inten    --      3.3372                 0.5099                 2.4439

                     13                     14                     15
                      A                      A                      A
 Frequencies --    470.4921               544.2367               637.8891
 Red. masses --      7.3436                 5.0746                 1.2373
 Frc consts  --      0.9578                 0.8856                 0.2966
 IR Inten    --      5.1642                16.5116                40.1811

                     16                     17                     18
                      A                      A                      A
 Frequencies --    669.8262               675.5799               734.8679
 Red. masses --      1.7148                 2.1489                 3.7942
 Frc consts  --      0.4533                 0.5779                 1.2072
 IR Inten    --     24.8570                23.2894                10.8741

                     19                     20                     21
                      A                      A                      A
 Frequencies --    821.4374               857.1411               927.2287
 Red. masses --      1.0891                 2.3119                 2.4504
 Frc consts  --      0.4330                 1.0007                 1.2413
 IR Inten    --      0.3264                15.6618                14.7339

                     22                     23                     24
                      A                      A                      A
 Frequencies --    967.2533              1001.9910              1080.6348
 Red. masses --      2.1225                 1.6483                 3.4550
 Frc consts  --      1.1700                 0.9750                 2.3771
 IR Inten    --     11.8954                 5.1501                31.0299

                     25                     26                     27
                      A                      A                      A
 Frequencies --   1127.4148              1153.4981              1180.8018
 Red. masses --      2.0985                 5.5910                 2.1841
 Frc consts  --      1.5716                 4.3830                 1.7942
 IR Inten    --      4.6307               205.6818                16.8134

                     28                     29                     30
                      A                      A                      A
 Frequencies --   1190.3446              1206.3920              1297.5720
 Red. masses --      1.9748                 3.3497                 1.1053
 Frc consts  --      1.6486                 2.8723                 1.0965
 IR Inten    --     36.6950                 2.3471                 0.7362

                     31                     32                     33
                      A                      A                      A
 Frequencies --   1381.0403              1400.5274              1401.8005
 Red. masses --      1.1796                 1.2254                 1.2358
 Frc consts  --      1.3255                 1.4161                 1.4307
 IR Inten    --      2.5802                 1.2266                18.1070

                     34                     35                     36
                      A                      A                      A
 Frequencies --   1425.4046              1481.4812              1483.0274
 Red. masses --      1.3703                 1.0517                 1.0404
 Frc consts  --      1.6404                 1.3600                 1.3482
 IR Inten    --     15.4503                 5.3811                 4.3512

                     37                     38                     39
                      A                      A                      A
 Frequencies --   1489.6703              1500.7454              1527.9515
 Red. masses --      1.0516                 1.0460                 1.0856
 Frc consts  --      1.3749                 1.3881                 1.4933
 IR Inten    --      3.6998                 2.9075                 2.8336

                     40                     41                     42
                      A                      A                      A
 Frequencies --   1848.0711              2220.3141              2932.3685
 Red. masses --     10.6818                 5.9040                 1.0868
 Frc consts  --     21.4947                17.1484                 5.5059
 IR Inten    --    168.5228                 3.4487                70.9175

                     43                     44                     45
                      A                      A                      A
 Frequencies --   2997.4776              3035.5428              3045.6459
 Red. masses --      1.0566                 1.1037                 1.0347
 Frc consts  --      5.5931                 5.9919                 5.6548
 IR Inten    --     34.3241                24.2219                17.7174

                     46                     47                     48
                      A                      A                      A
 Frequencies --   3057.9075              3120.1171              3123.8783
 Red. masses --      1.0350                 1.1015                 1.1029
 Frc consts  --      5.7020                 6.3178                 6.3415
 IR Inten    --     11.9328                21.3938                25.3532

                     49                     50                     51
                      A                      A                      A
 Frequencies --   3137.6453              3148.2954              3497.3920
 Red. masses --      1.1023                 1.1022                 1.1619
 Frc consts  --      6.3940                 6.4365                 8.3737
 IR Inten    --     11.7179                 7.2990                65.8600

 - Thermochemistry -
 -------------------
 Temperature   298.150 Kelvin.  Pressure   1.00000 Atm.
 Atom     1 has atomic number  6 and mass  12.00000

 Molecular mass:   126.06808 amu.
 Principal axes and moments of inertia in atomic units:
                           1         2         3
     Eigenvalues --   817.177901591.112741916.83668
           X            0.99964  -0.02258  -0.01473
           Y            0.02222   0.99947  -0.02370
           Z            0.01525   0.02337   0.99961
 This molecule is an asymmetric top.
 Rotational symmetry number  1.
 Warning -- assumption of classical behavior for rotation
           may cause significant error
 Rotational temperatures (Kelvin)      0.10599     0.05444     0.04519
 Rotational constants (GHZ):           2.20850     1.13426     0.94152
 Zero-point vibrational energy     403176.0 (Joules/Mol)
                                   96.36138 (Kcal/Mol)
 Warning -- explicit consideration of  14 degrees of freedom as
           vibrations may cause significant error
 Vibrational temperatures:     70.46   111.42   133.99   198.74   232.65
          (Kelvin)            276.80   323.42   360.54   401.01   504.39
                              543.41   590.99   676.93   783.03   917.78
                              963.73   972.01  1057.31  1181.86  1233.23
                             1334.07  1391.66  1441.64  1554.79  1622.10
                             1659.62  1698.91  1712.64  1735.73  1866.91
                             1987.01  2015.04  2016.88  2050.84  2131.52
                             2133.74  2143.30  2159.24  2198.38  2658.96
                             3194.53  4219.02  4312.70  4367.46  4382.00
                             4399.64  4489.15  4494.56  4514.37  4529.69
                             5031.96

 Zero-point correction=                           0.153562 (Hartree/Particle)
 Thermal correction to Energy=                    0.164445
 Thermal correction to Enthalpy=                  0.165389
 Thermal correction to Gibbs Free Energy=         0.117031
 Sum of electronic and zero-point Energies=           -422.992341
 Sum of electronic and thermal Energies=              -422.981458
 Sum of electronic and thermal Enthalpies=            -422.980513
 Sum of electronic and thermal Free Energies=         -423.028871

                     E (Thermal)             CV                S
                      KCal/Mol        Cal/Mol-Kelvin    Cal/Mol-Kelvin
 Total                  103.191             38.108            101.778
 Electronic               0.000              0.000              0.000
 Translational            0.889              2.981             40.409
 Rotational               0.889              2.981             29.301
 Vibrational            101.413             32.147             32.068
 Vibration     1          0.595              1.978              4.859
 Vibration     2          0.599              1.964              3.955
 Vibration     3          0.602              1.954              3.593
 Vibration     4          0.614              1.915              2.830
 Vibration     5          0.622              1.889              2.530
 Vibration     6          0.634              1.850              2.205
 Vibration     7          0.649              1.803              1.920
 Vibration     8          0.663              1.762              1.726
 Vibration     9          0.679              1.713              1.542
 Vibration    10          0.727              1.574              1.164
 Vibration    11          0.748              1.518              1.048
 Vibration    12          0.775              1.447              0.924
 Vibration    13          0.828              1.316              0.736
 Vibration    14          0.899              1.152              0.556

 Normal termination of Gaussian 09 at Tue Jan 28 12:50:53 2020.
