 Gaussian 09, Revision D.01,
 Gaussian 09:  ES64L-G09RevD.01 24-Apr-2013

 -----------------------------
 # b3lyp 6-31G(2df,p) opt Freq
 -----------------------------

 -----
 titel
 -----
 Symbolic Z-matrix:
 Charge =  0 Multiplicity = 1

 SCF Done:  E(RB3LYP) =  -423.135605252     A.U. after   13 cycles
 Optimization completed.
    -- Stationary point found.
 Normal termination of Gaussian 09 at Tue Jan 28 12:10:03 2020.

 ----------------------------------------------------------------------
 #N Geom=AllCheck Guess=TCheck SCRF=Check GenChk RB3LYP/6-31G(2df,p) Fr
 eq
 ----------------------------------------------------------------------

 Structure from the checkpoint file:  "/scratch/puck/g09_0aa5c327-e349-4878-841d-88612d823b50/Gau-18860.chk"
 -----
 titel
 -----
 Charge =  0 Multiplicity = 1

                         Standard orientation:
 ---------------------------------------------------------------------
 Center     Atomic      Atomic             Coordinates (Angstroms)
 Number     Number       Type             X           Y           Z
 ---------------------------------------------------------------------
      1          6           0       -2.724249    0.230073    0.389695
      2          8           0       -1.812315   -0.437250   -0.465620
      3          6           0       -0.480346   -0.111691   -0.266419
      4          6           0        0.072941    1.257530   -0.679157
      5          6           0        1.347275    1.424594    0.192667
      6          6           0        1.630922    0.000426    0.665819
      7          8           0        1.812382   -0.838693   -0.529644
      8          6           0        0.466352   -1.285906   -0.388760
      9          6           0        0.263819   -0.652879    0.955511
     10          1           0       -2.730889    1.315339    0.220074
     11          1           0       -3.716329   -0.165716    0.161605
     12          1           0       -2.496125    0.044021    1.448067
     13          1           0        0.308779    1.277156   -1.746608
     14          1           0       -0.658999    2.047347   -0.488996
     15          1           0        2.192226    1.839051   -0.363503
     16          1           0        1.158686    2.070695    1.058113
     17          1           0        2.452707   -0.129199    1.372062
     18          1           0        0.181069   -2.247407   -0.799331
     19          1           0       -0.151942   -1.016622    1.884496
 ---------------------------------------------------------------------

 SCF Done:  E(RB3LYP) =  -423.135605252     A.U. after    1 cycles

 The electronic state is 1-A.
 Alpha  occ. eigenvalues --  -19.15119 -19.13201 -10.23861 -10.23734 -10.23299
 Alpha  occ. eigenvalues --  -10.22812 -10.18697 -10.18477 -10.18275  -1.05766
 Alpha  occ. eigenvalues --   -1.03634  -0.83841  -0.77050  -0.70970  -0.68090
 Alpha  occ. eigenvalues --   -0.61161  -0.55677  -0.53580  -0.53368  -0.48806
 Alpha  occ. eigenvalues --   -0.46231  -0.45119  -0.43936  -0.43733  -0.41633
 Alpha  occ. eigenvalues --   -0.38303  -0.36206  -0.35841  -0.34391  -0.32743
 Alpha  occ. eigenvalues --   -0.30741  -0.28566  -0.24656  -0.22292
 Alpha virt. eigenvalues --    0.08129   0.08983   0.10260   0.11464   0.12275
 Alpha virt. eigenvalues --    0.13802   0.14966   0.15057   0.15695   0.16230
 Alpha virt. eigenvalues --    0.17668   0.19111   0.20127   0.21500   0.21603

 Mulliken charges:
               1
     1  C   -0.256201
     2  O   -0.303337
     3  C    0.408281
     4  C   -0.294227
     5  C   -0.206999
     6  C    0.085337
     7  O   -0.315418
     8  C    0.050894
     9  C   -0.235032
    10  H    0.112932
    11  H    0.129821
    12  H    0.109042
    13  H    0.116940
    14  H    0.100357
    15  H    0.110048
    16  H    0.098011
    17  H    0.082401
    18  H    0.109310
    19  H    0.097840
 Sum of Mulliken charges =   0.00000

 Dipole moment (field-independent basis, Debye):
    X=             -1.0664    Y=              1.2432    Z=              1.8585  Tot=              2.4773
 Quadrupole moment (field-independent basis, Debye-Ang):
   XX=            -53.3997   YY=            -52.1030   ZZ=            -52.6377
   XY=              0.9959   XZ=              0.3407   YZ=             -0.7121

  Exact polarizability:  83.739   0.911  71.788   1.053   0.122  65.663
 Approx polarizability: 112.704  -0.656 103.590   0.577   3.851 105.241

                      1                      2                      3
                      A                      A                      A
 Frequencies --     94.0892               161.1006               175.1229
 Red. masses --      1.7723                 2.4152                 1.4000
 Frc consts  --      0.0092                 0.0369                 0.0253
 IR Inten    --      0.8325                 0.3834                 0.3708

                      4                      5                      6
                      A                      A                      A
 Frequencies --    257.3896               360.9387               372.7763
 Red. masses --      2.1382                 3.2934                 3.7392
 Frc consts  --      0.0835                 0.2528                 0.3061
 IR Inten    --      0.6697                 3.3156                 8.7526

                      7                      8                      9
                      A                      A                      A
 Frequencies --    406.2995               507.3366               584.9321
 Red. masses --      4.7595                 2.9743                 4.0455
 Frc consts  --      0.4629                 0.4510                 0.8155
 IR Inten    --      4.4965                 2.3711                 5.3539

                     10                     11                     12
                      A                      A                      A
 Frequencies --    666.9389               747.5539               755.9156
 Red. masses --      3.8248                 3.0731                 3.7558
 Frc consts  --      1.0024                 1.0118                 1.2644
 IR Inten    --      3.9788                 2.7488                 9.5856

                     13                     14                     15
                      A                      A                      A
 Frequencies --    821.6214               842.5953               870.6427
 Red. masses --      1.6809                 1.4621                 1.7852
 Frc consts  --      0.6685                 0.6116                 0.7973
 IR Inten    --      3.8031                 2.2893                13.5521

                     16                     17                     18
                      A                      A                      A
 Frequencies --    894.9816               927.2643               955.9619
 Red. masses --      2.6481                 2.7872                 2.1791
 Frc consts  --      1.2497                 1.4120                 1.1733
 IR Inten    --     16.4384                21.3868                 8.0455

                     19                     20                     21
                      A                      A                      A
 Frequencies --   1012.3872              1021.2347              1027.6222
 Red. masses --      2.0888                 2.4568                 2.5922
 Frc consts  --      1.2614                 1.5096                 1.6128
 IR Inten    --      9.6983                10.1337                31.7303

                     22                     23                     24
                      A                      A                      A
 Frequencies --   1050.1426              1060.6009              1084.7313
 Red. masses --      4.8679                 2.1455                 3.2266
 Frc consts  --      3.1629                 1.4220                 2.2369
 IR Inten    --     25.7546                 7.4031                15.1041

                     25                     26                     27
                      A                      A                      A
 Frequencies --   1154.3912              1173.8217              1180.8169
 Red. masses --      1.5101                 1.7333                 1.2845
 Frc consts  --      1.1857                 1.4071                 1.0552
 IR Inten    --     37.9300                17.1363                 2.2782

                     28                     29                     30
                      A                      A                      A
 Frequencies --   1197.9407              1214.1404              1228.5765
 Red. masses --      1.5171                 1.4683                 1.4375
 Frc consts  --      1.2827                 1.2753                 1.2784
 IR Inten    --      6.0539                30.8512                 2.7416

                     31                     32                     33
                      A                      A                      A
 Frequencies --   1267.9931              1279.6372              1289.5108
 Red. masses --      1.4997                 2.0996                 2.0941
 Frc consts  --      1.4207                 2.0257                 2.0517
 IR Inten    --     41.5649                 0.8416                32.8048

                     34                     35                     36
                      A                      A                      A
 Frequencies --   1328.9628              1346.6701              1402.5931
 Red. masses --      1.5424                 1.6854                 2.8062
 Frc consts  --      1.6050                 1.8008                 3.2526
 IR Inten    --     24.7937                16.2752                14.0614

                     37                     38                     39
                      A                      A                      A
 Frequencies --   1473.2918              1480.2925              1489.0294
 Red. masses --      1.0848                 1.1691                 1.0982
 Frc consts  --      1.3873                 1.5093                 1.4347
 IR Inten    --      0.9996                 1.8938                 1.7890

                     40                     41                     42
                      A                      A                      A
 Frequencies --   1499.0369              1507.6269              2998.3435
 Red. masses --      1.0958                 1.0535                 1.0345
 Frc consts  --      1.4507                 1.4108                 5.4796
 IR Inten    --      7.0795                 6.4699                44.1953

                     43                     44                     45
                      A                      A                      A
 Frequencies --   3039.5044              3051.0286              3062.2938
 Red. masses --      1.0639                 1.1015                 1.0614
 Frc consts  --      5.7913                 6.0414                 5.8645
 IR Inten    --     27.2874                29.5552                48.4844

                     46                     47                     48
                      A                      A                      A
 Frequencies --   3092.7965              3100.7552              3108.9677
 Red. masses --      1.1004                 1.0913                 1.1036
 Frc consts  --      6.2018                 6.1820                 6.2849
 IR Inten    --      8.0016                45.1164                37.8288

                     49                     50                     51
                      A                      A                      A
 Frequencies --   3122.4319              3185.4656              3211.2809
 Red. masses --      1.0986                 1.0915                 1.0987
 Frc consts  --      6.3106                 6.5257                 6.6754
 IR Inten    --     26.4143                15.9711                 6.7280

 - Thermochemistry -
 -------------------
 Temperature   298.150 Kelvin.  Pressure   1.00000 Atm.
 Atom     1 has atomic number  6 and mass  12.00000

 Molecular mass:   126.06808 amu.
 Principal axes and moments of inertia in atomic units:
                           1         2         3
     Eigenvalues --   543.529761221.584991426.07248
           X            0.99994   0.00853  -0.00719
           Y           -0.00872   0.99959  -0.02738
           Z            0.00695   0.02744   0.99960
 This molecule is an asymmetric top.
 Rotational symmetry number  1.
 Warning -- assumption of classical behavior for rotation
           may cause significant error
 Rotational temperatures (Kelvin)      0.15935     0.07090     0.06074
 Rotational constants (GHZ):           3.32041     1.47738     1.26553
 Zero-point vibrational energy     419574.5 (Joules/Mol)
                                  100.28071 (Kcal/Mol)
 Warning -- explicit consideration of   9 degrees of freedom as
           vibrations may cause significant error
 Vibrational temperatures:    135.37   231.79   251.96   370.33   519.31
          (Kelvin)            536.34   584.57   729.94   841.59   959.58
                             1075.56  1087.59  1182.13  1212.31  1252.66
                             1287.68  1334.12  1375.41  1456.60  1469.33
                             1478.52  1510.92  1525.97  1560.68  1660.91
                             1688.87  1698.93  1723.57  1746.88  1767.65
                             1824.36  1841.11  1855.32  1912.08  1937.56
                             2018.02  2119.74  2129.81  2142.38  2156.78
                             2169.14  4313.94  4373.16  4389.74  4405.95
                             4449.84  4461.29  4473.11  4492.48  4583.17
                             4620.31

 Zero-point correction=                           0.159807 (Hartree/Particle)
 Thermal correction to Energy=                    0.167506
 Thermal correction to Enthalpy=                  0.168450
 Thermal correction to Gibbs Free Energy=         0.127656
 Sum of electronic and zero-point Energies=           -422.975798
 Sum of electronic and thermal Energies=              -422.968099
 Sum of electronic and thermal Enthalpies=            -422.967155
 Sum of electronic and thermal Free Energies=         -423.007949

                     E (Thermal)             CV                S
                      KCal/Mol        Cal/Mol-Kelvin    Cal/Mol-Kelvin
 Total                  105.112             30.262             85.858
 Electronic               0.000              0.000              0.000
 Translational            0.889              2.981             40.409
 Rotational               0.889              2.981             28.339
 Vibrational            103.334             24.300             17.110
 Vibration     1          0.603              1.953              3.573
 Vibration     2          0.622              1.890              2.537
 Vibration     3          0.627              1.873              2.380
 Vibration     4          0.667              1.750              1.679
 Vibration     5          0.735              1.553              1.118
 Vibration     6          0.744              1.528              1.068
 Vibration     7          0.771              1.457              0.940
 Vibration     8          0.863              1.234              0.640
 Vibration     9          0.942              1.064              0.476

 Normal termination of Gaussian 09 at Tue Jan 28 13:04:01 2020.
