 Gaussian 09, Revision D.01,
 Gaussian 09:  ES64L-G09RevD.01 24-Apr-2013

 -----------------------------
 # b3lyp 6-31G(2df,p) opt Freq
 -----------------------------

 -----
 titel
 -----
 Symbolic Z-matrix:
 Charge =  0 Multiplicity = 1

 SCF Done:  E(RB3LYP) =  -423.230879174     A.U. after   14 cycles
 Optimization completed.
    -- Stationary point found.
 Normal termination of Gaussian 09 at Mon Jan 27 22:55:53 2020.

 ----------------------------------------------------------------------
 #N Geom=AllCheck Guess=TCheck SCRF=Check GenChk RB3LYP/6-31G(2df,p) Fr
 eq
 ----------------------------------------------------------------------

 Structure from the checkpoint file:  "/scratch/puck/g09_4b1ed729-d1f6-49db-9eb8-11a4eb8df3d8/Gau-191570.chk"
 -----
 titel
 -----
 Charge =  0 Multiplicity = 1

                         Standard orientation:
 ---------------------------------------------------------------------
 Center     Atomic      Atomic             Coordinates (Angstroms)
 Number     Number       Type             X           Y           Z
 ---------------------------------------------------------------------
      1          6           0        2.607174   -0.878384   -0.531804
      2          6           0        1.109264   -0.669922   -0.502520
      3          6           0        0.359710   -0.703670    0.823851
      4          6           0       -1.102532   -1.077978    0.792372
      5          6           0       -1.738986   -0.040531   -0.140291
      6          8           0       -2.868642    0.010036   -0.527109
      7          8           0       -0.799194    0.878342   -0.512843
      8          6           0        0.480723    0.585275    0.046177
      9          6           0        1.208560    1.831152    0.459322
     10          1           0        3.092567   -0.478435    0.363415
     11          1           0        2.845813   -1.946084   -0.581712
     12          1           0        3.060168   -0.392812   -1.402512
     13          1           0        0.579051   -1.095819   -1.352517
     14          1           0        0.934735   -0.852092    1.730869
     15          1           0       -1.315672   -2.080177    0.409074
     16          1           0       -1.579454   -0.999551    1.774922
     17          1           0        0.625473    2.389368    1.198404
     18          1           0        2.178260    1.588584    0.899592
     19          1           0        1.378272    2.484348   -0.402550
 ---------------------------------------------------------------------

 SCF Done:  E(RB3LYP) =  -423.230879174     A.U. after    1 cycles

 The electronic state is 1-A.
 Alpha  occ. eigenvalues --  -19.17936 -19.11969 -10.30217 -10.25503 -10.20570
 Alpha  occ. eigenvalues --  -10.20548 -10.20461 -10.19263 -10.19239  -1.09948
 Alpha  occ. eigenvalues --   -1.02138  -0.87446  -0.77322  -0.74120  -0.69982
 Alpha  occ. eigenvalues --   -0.61301  -0.59087  -0.54835  -0.50029  -0.47927
 Alpha  occ. eigenvalues --   -0.45756  -0.43856  -0.43483  -0.42608  -0.41464
 Alpha  occ. eigenvalues --   -0.40597  -0.39856  -0.38986  -0.37000  -0.36589
 Alpha  occ. eigenvalues --   -0.32618  -0.28723  -0.26504  -0.26177
 Alpha virt. eigenvalues --    0.01425   0.08238   0.09003   0.10064   0.11913
 Alpha virt. eigenvalues --    0.13364   0.13950   0.14630   0.15384   0.16454
 Alpha virt. eigenvalues --    0.17227   0.18365   0.19164   0.20278   0.22488

 Mulliken charges:
               1
     1  C   -0.424452
     2  C   -0.072182
     3  C   -0.129594
     4  C   -0.382806
     5  C    0.405690
     6  O   -0.329722
     7  O   -0.248658
     8  C    0.409563
     9  C   -0.471467
    10  H    0.119169
    11  H    0.126712
    12  H    0.127871
    13  H    0.097128
    14  H    0.096495
    15  H    0.141457
    16  H    0.140810
    17  H    0.131646
    18  H    0.125284
    19  H    0.137057
 Sum of Mulliken charges =   0.00000

 Dipole moment (field-independent basis, Debye):
    X=              3.8654    Y=             -1.0302    Z=              1.7895  Tot=              4.3823
 Quadrupole moment (field-independent basis, Debye-Ang):
   XX=            -61.8996   YY=            -51.7484   ZZ=            -51.8407
   XY=              2.1334   XZ=             -3.7178   YZ=              1.0909

  Exact polarizability:  90.794   2.030  72.256  -1.416  -0.730  64.568
 Approx polarizability: 124.184   2.637 104.299   1.373  -3.205 100.354

                      1                      2                      3
                      A                      A                      A
 Frequencies --     99.8355               175.1891               177.9115
 Red. masses --      5.2262                 1.0739                 1.3309
 Frc consts  --      0.0307                 0.0194                 0.0248
 IR Inten    --      2.3467                 0.1421                 0.0224

                      4                      5                      6
                      A                      A                      A
 Frequencies --    206.6443               240.0552               266.3656
 Red. masses --      2.1147                 1.9897                 2.3050
 Frc consts  --      0.0532                 0.0676                 0.0964
 IR Inten    --      1.8215                 0.2168                 0.1252

                      7                      8                      9
                      A                      A                      A
 Frequencies --    308.5368               420.1013               441.6438
 Red. masses --      2.7493                 3.6828                 3.3624
 Frc consts  --      0.1542                 0.3829                 0.3864
 IR Inten    --      0.1283                 1.0892                 0.8238

                     10                     11                     12
                      A                      A                      A
 Frequencies --    504.2454               563.2129               624.7149
 Red. masses --      4.7428                 2.6762                 3.8538
 Frc consts  --      0.7105                 0.5002                 0.8861
 IR Inten    --      5.0181                 4.3420                 2.1042

                     13                     14                     15
                      A                      A                      A
 Frequencies --    691.8801               736.5808               815.6986
 Red. masses --      5.4240                 4.0831                 2.4861
 Frc consts  --      1.5298                 1.3052                 0.9746
 IR Inten    --      4.6489                 3.1914                 5.4996

                     16                     17                     18
                      A                      A                      A
 Frequencies --    833.1662               890.7684               919.8681
 Red. masses --      4.4524                 2.2297                 1.3136
 Frc consts  --      1.8210                 1.0424                 0.6549
 IR Inten    --      7.5510                12.5231                 9.8526

                     19                     20                     21
                      A                      A                      A
 Frequencies --    985.9356               999.5475              1027.5261
 Red. masses --      2.3209                 1.6222                 1.3500
 Frc consts  --      1.3292                 0.9549                 0.8398
 IR Inten    --     31.7139                 7.1896                23.4978

                     22                     23                     24
                      A                      A                      A
 Frequencies --   1064.9244              1098.3404              1112.8104
 Red. masses --      1.7819                 1.8490                 1.9964
 Frc consts  --      1.1906                 1.3142                 1.4566
 IR Inten    --      1.0587                35.6648                14.5353

                     25                     26                     27
                      A                      A                      A
 Frequencies --   1130.7935              1135.7667              1170.8000
 Red. masses --      2.3452                 2.0144                 3.0459
 Frc consts  --      1.7669                 1.5310                 2.4600
 IR Inten    --     22.0720                 3.9139               184.0791

                     28                     29                     30
                      A                      A                      A
 Frequencies --   1199.3355              1227.6879              1294.2221
 Red. masses --      1.3200                 2.4605                 2.1313
 Frc consts  --      1.1186                 2.1850                 2.1033
 IR Inten    --      5.5287                35.8531                 8.6400

                     31                     32                     33
                      A                      A                      A
 Frequencies --   1298.3391              1344.2762              1414.3227
 Red. masses --      1.6369                 1.5395                 1.3333
 Frc consts  --      1.6258                 1.6392                 1.5714
 IR Inten    --     34.1288                 3.4482                 1.4694

                     34                     35                     36
                      A                      A                      A
 Frequencies --   1423.6425              1454.1811              1465.7982
 Red. masses --      1.2340                 2.4354                 1.1678
 Frc consts  --      1.4736                 3.0343                 1.4784
 IR Inten    --      6.7204                 2.0128                 8.3490

                     37                     38                     39
                      A                      A                      A
 Frequencies --   1477.2883              1493.0915              1496.3427
 Red. masses --      1.0493                 1.0468                 1.0525
 Frc consts  --      1.3493                 1.3749                 1.3885
 IR Inten    --      3.3634                 1.6653                 4.1009

                     40                     41                     42
                      A                      A                      A
 Frequencies --   1512.1167              1884.3161              3034.1141
 Red. masses --      1.1718                12.9847                 1.0354
 Frc consts  --      1.5786                27.1637                 5.6162
 IR Inten    --      8.4680               401.3711                27.5731

                     43                     44                     45
                      A                      A                      A
 Frequencies --   3042.8375              3057.7852              3096.5562
 Red. masses --      1.0364                 1.0605                 1.1014
 Frc consts  --      5.6538                 5.8424                 6.2223
 IR Inten    --     20.9676                14.4229                20.1400

                     46                     47                     48
                      A                      A                      A
 Frequencies --   3097.1383              3103.0285              3105.9941
 Red. masses --      1.1025                 1.0984                 1.1017
 Frc consts  --      6.2308                 6.2316                 6.2621
 IR Inten    --      5.0663                 9.1742                18.8122

                     49                     50                     51
                      A                      A                      A
 Frequencies --   3126.0837              3130.8902              3174.1615
 Red. masses --      1.0914                 1.0982                 1.0906
 Frc consts  --      6.2842                 6.3424                 6.4741
 IR Inten    --     13.2573                19.2891                10.2132

 - Thermochemistry -
 -------------------
 Temperature   298.150 Kelvin.  Pressure   1.00000 Atm.
 Atom     1 has atomic number  6 and mass  12.00000

 Molecular mass:   126.06808 amu.
 Principal axes and moments of inertia in atomic units:
                           1         2         3
     Eigenvalues --   584.663981414.798261667.76347
           X            0.99979   0.01304  -0.01582
           Y           -0.01257   0.99949   0.02950
           Z            0.01619  -0.02930   0.99944
 This molecule is an asymmetric top.
 Rotational symmetry number  1.
 Warning -- assumption of classical behavior for rotation
           may cause significant error
 Rotational temperatures (Kelvin)      0.14814     0.06122     0.05193
 Rotational constants (GHZ):           3.08680     1.27562     1.08213
 Zero-point vibrational energy     416279.0 (Joules/Mol)
                                   99.49307 (Kcal/Mol)
 Warning -- explicit consideration of  11 degrees of freedom as
           vibrations may cause significant error
 Vibrational temperatures:    143.64   252.06   255.97   297.31   345.39
          (Kelvin)            383.24   443.92   604.43   635.43   725.50
                              810.34   898.82   995.46  1059.77  1173.61
                             1198.74  1281.62  1323.48  1418.54  1438.12
                             1478.38  1532.19  1580.26  1601.08  1626.96
                             1634.11  1684.52  1725.57  1766.37  1862.09
                             1868.02  1934.11  2034.89  2048.30  2092.24
                             2108.95  2125.49  2148.22  2152.90  2175.60
                             2711.11  4365.41  4377.96  4399.47  4455.25
                             4456.09  4464.56  4468.83  4497.73  4504.65
                             4566.90

 Zero-point correction=                           0.158552 (Hartree/Particle)
 Thermal correction to Energy=                    0.167175
 Thermal correction to Enthalpy=                  0.168119
 Thermal correction to Gibbs Free Energy=         0.125553
 Sum of electronic and zero-point Energies=           -423.072327
 Sum of electronic and thermal Energies=              -423.063704
 Sum of electronic and thermal Enthalpies=            -423.062760
 Sum of electronic and thermal Free Energies=         -423.105326

                     E (Thermal)             CV                S
                      KCal/Mol        Cal/Mol-Kelvin    Cal/Mol-Kelvin
 Total                  104.904             32.834             89.587
 Electronic               0.000              0.000              0.000
 Translational            0.889              2.981             40.409
 Rotational               0.889              2.981             28.713
 Vibrational            103.126             26.873             20.465
 Vibration     1          0.604              1.949              3.458
 Vibration     2          0.627              1.873              2.379
 Vibration     3          0.628              1.870              2.350
 Vibration     4          0.641              1.830              2.073
 Vibration     5          0.657              1.779              1.802
 Vibration     6          0.672              1.735              1.620
 Vibration     7          0.698              1.657              1.370
 Vibration     8          0.783              1.427              0.892
 Vibration     9          0.801              1.379              0.821
 Vibration    10          0.860              1.241              0.648
 Vibration    11          0.919              1.111              0.517

 Normal termination of Gaussian 09 at Mon Jan 27 23:39:24 2020.
