 Gaussian 09, Revision D.01,
 Gaussian 09:  ES64L-G09RevD.01 24-Apr-2013

 -----------------------------
 # b3lyp 6-31G(2df,p) opt Freq
 -----------------------------

 -----
 titel
 -----
 Symbolic Z-matrix:
 Charge =  0 Multiplicity = 1

 SCF Done:  E(RB3LYP) =  -423.155933220     A.U. after   14 cycles
 Optimization completed.
    -- Stationary point found.
 Normal termination of Gaussian 09 at Mon Jan 27 13:22:40 2020.

 ----------------------------------------------------------------------
 #N Geom=AllCheck Guess=TCheck SCRF=Check GenChk RB3LYP/6-31G(2df,p) Fr
 eq
 ----------------------------------------------------------------------

 Structure from the checkpoint file:  "/scratch/puck/g09_895b8582-8e1f-4b8c-91e6-0293d492cd91/Gau-75803.chk"
 -----
 titel
 -----
 Charge =  0 Multiplicity = 1

                         Standard orientation:
 ---------------------------------------------------------------------
 Center     Atomic      Atomic             Coordinates (Angstroms)
 Number     Number       Type             X           Y           Z
 ---------------------------------------------------------------------
      1          8           0       -1.820361   -1.560340    0.366852
      2          6           0       -1.889081   -0.729485   -0.505868
      3          6           0       -0.849883    0.323507   -0.781705
      4          6           0       -1.194329    1.630619    0.025358
      5          6           0       -0.139323    1.198852    1.077292
      6          6           0        0.451950    0.206900    0.048012
      7          6           0        1.808042    0.541294   -0.610923
      8          8           0        2.407038   -0.658789   -0.094329
      9          6           0        1.140475   -1.110945    0.439117
     10          1           0       -2.791473   -0.662543   -1.156585
     11          1           0       -0.745498    0.453764   -1.864500
     12          1           0       -0.904653    2.525046   -0.530241
     13          1           0       -2.226640    1.747939    0.363740
     14          1           0        0.529429    1.971722    1.464265
     15          1           0       -0.597490    0.671108    1.917940
     16          1           0        1.798457    0.556568   -1.710887
     17          1           0        2.310668    1.447669   -0.247971
     18          1           0        0.773812   -2.004159   -0.077834
     19          1           0        1.192873   -1.318530    1.514191
 ---------------------------------------------------------------------

 SCF Done:  E(RB3LYP) =  -423.155933220     A.U. after    1 cycles

 The electronic state is 1-A.
 Alpha  occ. eigenvalues --  -19.14749 -19.12720 -10.27795 -10.23009 -10.22243
 Alpha  occ. eigenvalues --  -10.20643 -10.20579 -10.20392 -10.19214  -1.05383
 Alpha  occ. eigenvalues --   -1.03335  -0.86188  -0.71771  -0.70419  -0.68889
 Alpha  occ. eigenvalues --   -0.61494  -0.58561  -0.52785  -0.50725  -0.49522
 Alpha  occ. eigenvalues --   -0.48046  -0.45664  -0.43359  -0.42285  -0.40367
 Alpha  occ. eigenvalues --   -0.39517  -0.38310  -0.36878  -0.35125  -0.32372
 Alpha  occ. eigenvalues --   -0.31417  -0.28669  -0.25754  -0.24277
 Alpha virt. eigenvalues --   -0.02964   0.07157   0.07943   0.09249   0.11313
 Alpha virt. eigenvalues --    0.12035   0.12789   0.13908   0.15391   0.16138
 Alpha virt. eigenvalues --    0.17192   0.17841   0.19459   0.19632   0.21514

 Mulliken charges:
               1
     1  O   -0.249624
     2  C    0.147556
     3  C   -0.190885
     4  C   -0.232524
     5  C   -0.285379
     6  C    0.322313
     7  C   -0.131373
     8  O   -0.275994
     9  C   -0.139137
    10  H    0.084092
    11  H    0.086095
    12  H    0.116139
    13  H    0.111967
    14  H    0.105630
    15  H    0.123948
    16  H    0.092552
    17  H    0.099882
    18  H    0.108323
    19  H    0.106419
 Sum of Mulliken charges =   0.00000

 Dipole moment (field-independent basis, Debye):
    X=             -1.4432    Y=              2.6444    Z=             -1.2352  Tot=              3.2560
 Quadrupole moment (field-independent basis, Debye-Ang):
   XX=            -59.5786   YY=            -54.8422   ZZ=            -51.0192
   XY=             -0.5499   XZ=              2.6305   YZ=              1.0036

  Exact polarizability:  78.826   2.413  76.991   2.065  -3.334  69.689
 Approx polarizability: 105.617   3.577 114.962   1.752 -10.378 108.356

                      1                      2                      3
                      A                      A                      A
 Frequencies --     67.1128                93.3295               129.2807
 Red. masses --      3.3758                 4.2695                 2.3288
 Frc consts  --      0.0090                 0.0219                 0.0229
 IR Inten    --      1.7095                 6.7651                 1.9840

                      4                      5                      6
                      A                      A                      A
 Frequencies --    151.3560               250.2226               284.0760
 Red. masses --      5.1533                 2.2469                 2.3750
 Frc consts  --      0.0696                 0.0829                 0.1129
 IR Inten    --      4.6226                 1.9095                 1.4052

                      7                      8                      9
                      A                      A                      A
 Frequencies --    363.8522               378.3574               494.6931
 Red. masses --      2.2610                 2.6204                 4.5213
 Frc consts  --      0.1764                 0.2210                 0.6519
 IR Inten    --      0.2174                 3.7569                 4.1278

                     10                     11                     12
                      A                      A                      A
 Frequencies --    651.2960               747.3289               794.7406
 Red. masses --      3.0104                 1.5411                 2.6549
 Frc consts  --      0.7524                 0.5071                 0.9880
 IR Inten    --      3.8272                 8.7471                 4.2029

                     13                     14                     15
                      A                      A                      A
 Frequencies --    855.9949               883.4849               891.7349
 Red. masses --      3.7950                 1.8758                 2.1166
 Frc consts  --      1.6384                 0.8627                 0.9916
 IR Inten    --      9.5458                 3.8448                 2.5861

                     16                     17                     18
                      A                      A                      A
 Frequencies --    893.5556               956.9857               959.5216
 Red. masses --      2.4992                 2.1822                 1.3120
 Frc consts  --      1.1757                 1.1775                 0.7117
 IR Inten    --      0.5453                 2.2679                 7.4520

                     19                     20                     21
                      A                      A                      A
 Frequencies --    975.8432              1004.7007              1013.8350
 Red. masses --      3.0508                 1.7121                 2.4555
 Frc consts  --      1.7117                 1.0182                 1.4870
 IR Inten    --     39.2882                 2.6467                 8.7150

                     22                     23                     24
                      A                      A                      A
 Frequencies --   1037.3385              1128.3644              1149.5077
 Red. masses --     10.5583                 1.7939                 1.3233
 Frc consts  --      6.6940                 1.3457                 1.0302
 IR Inten    --     82.6118                 2.4983                 0.5222

                     25                     26                     27
                      A                      A                      A
 Frequencies --   1158.7337              1162.1382              1188.8071
 Red. masses --      1.1481                 1.8437                 1.5530
 Frc consts  --      0.9082                 1.4671                 1.2931
 IR Inten    --      0.0611                 0.2036                 1.8533

                     28                     29                     30
                      A                      A                      A
 Frequencies --   1199.7896              1226.7491              1248.2419
 Red. masses --      2.2058                 1.5488                 1.4455
 Frc consts  --      1.8708                 1.3733                 1.3270
 IR Inten    --      5.6630                 0.4378                 8.2211

                     31                     32                     33
                      A                      A                      A
 Frequencies --   1270.0201              1289.7694              1308.3056
 Red. masses --      1.5776                 1.6602                 1.3120
 Frc consts  --      1.4993                 1.6272                 1.3231
 IR Inten    --      2.4862                 3.6157                 2.2173

                     34                     35                     36
                      A                      A                      A
 Frequencies --   1349.1091              1383.7830              1420.6486
 Red. masses --      1.8876                 1.6840                 1.2051
 Frc consts  --      2.0242                 1.8998                 1.4330
 IR Inten    --     14.5384                 2.1627                 8.9348

                     37                     38                     39
                      A                      A                      A
 Frequencies --   1478.0538              1494.6572              1505.8854
 Red. masses --      1.0858                 1.1144                 1.0829
 Frc consts  --      1.3976                 1.4668                 1.4468
 IR Inten    --      3.2034                 0.6629                 0.8190

                     40                     41                     42
                      A                      A                      A
 Frequencies --   1531.5504              1813.7708              2866.3285
 Red. masses --      1.1108                10.1143                 1.0826
 Frc consts  --      1.5352                19.6042                 5.2406
 IR Inten    --      0.4724               126.2117               137.5107

                     43                     44                     45
                      A                      A                      A
 Frequencies --   2984.5700              3028.6486              3032.5764
 Red. masses --      1.0572                 1.0625                 1.1009
 Frc consts  --      5.5482                 5.7424                 5.9651
 IR Inten    --     80.4539                42.2066                30.5198

                     46                     47                     48
                      A                      A                      A
 Frequencies --   3049.0554              3059.8063              3067.5285
 Red. masses --      1.0832                 1.0571                 1.0614
 Frc consts  --      5.9333                 5.8313                 5.8846
 IR Inten    --     29.6627                26.0499                31.5441

                     49                     50                     51
                      A                      A                      A
 Frequencies --   3075.0188              3108.1712              3125.2833
 Red. masses --      1.1102                 1.1089                 1.1078
 Frc consts  --      6.1848                 6.3120                 6.3753
 IR Inten    --     36.8718                 4.6773                28.9348

 - Thermochemistry -
 -------------------
 Temperature   298.150 Kelvin.  Pressure   1.00000 Atm.
 Atom     1 has atomic number  8 and mass  15.99491

 Molecular mass:   126.06808 amu.
 Principal axes and moments of inertia in atomic units:
                           1         2         3
     Eigenvalues --   692.414721240.315201576.32885
           X            0.99980  -0.01827   0.00804
           Y            0.01826   0.99983   0.00211
           Z           -0.00808  -0.00197   0.99997
 This molecule is an asymmetric top.
 Rotational symmetry number  1.
 Warning -- assumption of classical behavior for rotation
           may cause significant error
 Rotational temperatures (Kelvin)      0.12509     0.06983     0.05495
 Rotational constants (GHZ):           2.60645     1.45507     1.14490
 Zero-point vibrational energy     416201.8 (Joules/Mol)
                                   99.47462 (Kcal/Mol)
 Warning -- explicit consideration of   9 degrees of freedom as
           vibrations may cause significant error
 Vibrational temperatures:     96.56   134.28   186.01   217.77   360.01
          (Kelvin)            408.72   523.50   544.37   711.75   937.07
                             1075.24  1143.45  1231.58  1271.14  1283.01
                             1285.63  1376.89  1380.54  1404.02  1445.54
                             1458.68  1492.50  1623.46  1653.88  1667.16
                             1672.06  1710.43  1726.23  1765.02  1795.94
                             1827.27  1855.69  1882.36  1941.06  1990.95
                             2043.99  2126.59  2150.48  2166.63  2203.56
                             2609.61  4124.00  4294.13  4357.54  4363.20
                             4386.91  4402.37  4413.48  4424.26  4471.96
                             4496.58

 Zero-point correction=                           0.158523 (Hartree/Particle)
 Thermal correction to Energy=                    0.167052
 Thermal correction to Enthalpy=                  0.167996
 Thermal correction to Gibbs Free Energy=         0.124674
 Sum of electronic and zero-point Energies=           -422.997410
 Sum of electronic and thermal Energies=              -422.988882
 Sum of electronic and thermal Enthalpies=            -422.987938
 Sum of electronic and thermal Free Energies=         -423.031259

                     E (Thermal)             CV                S
                      KCal/Mol        Cal/Mol-Kelvin    Cal/Mol-Kelvin
 Total                  104.826             31.123             91.178
 Electronic               0.000              0.000              0.000
 Translational            0.889              2.981             40.409
 Rotational               0.889              2.981             28.695
 Vibrational            103.049             25.161             22.075
 Vibration     1          0.598              1.970              4.236
 Vibration     2          0.602              1.954              3.589
 Vibration     3          0.612              1.924              2.957
 Vibration     4          0.619              1.901              2.655
 Vibration     5          0.663              1.762              1.729
 Vibration     6          0.682              1.703              1.509
 Vibration     7          0.737              1.547              1.106
 Vibration     8          0.749              1.516              1.046
 Vibration     9          0.850              1.262              0.672

 Optimization completed.
    -- Stationary point found.
 Normal termination of Gaussian 09 at Mon Jan 27 14:09:58 2020.
