 Gaussian 09, Revision D.01,
 Gaussian 09:  ES64L-G09RevD.01 24-Apr-2013

 -----------------------------
 # b3lyp 6-31G(2df,p) opt Freq
 -----------------------------

 -----
 titel
 -----
 Symbolic Z-matrix:
 Charge =  0 Multiplicity = 1

 SCF Done:  E(RB3LYP) =  -423.114658442     A.U. after   13 cycles
 Optimization completed.
    -- Stationary point found.
 Normal termination of Gaussian 09 at Tue Jan 28 09:40:18 2020.

 ----------------------------------------------------------------------
 #N Geom=AllCheck Guess=TCheck SCRF=Check GenChk RB3LYP/6-31G(2df,p) Fr
 eq
 ----------------------------------------------------------------------

 Structure from the checkpoint file:  "/scratch/puck/g09_a8fe275f-cca1-4ed6-9909-db556147d32a/Gau-132258.chk"
 -----
 titel
 -----
 Charge =  0 Multiplicity = 1

                         Standard orientation:
 ---------------------------------------------------------------------
 Center     Atomic      Atomic             Coordinates (Angstroms)
 Number     Number       Type             X           Y           Z
 ---------------------------------------------------------------------
      1          8           0       -2.745459   -0.884367    0.181696
      2          6           0       -2.072512    0.178439   -0.479975
      3          6           0       -0.627002    0.269697   -0.093946
      4          6           0       -0.135253    1.028600    1.109153
      5          6           0        0.389097    1.419611   -0.246195
      6          6           0        1.458089    0.438320   -0.781619
      7          6           0        2.349159   -0.310791    0.229015
      8          8           0        1.313448   -1.304837    0.457969
      9          6           0        0.469042   -0.719681   -0.563902
     10          1           0       -2.563350   -0.796200    1.123461
     11          1           0       -2.177281   -0.036952   -1.549880
     12          1           0       -2.562953    1.149240   -0.296101
     13          1           0       -0.850380    1.730795    1.528269
     14          1           0        0.491375    0.535265    1.843544
     15          1           0        0.222396    2.414075   -0.643062
     16          1           0        1.869624    0.680571   -1.759715
     17          1           0        3.241791   -0.769556   -0.213733
     18          1           0        2.632586    0.217449    1.146813
     19          1           0        0.168557   -1.436226   -1.332097
 ---------------------------------------------------------------------

 SCF Done:  E(RB3LYP) =  -423.114658442     A.U. after    1 cycles

 The electronic state is 1-A.
 Alpha  occ. eigenvalues --  -19.13224 -19.13192 -10.23359 -10.22981 -10.22975
 Alpha  occ. eigenvalues --  -10.20287 -10.19771 -10.19600 -10.19367  -1.03736
 Alpha  occ. eigenvalues --   -1.01294  -0.88916  -0.73965  -0.70694  -0.68530
 Alpha  occ. eigenvalues --   -0.60502  -0.57445  -0.53410  -0.52250  -0.49050
 Alpha  occ. eigenvalues --   -0.47565  -0.45233  -0.45099  -0.42451  -0.40782
 Alpha  occ. eigenvalues --   -0.39451  -0.36964  -0.33977  -0.33120  -0.30616
 Alpha  occ. eigenvalues --   -0.29101  -0.27762  -0.24780  -0.24319
 Alpha virt. eigenvalues --    0.06105   0.08527   0.08871   0.10225   0.12328
 Alpha virt. eigenvalues --    0.12746   0.13499   0.14305   0.15576   0.16892
 Alpha virt. eigenvalues --    0.17816   0.18529   0.19180   0.20485   0.21212

 Mulliken charges:
               1
     1  O   -0.412504
     2  C   -0.181245
     3  C    0.333420
     4  C   -0.353705
     5  C   -0.142579
     6  C   -0.066333
     7  C   -0.109287
     8  O   -0.298321
     9  C    0.048440
    10  H    0.283990
    11  H    0.106959
    12  H    0.083008
    13  H    0.111251
    14  H    0.133638
    15  H    0.092341
    16  H    0.081646
    17  H    0.103712
    18  H    0.103509
    19  H    0.082062
 Sum of Mulliken charges =   0.00000

 Dipole moment (field-independent basis, Debye):
    X=              0.9323    Y=              2.3631    Z=             -0.3276  Tot=              2.5614
 Quadrupole moment (field-independent basis, Debye-Ang):
   XX=            -55.4711   YY=            -56.2107   ZZ=            -49.6387
   XY=             -1.8112   XZ=             -3.2496   YZ=              0.8811

  Exact polarizability:  85.325  -0.863  69.146   0.018   1.820  69.055
 Approx polarizability: 112.459   3.838 107.850   0.484   0.331 106.498

                      1                      2                      3
                      A                      A                      A
 Frequencies --     78.0433               115.7044               227.2859
 Red. masses --      3.6986                 4.3952                 2.8946
 Frc consts  --      0.0133                 0.0347                 0.0881
 IR Inten    --      1.4377                 1.5984                 2.8417

                      4                      5                      6
                      A                      A                      A
 Frequencies --    260.4358               327.8190               342.8365
 Red. masses --      2.1719                 1.5347                 2.7543
 Frc consts  --      0.0868                 0.0972                 0.1907
 IR Inten    --     23.2828                50.5325                 0.3724

                      7                      8                      9
                      A                      A                      A
 Frequencies --    385.7672               449.6550               527.7899
 Red. masses --      2.3541                 2.7951                 2.5102
 Frc consts  --      0.2064                 0.3330                 0.4120
 IR Inten    --     54.8933                 1.2710                 3.1164

                     10                     11                     12
                      A                      A                      A
 Frequencies --    668.1406               721.5376               805.1213
 Red. masses --      4.0326                 2.9977                 2.9920
 Frc consts  --      1.0606                 0.9195                 1.1427
 IR Inten    --      0.9642                10.5736                 3.0376

                     13                     14                     15
                      A                      A                      A
 Frequencies --    831.6830               857.6136               898.0477
 Red. masses --      1.9207                 2.9551                 2.4179
 Frc consts  --      0.7827                 1.2806                 1.1489
 IR Inten    --      2.9992                 8.8897                 8.7878

                     16                     17                     18
                      A                      A                      A
 Frequencies --    916.5037               920.2695               969.9860
 Red. masses --      1.8311                 1.8232                 2.9878
 Frc consts  --      0.9062                 0.9097                 1.6563
 IR Inten    --     17.8911                17.4780                43.4399

                     19                     20                     21
                      A                      A                      A
 Frequencies --    973.8830               988.4038              1003.8315
 Red. masses --      1.6342                 3.7910                 1.8085
 Frc consts  --      0.9132                 2.1821                 1.0737
 IR Inten    --      1.1544                54.3385                 8.6348

                     22                     23                     24
                      A                      A                      A
 Frequencies --   1022.9155              1052.6275              1067.6132
 Red. masses --      1.6368                 2.7124                 2.5343
 Frc consts  --      1.0091                 1.7707                 1.7019
 IR Inten    --     15.3919                60.8835                38.7480

                     25                     26                     27
                      A                      A                      A
 Frequencies --   1083.1379              1114.9867              1157.9162
 Red. masses --      1.4552                 1.8397                 1.2229
 Frc consts  --      1.0059                 1.3475                 0.9660
 IR Inten    --      2.2257                 3.6072                 1.3121

                     28                     29                     30
                      A                      A                      A
 Frequencies --   1179.1600              1195.2382              1212.8416
 Red. masses --      1.5059                 1.6811                 1.6618
 Frc consts  --      1.2336                 1.4150                 1.4402
 IR Inten    --     16.4487                 1.7084                 1.6928

                     31                     32                     33
                      A                      A                      A
 Frequencies --   1243.8080              1274.3021              1297.9976
 Red. masses --      1.5608                 1.4363                 1.7271
 Frc consts  --      1.4227                 1.3741                 1.7144
 IR Inten    --      7.5198                10.6865                 6.6524

                     34                     35                     36
                      A                      A                      A
 Frequencies --   1308.1100              1353.5569              1362.0380
 Red. masses --      1.9904                 1.4872                 1.2881
 Frc consts  --      2.0067                 1.6053                 1.4080
 IR Inten    --      1.7671                 3.5376                 0.8700

                     37                     38                     39
                      A                      A                      A
 Frequencies --   1397.4718              1429.5401              1490.0187
 Red. masses --      1.7626                 1.3780                 1.3509
 Frc consts  --      2.0281                 1.6592                 1.7671
 IR Inten    --      3.8826                77.1070                 5.3032

                     40                     41                     42
                      A                      A                      A
 Frequencies --   1505.1093              1519.8829              2962.4232
 Red. masses --      1.0988                 1.0965                 1.0710
 Frc consts  --      1.4666                 1.4924                 5.5376
 IR Inten    --      1.8749                 0.7538                63.1421

                     43                     44                     45
                      A                      A                      A
 Frequencies --   3017.1017              3053.7923              3063.1209
 Red. masses --      1.0556                 1.0908                 1.1102
 Frc consts  --      5.6612                 5.9932                 6.1371
 IR Inten    --     77.7592                26.9392                35.4332

                     46                     47                     48
                      A                      A                      A
 Frequencies --   3083.0222              3127.4269              3128.8682
 Red. masses --      1.0892                 1.0542                 1.0898
 Frc consts  --      6.0996                 6.0747                 6.2860
 IR Inten    --     40.9196                12.6913                27.6294

                     49                     50                     51
                      A                      A                      A
 Frequencies --   3179.5647              3212.5480              3808.0242
 Red. masses --      1.0933                 1.1145                 1.0660
 Frc consts  --      6.5121                 6.7769                 9.1074
 IR Inten    --     16.7421                 6.4285                14.1688

 - Thermochemistry -
 -------------------
 Temperature   298.150 Kelvin.  Pressure   1.00000 Atm.
 Atom     1 has atomic number  8 and mass  15.99491

 Molecular mass:   126.06808 amu.
 Principal axes and moments of inertia in atomic units:
                           1         2         3
     Eigenvalues --   542.972381397.065341581.51652
           X            0.99995  -0.00975  -0.00192
           Y            0.00982   0.99919   0.03896
           Z            0.00154  -0.03898   0.99924
 This molecule is an asymmetric top.
 Rotational symmetry number  1.
 Warning -- assumption of classical behavior for rotation
           may cause significant error
 Rotational temperatures (Kelvin)      0.15952     0.06200     0.05477
 Rotational constants (GHZ):           3.32382     1.29181     1.14115
 Zero-point vibrational energy     419736.9 (Joules/Mol)
                                  100.31952 (Kcal/Mol)
 Warning -- explicit consideration of   9 degrees of freedom as
           vibrations may cause significant error
 Vibrational temperatures:    112.29   166.47   327.01   374.71   471.66
          (Kelvin)            493.26   555.03   646.95   759.37   961.30
                             1038.13  1158.39  1196.60  1233.91  1292.09
                             1318.64  1324.06  1395.59  1401.20  1422.09
                             1444.29  1471.75  1514.49  1536.06  1558.39
                             1604.22  1665.98  1696.55  1719.68  1745.01
                             1789.56  1833.43  1867.53  1882.08  1947.46
                             1959.67  2010.65  2056.79  2143.80  2165.51
                             2186.77  4262.26  4340.93  4393.72  4407.14
                             4435.78  4499.66  4501.74  4574.68  4622.13
                             5478.89

 Zero-point correction=                           0.159869 (Hartree/Particle)
 Thermal correction to Energy=                    0.167784
 Thermal correction to Enthalpy=                  0.168728
 Thermal correction to Gibbs Free Energy=         0.127263
 Sum of electronic and zero-point Energies=           -422.954789
 Sum of electronic and thermal Energies=              -422.946875
 Sum of electronic and thermal Enthalpies=            -422.945930
 Sum of electronic and thermal Free Energies=         -422.987395

                     E (Thermal)             CV                S
                      KCal/Mol        Cal/Mol-Kelvin    Cal/Mol-Kelvin
 Total                  105.286             30.890             87.270
 Electronic               0.000              0.000              0.000
 Translational            0.889              2.981             40.409
 Rotational               0.889              2.981             28.575
 Vibrational            103.509             24.928             18.287
 Vibration     1          0.599              1.964              3.939
 Vibration     2          0.608              1.936              3.171
 Vibration     3          0.651              1.799              1.900
 Vibration     4          0.668              1.745              1.659
 Vibration     5          0.711              1.620              1.271
 Vibration     6          0.722              1.590              1.199
 Vibration     7          0.754              1.501              1.016
 Vibration     8          0.809              1.362              0.797
 Vibration     9          0.883              1.188              0.592

 Optimization completed.
    -- Stationary point found.
 Normal termination of Gaussian 09 at Tue Jan 28 10:24:12 2020.
