 Gaussian 09, Revision D.01,
 Gaussian 09:  ES64L-G09RevD.01 24-Apr-2013

 -----------------------------
 # b3lyp 6-31G(2df,p) opt Freq
 -----------------------------

 -----
 titel
 -----
 Symbolic Z-matrix:
 Charge =  0 Multiplicity = 1

 SCF Done:  E(RB3LYP) =  -423.166884694     A.U. after   13 cycles
 Optimization completed.
    -- Stationary point found.
 Normal termination of Gaussian 09 at Tue Jan 28 14:07:55 2020.

 ----------------------------------------------------------------------
 #N Geom=AllCheck Guess=TCheck SCRF=Check GenChk RB3LYP/6-31G(2df,p) Fr
 eq
 ----------------------------------------------------------------------

 Structure from the checkpoint file:  "/scratch/puck/g09_2aa8623b-58e2-49b8-9c19-f86469a3a260/Gau-144664.chk"
 -----
 titel
 -----
 Charge =  0 Multiplicity = 1

                         Standard orientation:
 ---------------------------------------------------------------------
 Center     Atomic      Atomic             Coordinates (Angstroms)
 Number     Number       Type             X           Y           Z
 ---------------------------------------------------------------------
      1          8           0       -2.714100   -1.318124    0.049237
      2          6           0       -2.209253   -0.003635    0.215885
      3          6           0       -0.864941    0.222090   -0.498619
      4          6           0       -0.425282    1.673348   -0.437228
      5          6           0        0.694318    1.842499    0.273798
      6          6           0        1.265660    0.544150    0.718178
      7          6           0        1.665321   -0.395368   -0.414310
      8          8           0        2.511308   -1.468832   -0.132669
      9          6           0        0.298059   -0.511190    0.174651
     10          1           0       -2.109950   -1.927799    0.484104
     11          1           0       -2.966046    0.660965   -0.213937
     12          1           0       -2.106240    0.260592    1.280021
     13          1           0       -0.997505   -0.114861   -1.535675
     14          1           0       -0.988719    2.465302   -0.918245
     15          1           0        1.174150    2.795249    0.468433
     16          1           0        1.771215    0.433285    1.671014
     17          1           0        1.770091    0.044171   -1.407540
     18          1           0        3.414129   -1.135129   -0.098707
     19          1           0        0.117917   -1.417484    0.743848
 ---------------------------------------------------------------------

 SCF Done:  E(RB3LYP) =  -423.166884694     A.U. after    1 cycles

 The electronic state is 1-A.
 Alpha  occ. eigenvalues --  -19.14687 -19.13171 -10.23708 -10.22291 -10.19090
 Alpha  occ. eigenvalues --  -10.19048 -10.19007 -10.18546 -10.18061  -1.03227
 Alpha  occ. eigenvalues --   -1.01260  -0.88281  -0.76973  -0.72859  -0.64379
 Alpha  occ. eigenvalues --   -0.60703  -0.56067  -0.54509  -0.53018  -0.50297
 Alpha  occ. eigenvalues --   -0.48558  -0.45220  -0.42568  -0.41294  -0.39615
 Alpha  occ. eigenvalues --   -0.38439  -0.36802  -0.34635  -0.33258  -0.31828
 Alpha  occ. eigenvalues --   -0.28902  -0.27863  -0.26441  -0.22480
 Alpha virt. eigenvalues --    0.01342   0.06977   0.08176   0.11847   0.12097
 Alpha virt. eigenvalues --    0.13428   0.14055   0.15715   0.16537   0.16881
 Alpha virt. eigenvalues --    0.17026   0.18721   0.21059   0.22226   0.24121

 Mulliken charges:
               1
     1  O   -0.421961
     2  C   -0.072833
     3  C   -0.061740
     4  C   -0.110977
     5  C   -0.085381
     6  C   -0.137848
     7  C    0.078872
     8  O   -0.428144
     9  C   -0.071031
    10  H    0.285052
    11  H    0.105610
    12  H    0.090549
    13  H    0.090831
    14  H    0.096295
    15  H    0.096948
    16  H    0.089466
    17  H    0.088079
    18  H    0.287597
    19  H    0.080617
 Sum of Mulliken charges =   0.00000

 Dipole moment (field-independent basis, Debye):
    X=              2.0396    Y=              1.3732    Z=              0.5534  Tot=              2.5203
 Quadrupole moment (field-independent basis, Debye-Ang):
   XX=            -52.9217   YY=            -53.8616   ZZ=            -52.4827
   XY=             -0.7008   XZ=             -0.1613   YZ=             -2.2592

  Exact polarizability:  91.146  -1.692  78.157   7.054  -0.733  61.456
 Approx polarizability: 130.108  -0.509 114.504  16.578   0.804  99.304

                      1                      2                      3
                      A                      A                      A
 Frequencies --    103.1544               120.1654               178.9376
 Red. masses --      3.0094                 5.0438                 2.1318
 Frc consts  --      0.0189                 0.0429                 0.0402
 IR Inten    --      3.1439                 0.7664                 3.9822

                      4                      5                      6
                      A                      A                      A
 Frequencies --    244.1015               285.1493               306.5960
 Red. masses --      2.3844                 1.4427                 2.1872
 Frc consts  --      0.0837                 0.0691                 0.1211
 IR Inten    --     24.9553                58.3631                77.4901

                      7                      8                      9
                      A                      A                      A
 Frequencies --    336.6144               371.4535               433.3125
 Red. masses --      1.7042                 2.3341                 4.7501
 Frc consts  --      0.1138                 0.1897                 0.5255
 IR Inten    --     33.9689                34.4052                15.9752

                     10                     11                     12
                      A                      A                      A
 Frequencies --    462.0463               538.9811               698.6758
 Red. masses --      3.1408                 3.4060                 3.0274
 Frc consts  --      0.3951                 0.5830                 0.8707
 IR Inten    --      1.0250                 5.5730                 9.6375

                     13                     14                     15
                      A                      A                      A
 Frequencies --    773.7518               783.7076               835.6724
 Red. masses --      1.5438                 3.5854                 2.0475
 Frc consts  --      0.5445                 1.2975                 0.8425
 IR Inten    --     28.6561                 3.3804                 4.8026

                     16                     17                     18
                      A                      A                      A
 Frequencies --    868.6407               903.9396               960.9186
 Red. masses --      2.3000                 2.3262                 2.3537
 Frc consts  --      1.0225                 1.1199                 1.2805
 IR Inten    --      7.1046                12.0833                 3.8155

                     19                     20                     21
                      A                      A                      A
 Frequencies --    970.6284               976.9835              1009.2956
 Red. masses --      1.4718                 1.8783                 2.1991
 Frc consts  --      0.8169                 1.0563                 1.3199
 IR Inten    --      1.4439                 4.2500                 3.2314

                     22                     23                     24
                      A                      A                      A
 Frequencies --   1042.8838              1057.8164              1063.5500
 Red. masses --      1.8248                 2.6140                 1.3128
 Frc consts  --      1.1693                 1.7234                 0.8749
 IR Inten    --      8.0581                27.0547                38.2980

                     25                     26                     27
                      A                      A                      A
 Frequencies --   1076.7541              1110.0136              1135.5160
 Red. masses --      2.9851                 1.4661                 1.1529
 Frc consts  --      2.0391                 1.0643                 0.8758
 IR Inten    --     64.4969                 3.5373                 2.7509

                     28                     29                     30
                      A                      A                      A
 Frequencies --   1153.9191              1175.5803              1203.4046
 Red. masses --      2.7460                 1.7510                 1.2500
 Frc consts  --      2.1543                 1.4258                 1.0665
 IR Inten    --     90.9809                 4.3820                15.3741

                     31                     32                     33
                      A                      A                      A
 Frequencies --   1255.2355              1269.2799              1292.1567
 Red. masses --      1.4885                 1.3799                 1.2204
 Frc consts  --      1.3818                 1.3098                 1.2005
 IR Inten    --      1.0170                26.3389                65.6301

                     34                     35                     36
                      A                      A                      A
 Frequencies --   1308.6667              1337.7490              1382.0787
 Red. masses --      1.5230                 1.6447                 1.5740
 Frc consts  --      1.5367                 1.7342                 1.7714
 IR Inten    --     12.6896                11.3857                 3.4885

                     37                     38                     39
                      A                      A                      A
 Frequencies --   1385.3399              1415.7893              1451.5576
 Red. masses --      1.3106                 1.2366                 2.2684
 Frc consts  --      1.4820                 1.4605                 2.8161
 IR Inten    --      2.2137                61.6873                18.3035

                     40                     41                     42
                      A                      A                      A
 Frequencies --   1501.1402              1658.7485              2983.3719
 Red. masses --      1.0904                 6.3696                 1.0687
 Frc consts  --      1.4477                10.3259                 5.6042
 IR Inten    --      0.9316                 1.5013                37.4740

                     43                     44                     45
                      A                      A                      A
 Frequencies --   3020.0718              3073.6919              3087.2329
 Red. masses --      1.0818                 1.0952                 1.0879
 Frc consts  --      5.8134                 6.0965                 6.1094
 IR Inten    --     29.8678                33.3507                26.9501

                     46                     47                     48
                      A                      A                      A
 Frequencies --   3161.4100              3174.6793              3183.9611
 Red. masses --      1.0886                 1.0893                 1.0860
 Frc consts  --      6.4103                 6.4681                 6.4868
 IR Inten    --     10.0206                13.0601                11.5697

                     49                     50                     51
                      A                      A                      A
 Frequencies --   3207.4295              3803.7105              3821.6835
 Red. masses --      1.1037                 1.0661                 1.0660
 Frc consts  --      6.6899                 9.0880                 9.1729
 IR Inten    --     19.5501                26.1885                11.5143

 - Thermochemistry -
 -------------------
 Temperature   298.150 Kelvin.  Pressure   1.00000 Atm.
 Atom     1 has atomic number  8 and mass  15.99491

 Molecular mass:   126.06808 amu.
 Principal axes and moments of inertia in atomic units:
                           1         2         3
     Eigenvalues --   692.683511476.472881980.55259
           X            1.00000  -0.00314   0.00035
           Y            0.00314   0.99992  -0.01259
           Z           -0.00031   0.01259   0.99992
 This molecule is an asymmetric top.
 Rotational symmetry number  1.
 Warning -- assumption of classical behavior for rotation
           may cause significant error
 Rotational temperatures (Kelvin)      0.12504     0.05866     0.04373
 Rotational constants (GHZ):           2.60543     1.22233     0.91123
 Zero-point vibrational energy     418436.7 (Joules/Mol)
                                  100.00876 (Kcal/Mol)
 Warning -- explicit consideration of  11 degrees of freedom as
           vibrations may cause significant error
 Vibrational temperatures:    148.42   172.89   257.45   351.21   410.27
          (Kelvin)            441.12   484.31   534.44   623.44   664.78
                              775.47  1005.24  1113.25  1127.58  1202.34
                             1249.78  1300.57  1382.55  1396.52  1405.66
                             1452.15  1500.48  1521.96  1530.21  1549.21
                             1597.06  1633.75  1660.23  1691.40  1731.43
                             1806.00  1826.21  1859.12  1882.88  1924.72
                             1988.50  1993.19  2037.00  2088.46  2159.80
                             2386.57  4292.40  4345.20  4422.35  4441.83
                             4548.56  4567.65  4581.00  4614.77  5472.68
                             5498.54

 Zero-point correction=                           0.159374 (Hartree/Particle)
 Thermal correction to Energy=                    0.167953
 Thermal correction to Enthalpy=                  0.168897
 Thermal correction to Gibbs Free Energy=         0.126191
 Sum of electronic and zero-point Energies=           -423.007511
 Sum of electronic and thermal Energies=              -422.998932
 Sum of electronic and thermal Enthalpies=            -422.997988
 Sum of electronic and thermal Free Energies=         -423.040694

                     E (Thermal)             CV                S
                      KCal/Mol        Cal/Mol-Kelvin    Cal/Mol-Kelvin
 Total                  105.392             33.053             89.883
 Electronic               0.000              0.000              0.000
 Translational            0.889              2.981             40.409
 Rotational               0.889              2.981             29.095
 Vibrational            103.615             27.091             20.379
 Vibration     1          0.605              1.947              3.394
 Vibration     2          0.609              1.932              3.098
 Vibration     3          0.629              1.868              2.339
 Vibration     4          0.659              1.773              1.773
 Vibration     5          0.683              1.701              1.503
 Vibration     6          0.697              1.661              1.381
 Vibration     7          0.717              1.602              1.228
 Vibration     8          0.743              1.531              1.074
 Vibration     9          0.794              1.398              0.848
 Vibration    10          0.820              1.334              0.760
 Vibration    11          0.894              1.164              0.567

 Normal termination of Gaussian 09 at Tue Jan 28 14:47:28 2020.
