 Gaussian 09, Revision D.01,
 Gaussian 09:  ES64L-G09RevD.01 24-Apr-2013

 -----------------------------
 # b3lyp 6-31G(2df,p) opt Freq
 -----------------------------

 -----
 titel
 -----
 Symbolic Z-matrix:
 Charge =  0 Multiplicity = 1

 SCF Done:  E(RB3LYP) =  -423.124672001     A.U. after   14 cycles
 Optimization completed.
    -- Stationary point found.
 Normal termination of Gaussian 09 at Tue Jan 28 12:37:23 2020.

 ----------------------------------------------------------------------
 #N Geom=AllCheck Guess=TCheck SCRF=Check GenChk RB3LYP/6-31G(2df,p) Fr
 eq
 ----------------------------------------------------------------------

 Structure from the checkpoint file:  "/scratch/puck/g09_33b885de-a314-4f58-b07c-1101480fbda0/Gau-20631.chk"
 -----
 titel
 -----
 Charge =  0 Multiplicity = 1

                         Standard orientation:
 ---------------------------------------------------------------------
 Center     Atomic      Atomic             Coordinates (Angstroms)
 Number     Number       Type             X           Y           Z
 ---------------------------------------------------------------------
      1          6           0        2.323220   -1.084533   -0.775084
      2          6           0        1.464730   -0.382448    0.255511
      3          8           0        0.540199   -1.286752    0.916764
      4          6           0       -0.586648   -0.422832    0.639117
      5          6           0       -1.706882   -1.095196    0.005368
      6          6           0       -2.642779   -1.628586   -0.528401
      7          6           0        0.302398    0.512353   -0.233182
      8          6           0        0.324914    1.987938    0.129483
      9          8           0       -0.834530    2.678652   -0.303244
     10          1           0        1.699341   -1.578456   -1.525595
     11          1           0        2.979603   -0.366114   -1.278729
     12          1           0        2.951160   -1.841827   -0.295515
     13          1           0        2.098485    0.119128    1.002317
     14          1           0       -0.928630    0.066892    1.564805
     15          1           0       -3.466788   -2.107108   -0.997753
     16          1           0        0.097477    0.394881   -1.299713
     17          1           0        0.482585    2.102094    1.215125
     18          1           0        1.167533    2.478813   -0.370515
     19          1           0       -1.599832    2.276322    0.120537
 ---------------------------------------------------------------------

 SCF Done:  E(RB3LYP) =  -423.124672001     A.U. after    1 cycles

 The electronic state is 1-A.
 Alpha  occ. eigenvalues --  -19.14191 -19.13947 -10.26127 -10.24149 -10.23676
 Alpha  occ. eigenvalues --  -10.19921 -10.18762 -10.18403 -10.18153  -1.04579
 Alpha  occ. eigenvalues --   -1.02281  -0.78584  -0.77629  -0.73681  -0.68110
 Alpha  occ. eigenvalues --   -0.64209  -0.56853  -0.54377  -0.51534  -0.49425
 Alpha  occ. eigenvalues --   -0.47977  -0.47913  -0.43540  -0.42453  -0.39553
 Alpha  occ. eigenvalues --   -0.39226  -0.37680  -0.35332  -0.34029  -0.31029
 Alpha  occ. eigenvalues --   -0.28281  -0.27242  -0.27188  -0.25658
 Alpha virt. eigenvalues --    0.01621   0.04280   0.06770   0.10012   0.11063
 Alpha virt. eigenvalues --    0.12012   0.12477   0.13415   0.14557   0.14997
 Alpha virt. eigenvalues --    0.15897   0.17202   0.18519   0.18828   0.22491

 Mulliken charges:
               1
     1  C   -0.404278
     2  C    0.146230
     3  O   -0.304608
     4  C   -0.056937
     5  C    0.313867
     6  C   -0.433394
     7  C   -0.098632
     8  C   -0.087069
     9  O   -0.416535
    10  H    0.127869
    11  H    0.118360
    12  H    0.130698
    13  H    0.072911
    14  H    0.093784
    15  H    0.203443
    16  H    0.100006
    17  H    0.090324
    18  H    0.115274
    19  H    0.288686
 Sum of Mulliken charges =   0.00000

 Dipole moment (field-independent basis, Debye):
    X=              0.1983    Y=              0.2958    Z=             -0.1413  Tot=              0.3831
 Quadrupole moment (field-independent basis, Debye-Ang):
   XX=            -45.8616   YY=            -60.7437   ZZ=            -53.5838
   XY=              3.0495   XZ=             -0.4288   YZ=              5.4774

  Exact polarizability:  95.983   9.457  74.815   5.230   5.284  63.353
 Approx polarizability: 134.523  17.494 103.852  14.861   6.995  99.551

                      1                      2                      3
                      A                      A                      A
 Frequencies --     37.7196                86.9709               120.8497
 Red. masses --      4.0939                 3.9448                 3.5772
 Frc consts  --      0.0034                 0.0176                 0.0308
 IR Inten    --      0.7479                 2.6378                 0.6379

                      4                      5                      6
                      A                      A                      A
 Frequencies --    181.4707               203.1375               232.0945
 Red. masses --      2.1593                 1.8650                 1.7502
 Frc consts  --      0.0419                 0.0453                 0.0555
 IR Inten    --      3.1811                 3.7041                 2.2684

                      7                      8                      9
                      A                      A                      A
 Frequencies --    274.0118               291.7341               346.1137
 Red. masses --      2.4515                 1.4139                 2.4815
 Frc consts  --      0.1084                 0.0709                 0.1751
 IR Inten    --     13.4099                85.2343                17.8493

                     10                     11                     12
                      A                      A                      A
 Frequencies --    446.2029               471.5722               495.3991
 Red. masses --      3.9794                 2.8582                 4.9488
 Frc consts  --      0.4668                 0.3745                 0.7156
 IR Inten    --      5.1167                 0.5199                 4.3053

                     13                     14                     15
                      A                      A                      A
 Frequencies --    526.3535               619.4771               673.6406
 Red. masses --      6.4194                 1.2215                 1.2689
 Frc consts  --      1.0479                 0.2762                 0.3393
 IR Inten    --      4.2512                42.0774                34.0260

                     16                     17                     18
                      A                      A                      A
 Frequencies --    711.9789               847.7678               880.4162
 Red. masses --      3.9448                 1.9898                 2.3221
 Frc consts  --      1.1782                 0.8426                 1.0605
 IR Inten    --      1.2430                 9.7407                16.4684

                     19                     20                     21
                      A                      A                      A
 Frequencies --    916.6932               980.9782              1030.5590
 Red. masses --      1.8965                 3.6764                 3.8312
 Frc consts  --      0.9390                 2.0845                 2.3974
 IR Inten    --      5.2945                48.9131                58.0800

                     22                     23                     24
                      A                      A                      A
 Frequencies --   1050.6667              1057.4214              1090.6714
 Red. masses --      3.0572                 3.0456                 2.3641
 Frc consts  --      1.9884                 2.0064                 1.6569
 IR Inten    --      8.3946               131.4955                31.4712

                     25                     26                     27
                      A                      A                      A
 Frequencies --   1113.1342              1132.9831              1141.6067
 Red. masses --      2.3888                 1.9305                 2.5085
 Frc consts  --      1.7439                 1.4601                 1.9262
 IR Inten    --     14.6802                 2.2817                 6.4103

                     28                     29                     30
                      A                      A                      A
 Frequencies --   1189.7193              1243.3971              1255.8053
 Red. masses --      1.2400                 1.4090                 1.2372
 Frc consts  --      1.0341                 1.2835                 1.1496
 IR Inten    --     10.0743                 4.2306                 0.8168

                     31                     32                     33
                      A                      A                      A
 Frequencies --   1302.5916              1340.0202              1356.5211
 Red. masses --      1.3257                 1.3610                 1.3279
 Frc consts  --      1.3253                 1.4399                 1.4397
 IR Inten    --      9.1856                 7.5222                30.6613

                     34                     35                     36
                      A                      A                      A
 Frequencies --   1387.5223              1404.0018              1414.5554
 Red. masses --      1.2202                 1.2525                 1.3954
 Frc consts  --      1.3841                 1.4547                 1.6451
 IR Inten    --      4.5943                 5.4690                18.2100

                     37                     38                     39
                      A                      A                      A
 Frequencies --   1427.7004              1481.6688              1495.2429
 Red. masses --      1.5321                 1.0574                 1.0500
 Frc consts  --      1.8400                 1.3677                 1.3832
 IR Inten    --     46.1483                 3.5473                 3.0086

                     40                     41                     42
                      A                      A                      A
 Frequencies --   1504.6105              2234.4840              2963.3103
 Red. masses --      1.0881                 5.9275                 1.0738
 Frc consts  --      1.4513                17.4372                 5.5556
 IR Inten    --      1.2283                 2.0629                20.1612

                     43                     44                     45
                      A                      A                      A
 Frequencies --   2969.0264              2989.0431              3035.0385
 Red. masses --      1.0789                 1.0840                 1.0353
 Frc consts  --      5.6036                 5.7061                 5.6188
 IR Inten    --     42.8660                79.3093                13.1172

                     46                     47                     48
                      A                      A                      A
 Frequencies --   3063.1663              3092.2829              3106.3689
 Red. masses --      1.0903                 1.0874                 1.1003
 Frc consts  --      6.0274                 6.1261                 6.2558
 IR Inten    --     23.5737                15.1576                18.4656

                     49                     50                     51
                      A                      A                      A
 Frequencies --   3118.7293              3501.2364              3812.7774
 Red. masses --      1.1025                 1.1624                 1.0662
 Frc consts  --      6.3179                 8.3954                 9.1324
 IR Inten    --     23.7119                66.2915                15.1981

 - Thermochemistry -
 -------------------
 Temperature   298.150 Kelvin.  Pressure   1.00000 Atm.
 Atom     1 has atomic number  6 and mass  12.00000

 Molecular mass:   126.06808 amu.
 Principal axes and moments of inertia in atomic units:
                           1         2         3
     Eigenvalues --  1132.473251166.429571987.25571
           X            0.13236   0.99109  -0.01487
           Y            0.99082  -0.13188   0.02959
           Z           -0.02737   0.01865   0.99945
 This molecule is an asymmetric top.
 Rotational symmetry number  1.
 Warning -- assumption of classical behavior for rotation
           may cause significant error
 Rotational temperatures (Kelvin)      0.07648     0.07426     0.04358
 Rotational constants (GHZ):           1.59363     1.54724     0.90816
 Zero-point vibrational energy     410620.8 (Joules/Mol)
                                   98.14074 (Kcal/Mol)
 Warning -- explicit consideration of  14 degrees of freedom as
           vibrations may cause significant error
 Vibrational temperatures:     54.27   125.13   173.88   261.10   292.27
          (Kelvin)            333.93   394.24   419.74   497.98   641.99
                              678.49   712.77   757.30   891.29   969.22
                             1024.38  1219.75  1266.72  1318.92  1411.41
                             1482.74  1511.67  1521.39  1569.23  1601.55
                             1630.11  1642.52  1711.74  1788.97  1806.82
                             1874.14  1927.99  1951.73  1996.33  2020.04
                             2035.23  2054.14  2131.79  2151.32  2164.80
                             3214.92  4263.54  4271.76  4300.56  4366.74
                             4407.21  4449.10  4469.37  4487.15  5037.49
                             5485.73

 Zero-point correction=                           0.156397 (Hartree/Particle)
 Thermal correction to Energy=                    0.166299
 Thermal correction to Enthalpy=                  0.167243
 Thermal correction to Gibbs Free Energy=         0.120865
 Sum of electronic and zero-point Energies=           -422.968275
 Sum of electronic and thermal Energies=              -422.958373
 Sum of electronic and thermal Enthalpies=            -422.957429
 Sum of electronic and thermal Free Energies=         -423.003807

                     E (Thermal)             CV                S
                      KCal/Mol        Cal/Mol-Kelvin    Cal/Mol-Kelvin
 Total                  104.354             35.762             97.610
 Electronic               0.000              0.000              0.000
 Translational            0.889              2.981             40.409
 Rotational               0.889              2.981             29.353
 Vibrational            102.577             29.801             27.849
 Vibration     1          0.594              1.982              5.375
 Vibration     2          0.601              1.958              3.727
 Vibration     3          0.609              1.932              3.087
 Vibration     4          0.630              1.865              2.313
 Vibration     5          0.639              1.835              2.104
 Vibration     6          0.653              1.792              1.863
 Vibration     7          0.676              1.721              1.571
 Vibration     8          0.687              1.689              1.464
 Vibration     9          0.724              1.583              1.184
 Vibration    10          0.805              1.369              0.807
 Vibration    11          0.829              1.313              0.733
 Vibration    12          0.851              1.260              0.670
 Vibration    13          0.881              1.192              0.595
 Vibration    14          0.979              0.991              0.417

 Optimization completed.
    -- Stationary point found.
 Normal termination of Gaussian 09 at Tue Jan 28 13:22:54 2020.
