 Gaussian 09, Revision D.01,
 Gaussian 09:  ES64L-G09RevD.01 24-Apr-2013

 -----------------------------
 # b3lyp 6-31G(2df,p) opt Freq
 -----------------------------

 -----
 titel
 -----
 Symbolic Z-matrix:
 Charge =  0 Multiplicity = 1

 SCF Done:  E(RB3LYP) =  -423.160657767     A.U. after   14 cycles
 Optimization completed.
    -- Stationary point found.
 Normal termination of Gaussian 09 at Mon Jan 27 11:16:25 2020.

 ----------------------------------------------------------------------
 #N Geom=AllCheck Guess=TCheck SCRF=Check GenChk RB3LYP/6-31G(2df,p) Fr
 eq
 ----------------------------------------------------------------------

 Structure from the checkpoint file:  "/scratch/puck/g09_ab693c80-9166-402f-b028-0ab57f36209d/Gau-18556.chk"
 -----
 titel
 -----
 Charge =  0 Multiplicity = 1

                         Standard orientation:
 ---------------------------------------------------------------------
 Center     Atomic      Atomic             Coordinates (Angstroms)
 Number     Number       Type             X           Y           Z
 ---------------------------------------------------------------------
      1          6           0        0.640934    0.601209   -0.442611
      2          6           0        1.771183   -0.368201   -0.190995
      3          6           0        2.873381   -0.060648    0.730085
      4          8           0        3.059217    0.007928   -0.684750
      5          6           0       -0.575849    0.318273    0.450860
      6          8           0       -1.052774   -1.014243    0.222203
      7          6           0       -2.433009   -0.999241   -0.134677
      8          6           0       -2.811757    0.454309   -0.168145
      9          6           0       -1.766031    1.197460    0.171734
     10          1           0        0.996728    1.622927   -0.264538
     11          1           0        0.328936    0.538479   -1.491878
     12          1           0        1.520678   -1.416344   -0.349254
     13          1           0        2.889517    0.897658    1.249224
     14          1           0        3.403487   -0.867363    1.234530
     15          1           0       -0.259817    0.401155    1.505260
     16          1           0       -2.573311   -1.497640   -1.106250
     17          1           0       -3.019317   -1.566411    0.606160
     18          1           0       -3.803616    0.802319   -0.427106
     19          1           0       -1.727953    2.276777    0.246721
 ---------------------------------------------------------------------

 SCF Done:  E(RB3LYP) =  -423.160657767     A.U. after    1 cycles

 The electronic state is 1-A.
 Alpha  occ. eigenvalues --  -19.14295 -19.13769 -10.23962 -10.23430 -10.23105
 Alpha  occ. eigenvalues --  -10.22777 -10.19267 -10.19030 -10.18519  -1.06289
 Alpha  occ. eigenvalues --   -1.03568  -0.79548  -0.78013  -0.70261  -0.65472
 Alpha  occ. eigenvalues --   -0.61028  -0.57092  -0.56736  -0.51279  -0.50605
 Alpha  occ. eigenvalues --   -0.47018  -0.46195  -0.43908  -0.41474  -0.40469
 Alpha  occ. eigenvalues --   -0.38800  -0.37808  -0.36466  -0.34805  -0.32475
 Alpha  occ. eigenvalues --   -0.29585  -0.28028  -0.26122  -0.23665
 Alpha virt. eigenvalues --    0.01193   0.08936   0.10797   0.11921   0.12145
 Alpha virt. eigenvalues --    0.12928   0.13331   0.14375   0.15130   0.15652
 Alpha virt. eigenvalues --    0.16802   0.17339   0.18671   0.18970   0.20546

 Mulliken charges:
               1
     1  C   -0.240066
     2  C    0.102437
     3  C   -0.176741
     4  O   -0.241651
     5  C    0.086387
     6  O   -0.280105
     7  C   -0.114836
     8  C   -0.096174
     9  C   -0.091658
    10  H    0.100232
    11  H    0.109009
    12  H    0.108754
    13  H    0.107219
    14  H    0.114534
    15  H    0.081766
    16  H    0.108435
    17  H    0.106355
    18  H    0.108887
    19  H    0.107218
 Sum of Mulliken charges =   0.00000

 Dipole moment (field-independent basis, Debye):
    X=             -2.2576    Y=              0.9074    Z=              1.0677  Tot=              2.6571
 Quadrupole moment (field-independent basis, Debye-Ang):
   XX=            -53.7097   YY=            -51.6670   ZZ=            -53.6690
   XY=             -0.7463   XZ=              6.2221   YZ=              1.1732

  Exact polarizability:  98.433   6.186  73.155   9.441   2.899  61.360
 Approx polarizability: 127.586  15.015 110.513  12.404   6.149  97.002

                      1                      2                      3
                      A                      A                      A
 Frequencies --     62.6192                72.9900               105.6011
 Red. masses --      3.3736                 3.4984                 3.6422
 Frc consts  --      0.0078                 0.0110                 0.0239
 IR Inten    --      1.7283                 1.3125                 4.1806

                      4                      5                      6
                      A                      A                      A
 Frequencies --    140.4793               269.1082               338.7258
 Red. masses --      3.4666                 3.3029                 4.5181
 Frc consts  --      0.0403                 0.1409                 0.3054
 IR Inten    --      1.9356                 1.0691                 5.4013

                      7                      8                      9
                      A                      A                      A
 Frequencies --    393.9089               429.9434               534.9083
 Red. masses --      2.1138                 2.8805                 2.3754
 Frc consts  --      0.1932                 0.3137                 0.4005
 IR Inten    --      1.4253                 3.3807                 6.6606

                     10                     11                     12
                      A                      A                      A
 Frequencies --    710.3881               752.2728               800.5394
 Red. masses --      1.4808                 2.9177                 4.9754
 Frc consts  --      0.4403                 0.9728                 1.8787
 IR Inten    --     27.3688                11.3589                 2.0690

                     13                     14                     15
                      A                      A                      A
 Frequencies --    830.2954               847.4317               867.7407
 Red. masses --      3.9075                 2.3076                 4.9611
 Frc consts  --      1.5872                 0.9764                 2.2010
 IR Inten    --      6.6018                 9.0723                32.8669

                     16                     17                     18
                      A                      A                      A
 Frequencies --    916.1563               939.9407               959.7036
 Red. masses --      1.6144                 2.0884                 1.2568
 Frc consts  --      0.7984                 1.0871                 0.6820
 IR Inten    --      2.8077                 0.3590                 0.2726

                     19                     20                     21
                      A                      A                      A
 Frequencies --    993.9745              1022.4345              1031.4218
 Red. masses --      3.0586                 2.2528                 1.8612
 Frc consts  --      1.7804                 1.3875                 1.1666
 IR Inten    --     14.9009                27.2883                 6.4056

                     22                     23                     24
                      A                      A                      A
 Frequencies --   1046.7890              1103.8305              1108.5031
 Red. masses --      1.6463                 1.4837                 3.5053
 Frc consts  --      1.0629                 1.0651                 2.5378
 IR Inten    --      5.0176                 9.1118               100.0733

                     25                     26                     27
                      A                      A                      A
 Frequencies --   1131.1711              1137.6883              1155.1765
 Red. masses --      1.4829                 1.9022                 1.3488
 Frc consts  --      1.1179                 1.4506                 1.0605
 IR Inten    --      6.2463                22.4130                 1.1497

                     28                     29                     30
                      A                      A                      A
 Frequencies --   1182.4729              1196.7734              1233.8733
 Red. masses --      1.4162                 1.1166                 1.3216
 Frc consts  --      1.1667                 0.9423                 1.1855
 IR Inten    --      0.5337                 1.7689                 3.4471

                     31                     32                     33
                      A                      A                      A
 Frequencies --   1270.5672              1292.8712              1324.8601
 Red. masses --      1.3161                 1.4519                 1.3192
 Frc consts  --      1.2518                 1.4298                 1.3643
 IR Inten    --      5.2770                12.1065                 1.7066

                     34                     35                     36
                      A                      A                      A
 Frequencies --   1359.1780              1385.5084              1387.2215
 Red. masses --      1.5826                 1.5845                 1.4541
 Frc consts  --      1.7225                 1.7921                 1.6486
 IR Inten    --      0.4885                 5.9545                 9.8853

                     37                     38                     39
                      A                      A                      A
 Frequencies --   1440.2394              1475.1670              1521.9018
 Red. masses --      1.6682                 1.1307                 1.0852
 Frc consts  --      2.0388                 1.4497                 1.4809
 IR Inten    --     15.9751                 3.3438                 2.0599

                     40                     41                     42
                      A                      A                      A
 Frequencies --   1530.6118              1692.3271              2948.0688
 Red. masses --      1.3523                 6.5219                 1.0815
 Frc consts  --      1.8667                11.0050                 5.5379
 IR Inten    --      4.1243                 0.4278                56.9452

                     43                     44                     45
                      A                      A                      A
 Frequencies --   2973.5419              2993.5368              3032.5613
 Red. masses --      1.0605                 1.1012                 1.0587
 Frc consts  --      5.5246                 5.8139                 5.7366
 IR Inten    --     84.2160                45.4909                16.6972

                     46                     47                     48
                      A                      A                      A
 Frequencies --   3077.3288              3078.8412              3126.4337
 Red. masses --      1.0759                 1.0760                 1.0894
 Frc consts  --      6.0028                 6.0092                 6.2738
 IR Inten    --      1.3449                45.0441                12.1899

                     49                     50                     51
                      A                      A                      A
 Frequencies --   3163.9816              3207.2612              3231.7384
 Red. masses --      1.1184                 1.0853                 1.1067
 Frc consts  --      6.5966                 6.5777                 6.8099
 IR Inten    --     32.3876                 2.2986                 8.9351

 - Thermochemistry -
 -------------------
 Temperature   298.150 Kelvin.  Pressure   1.00000 Atm.
 Atom     1 has atomic number  6 and mass  12.00000

 Molecular mass:   126.06808 amu.
 Principal axes and moments of inertia in atomic units:
                           1         2         3
     Eigenvalues --   367.837782156.452152307.53909
           X            0.99988   0.00117   0.01522
           Y           -0.00148   0.99979   0.02027
           Z           -0.01519  -0.02029   0.99968
 This molecule is an asymmetric top.
 Rotational symmetry number  1.
 Rotational temperatures (Kelvin)      0.23547     0.04016     0.03754
 Rotational constants (GHZ):           4.90635     0.83690     0.78211
 Zero-point vibrational energy     417679.8 (Joules/Mol)
                                   99.82787 (Kcal/Mol)
 Warning -- explicit consideration of   9 degrees of freedom as
           vibrations may cause significant error
 Vibrational temperatures:     90.09   105.02   151.94   202.12   387.19
          (Kelvin)            487.35   566.75   618.59   769.61  1022.09
                             1082.35  1151.80  1194.61  1219.26  1248.48
                             1318.14  1352.36  1380.80  1430.11  1471.05
                             1483.98  1506.09  1588.16  1594.89  1627.50
                             1636.88  1662.04  1701.31  1721.89  1775.27
                             1828.06  1860.15  1906.18  1955.55  1993.44
                             1995.90  2072.18  2122.43  2189.67  2202.21
                             2434.88  4241.61  4278.26  4307.03  4363.17
                             4427.58  4429.76  4498.24  4552.26  4614.53
                             4649.74

 Zero-point correction=                           0.159086 (Hartree/Particle)
 Thermal correction to Energy=                    0.167524
 Thermal correction to Enthalpy=                  0.168469
 Thermal correction to Gibbs Free Energy=         0.124852
 Sum of electronic and zero-point Energies=           -423.001572
 Sum of electronic and thermal Energies=              -422.993133
 Sum of electronic and thermal Enthalpies=            -422.992189
 Sum of electronic and thermal Free Energies=         -423.035806

                     E (Thermal)             CV                S
                      KCal/Mol        Cal/Mol-Kelvin    Cal/Mol-Kelvin
 Total                  105.123             30.863             91.799
 Electronic               0.000              0.000              0.000
 Translational            0.889              2.981             40.409
 Rotational               0.889              2.981             28.994
 Vibrational            103.346             24.901             22.396
 Vibration     1          0.597              1.972              4.373
 Vibration     2          0.599              1.967              4.071
 Vibration     3          0.605              1.945              3.348
 Vibration     4          0.615              1.913              2.797
 Vibration     5          0.674              1.730              1.602
 Vibration     6          0.719              1.598              1.218
 Vibration     7          0.761              1.483              0.985
 Vibration     8          0.791              1.405              0.859
 Vibration     9          0.890              1.173              0.576

 Normal termination of Gaussian 09 at Mon Jan 27 11:52:35 2020.
