 Gaussian 09, Revision D.01,
 Gaussian 09:  ES64L-G09RevD.01 24-Apr-2013

 -----------------------------
 # b3lyp 6-31G(2df,p) opt Freq
 -----------------------------

 -----
 titel
 -----
 Symbolic Z-matrix:
 Charge =  0 Multiplicity = 1

 SCF Done:  E(RB3LYP) =  -423.127951860     A.U. after   14 cycles
 Optimization completed.
    -- Stationary point found.
 Normal termination of Gaussian 09 at Tue Jan 28 03:15:42 2020.

 ----------------------------------------------------------------------
 #N Geom=AllCheck Guess=TCheck SCRF=Check GenChk RB3LYP/6-31G(2df,p) Fr
 eq
 ----------------------------------------------------------------------

 Structure from the checkpoint file:  "/scratch/puck/g09_6ec29307-8fa7-4697-9ceb-d7380b3a9fac/Gau-66708.chk"
 -----
 titel
 -----
 Charge =  0 Multiplicity = 1

                         Standard orientation:
 ---------------------------------------------------------------------
 Center     Atomic      Atomic             Coordinates (Angstroms)
 Number     Number       Type             X           Y           Z
 ---------------------------------------------------------------------
      1          8           0        1.548391    1.750205   -0.270305
      2          6           0        1.355024    0.556076    0.455015
      3          6           0        2.134299   -0.688137   -0.113324
      4          6           0        0.781090   -1.287044   -0.506733
      5          8           0        0.004043   -1.371279    0.703714
      6          6           0        0.039341   -0.119017    0.010087
      7          6           0       -1.226212    0.547071   -0.361854
      8          6           0       -2.359484    0.605646    0.639567
      9          6           0       -2.474096   -0.268926   -0.581660
     10          1           0        2.418459    2.099104   -0.053367
     11          1           0        1.435116    0.713671    1.538524
     12          1           0        2.737919   -0.391402   -0.974838
     13          1           0        2.729356   -1.280546    0.586228
     14          1           0        0.534732   -1.989527   -1.294836
     15          1           0       -1.080498    1.422257   -0.985877
     16          1           0       -2.206975    0.110448    1.591824
     17          1           0       -2.948000    1.514817    0.687854
     18          1           0       -2.395610   -1.339275   -0.431193
     19          1           0       -3.143737    0.035027   -1.378164
 ---------------------------------------------------------------------

 SCF Done:  E(RB3LYP) =  -423.127951860     A.U. after    1 cycles

 The electronic state is 1-A.
 Alpha  occ. eigenvalues --  -19.14822 -19.14412 -10.23573 -10.23456 -10.23161
 Alpha  occ. eigenvalues --  -10.19034 -10.18485 -10.18133 -10.18094  -1.07544
 Alpha  occ. eigenvalues --   -1.02482  -0.85219  -0.78725  -0.68121  -0.63572
 Alpha  occ. eigenvalues --   -0.59453  -0.58887  -0.54727  -0.51755  -0.50569
 Alpha  occ. eigenvalues --   -0.47314  -0.45508  -0.43620  -0.42322  -0.37674
 Alpha  occ. eigenvalues --   -0.36625  -0.35982  -0.35531  -0.33526  -0.31979
 Alpha  occ. eigenvalues --   -0.29151  -0.28696  -0.25930  -0.24113
 Alpha virt. eigenvalues --    0.06813   0.09238   0.10289   0.11947   0.12682
 Alpha virt. eigenvalues --    0.13578   0.14357   0.15010   0.15554   0.16763
 Alpha virt. eigenvalues --    0.18013   0.18449   0.19399   0.21026   0.23281

 Mulliken charges:
               1
     1  O   -0.435773
     2  C    0.047500
     3  C   -0.280259
     4  C   -0.054063
     5  O   -0.298239
     6  C    0.439040
     7  C   -0.134789
     8  C   -0.264389
     9  C   -0.270325
    10  H    0.288654
    11  H    0.073898
    12  H    0.106113
    13  H    0.104630
    14  H    0.102874
    15  H    0.103463
    16  H    0.125010
    17  H    0.111614
    18  H    0.125779
    19  H    0.109263
 Sum of Mulliken charges =   0.00000

 Dipole moment (field-independent basis, Debye):
    X=              1.4173    Y=              0.7600    Z=             -0.5702  Tot=              1.7063
 Quadrupole moment (field-independent basis, Debye-Ang):
   XX=            -46.4901   YY=            -53.4660   ZZ=            -53.2068
   XY=              0.9539   XZ=              1.4875   YZ=              3.1821

  Exact polarizability:  89.753  -2.516  73.346  -0.402   3.361  64.529
 Approx polarizability: 114.259  -1.787 111.094  -3.722   1.649 101.786

                      1                      2                      3
                      A                      A                      A
 Frequencies --     76.1212               134.7939               152.3179
 Red. masses --      2.8061                 2.9824                 4.1344
 Frc consts  --      0.0096                 0.0319                 0.0565
 IR Inten    --      0.1471                 1.7520                 2.6167

                      4                      5                      6
                      A                      A                      A
 Frequencies --    203.6413               262.5541               272.7690
 Red. masses --      2.4252                 1.1696                 4.4695
 Frc consts  --      0.0593                 0.0475                 0.1959
 IR Inten    --      5.7370                97.5336                 5.5671

                      7                      8                      9
                      A                      A                      A
 Frequencies --    432.4011               462.9417               491.4671
 Red. masses --      2.5875                 2.7030                 4.9789
 Frc consts  --      0.2850                 0.3413                 0.7085
 IR Inten    --      6.5142                 3.1878                 5.3059

                     10                     11                     12
                      A                      A                      A
 Frequencies --    503.5422               641.3835               754.1995
 Red. masses --      4.3769                 2.7750                 3.0305
 Frc consts  --      0.6539                 0.6726                 1.0156
 IR Inten    --      6.0226                 2.7524                 3.2185

                     13                     14                     15
                      A                      A                      A
 Frequencies --    793.6804               823.5456               846.1259
 Red. masses --      1.0924                 1.3255                 2.7611
 Frc consts  --      0.4054                 0.5297                 1.1647
 IR Inten    --      1.0990                 4.5315                 6.5292

                     16                     17                     18
                      A                      A                      A
 Frequencies --    875.4070               889.5389               917.8781
 Red. masses --      2.6699                 2.7541                 3.7832
 Frc consts  --      1.2055                 1.2840                 1.8779
 IR Inten    --      9.7285                 3.8643                15.9145

                     19                     20                     21
                      A                      A                      A
 Frequencies --    935.1918               962.0251              1001.8984
 Red. masses --      2.7416                 2.6868                 2.1813
 Frc consts  --      1.4127                 1.4651                 1.2901
 IR Inten    --      7.8958                10.7987                14.8840

                     22                     23                     24
                      A                      A                      A
 Frequencies --   1035.6899              1064.5279              1088.5970
 Red. masses --      2.0267                 1.2856                 1.3645
 Frc consts  --      1.2809                 0.8583                 0.9527
 IR Inten    --     15.0426                 4.3270                 1.2305

                     25                     26                     27
                      A                      A                      A
 Frequencies --   1105.5016              1128.0695              1133.9746
 Red. masses --      1.6734                 2.0688                 1.9616
 Frc consts  --      1.2049                 1.5511                 1.4861
 IR Inten    --     29.2730                20.7399                14.7760

                     28                     29                     30
                      A                      A                      A
 Frequencies --   1137.7553              1175.3952              1198.6111
 Red. masses --      1.3692                 1.5915                 1.3166
 Frc consts  --      1.0443                 1.2954                 1.1144
 IR Inten    --     16.7079                19.4176                12.3477

                     31                     32                     33
                      A                      A                      A
 Frequencies --   1207.2320              1217.8261              1231.7313
 Red. masses --      1.3638                 1.9497                 1.5156
 Frc consts  --      1.1711                 1.7037                 1.3548
 IR Inten    --      5.9089                 5.6381                40.2126

                     34                     35                     36
                      A                      A                      A
 Frequencies --   1254.1713              1301.1524              1379.0074
 Red. masses --      1.3534                 1.3958                 1.9089
 Frc consts  --      1.2543                 1.3923                 2.1388
 IR Inten    --     18.5187                31.7390                 4.3681

                     37                     38                     39
                      A                      A                      A
 Frequencies --   1406.3289              1452.7773              1460.8708
 Red. masses --      1.5039                 1.2066                 1.0890
 Frc consts  --      1.7524                 1.5004                 1.3693
 IR Inten    --      8.7728                 0.8455                 1.5452

                     40                     41                     42
                      A                      A                      A
 Frequencies --   1489.3516              1509.2809              3017.4119
 Red. masses --      1.6450                 2.6085                 1.0853
 Frc consts  --      2.1498                 3.5009                 5.8221
 IR Inten    --      4.3448                 6.6294                51.9543

                     43                     44                     45
                      A                      A                      A
 Frequencies --   3060.9813              3123.7545              3137.7759
 Red. masses --      1.0574                 1.1088                 1.0506
 Frc consts  --      5.8375                 6.3747                 6.0946
 IR Inten    --     33.2385                19.5202                16.9672

                     46                     47                     48
                      A                      A                      A
 Frequencies --   3141.7277              3170.8711              3183.8304
 Red. masses --      1.0572                 1.0884                 1.0941
 Frc consts  --      6.1484                 6.4477                 6.5344
 IR Inten    --     11.5473                 3.4833                18.7131

                     49                     50                     51
                      A                      A                      A
 Frequencies --   3221.0129              3235.6099              3822.4226
 Red. masses --      1.1182                 1.1158                 1.0663
 Frc consts  --      6.8355                 6.8828                 9.1793
 IR Inten    --      0.6092                12.9899                27.4291

 - Thermochemistry -
 -------------------
 Temperature   298.150 Kelvin.  Pressure   1.00000 Atm.
 Atom     1 has atomic number  8 and mass  15.99491

 Molecular mass:   126.06808 amu.
 Principal axes and moments of inertia in atomic units:
                           1         2         3
     Eigenvalues --   610.977331326.005751674.78871
           X            0.99990  -0.01347   0.00373
           Y            0.01333   0.99927   0.03572
           Z           -0.00421  -0.03567   0.99935
 This molecule is an asymmetric top.
 Rotational symmetry number  1.
 Warning -- assumption of classical behavior for rotation
           may cause significant error
 Rotational temperatures (Kelvin)      0.14176     0.06532     0.05172
 Rotational constants (GHZ):           2.95386     1.36104     1.07759
 Zero-point vibrational energy     415861.9 (Joules/Mol)
                                   99.39337 (Kcal/Mol)
 Warning -- explicit consideration of  10 degrees of freedom as
           vibrations may cause significant error
 Vibrational temperatures:    109.52   193.94   219.15   292.99   377.76
          (Kelvin)            392.45   622.13   666.07   707.11   724.48
                              922.81  1085.12  1141.93  1184.90  1217.38
                             1259.51  1279.85  1320.62  1345.53  1384.14
                             1441.51  1490.12  1531.62  1566.25  1590.57
                             1623.04  1631.53  1636.97  1691.13  1724.53
                             1736.94  1752.18  1772.18  1804.47  1872.07
                             1984.08  2023.39  2090.22  2101.86  2142.84
                             2171.52  4341.38  4404.06  4494.38  4514.55
                             4520.24  4562.17  4580.82  4634.31  4655.32
                             5499.61

 Zero-point correction=                           0.158393 (Hartree/Particle)
 Thermal correction to Energy=                    0.166843
 Thermal correction to Enthalpy=                  0.167787
 Thermal correction to Gibbs Free Energy=         0.125202
 Sum of electronic and zero-point Energies=           -422.969558
 Sum of electronic and thermal Energies=              -422.961109
 Sum of electronic and thermal Enthalpies=            -422.960165
 Sum of electronic and thermal Free Energies=         -423.002750

                     E (Thermal)             CV                S
                      KCal/Mol        Cal/Mol-Kelvin    Cal/Mol-Kelvin
 Total                  104.695             32.432             89.627
 Electronic               0.000              0.000              0.000
 Translational            0.889              2.981             40.409
 Rotational               0.889              2.981             28.697
 Vibrational            102.918             26.470             20.522
 Vibration     1          0.599              1.965              3.988
 Vibration     2          0.613              1.919              2.876
 Vibration     3          0.619              1.900              2.643
 Vibration     4          0.639              1.835              2.100
 Vibration     5          0.670              1.741              1.645
 Vibration     6          0.676              1.724              1.579
 Vibration     7          0.793              1.400              0.851
 Vibration     8          0.821              1.332              0.758
 Vibration     9          0.847              1.269              0.680
 Vibration    10          0.859              1.242              0.649

 Normal termination of Gaussian 09 at Tue Jan 28 04:09:29 2020.
