 Gaussian 09, Revision D.01,
 Gaussian 09:  ES64L-G09RevD.01 24-Apr-2013

 -----------------------------
 # b3lyp 6-31G(2df,p) opt Freq
 -----------------------------

 -----
 titel
 -----
 Symbolic Z-matrix:
 Charge =  0 Multiplicity = 1

 SCF Done:  E(RB3LYP) =  -423.084518482     A.U. after   12 cycles
 Optimization completed.
    -- Stationary point found.
 Normal termination of Gaussian 09 at Tue Jan 28 09:09:10 2020.

 ----------------------------------------------------------------------
 #N Geom=AllCheck Guess=TCheck SCRF=Check GenChk RB3LYP/6-31G(2df,p) Fr
 eq
 ----------------------------------------------------------------------

 Structure from the checkpoint file:  "/scratch/puck/g09_d7b1ca3f-7d2a-453b-9d0b-46297ab14e5b/Gau-20285.chk"
 -----
 titel
 -----
 Charge =  0 Multiplicity = 1

                         Standard orientation:
 ---------------------------------------------------------------------
 Center     Atomic      Atomic             Coordinates (Angstroms)
 Number     Number       Type             X           Y           Z
 ---------------------------------------------------------------------
      1          6           0        2.099567   -1.419602    0.306442
      2          8           0        1.374961   -0.676659   -0.674278
      3          6           0        0.172814   -0.194099   -0.190109
      4          6           0        0.138437    1.151895    0.493186
      5          8           0        1.309256    1.898388    0.331313
      6          6           0       -0.669989    0.920878   -0.775498
      7          6           0       -1.934158    0.038782   -0.580505
      8          6           0       -2.160845   -0.439143    0.832374
      9          6           0       -1.087593   -1.085132   -0.003944
     10          1           0        1.529179   -2.295836    0.639970
     11          1           0        3.023108   -1.754166   -0.170141
     12          1           0        2.338598   -0.797844    1.178134
     13          1           0       -0.312043    1.356338    1.458768
     14          1           0        1.883212    1.389764   -0.257929
     15          1           0       -0.491603    1.535455   -1.648472
     16          1           0       -2.707419   -0.033890   -1.334625
     17          1           0       -1.937230    0.165935    1.703037
     18          1           0       -3.053287   -1.046763    0.954640
     19          1           0       -1.095640   -2.134288   -0.271340
 ---------------------------------------------------------------------

 SCF Done:  E(RB3LYP) =  -423.084518482     A.U. after    1 cycles

 The electronic state is 1-A.
 Alpha  occ. eigenvalues --  -19.16297 -19.13657 -10.23900 -10.23276 -10.23247
 Alpha  occ. eigenvalues --  -10.19780 -10.19567 -10.19310 -10.18588  -1.05813
 Alpha  occ. eigenvalues --   -1.01805  -0.91074  -0.79187  -0.70109  -0.63879
 Alpha  occ. eigenvalues --   -0.62620  -0.57634  -0.53392  -0.53119  -0.50719
 Alpha  occ. eigenvalues --   -0.47277  -0.45789  -0.44733  -0.43534  -0.40093
 Alpha  occ. eigenvalues --   -0.38820  -0.37294  -0.34474  -0.34435  -0.31497
 Alpha  occ. eigenvalues --   -0.30850  -0.28443  -0.23073  -0.21309
 Alpha virt. eigenvalues --    0.07370   0.08053   0.09747   0.10639   0.12759
 Alpha virt. eigenvalues --    0.13851   0.14278   0.15395   0.15703   0.16822
 Alpha virt. eigenvalues --    0.18042   0.18215   0.19253   0.21519   0.22353

 Mulliken charges:
               1
     1  C   -0.268084
     2  O   -0.291468
     3  C    0.370309
     4  C    0.053435
     5  O   -0.452955
     6  C   -0.209809
     7  C   -0.053237
     8  C   -0.307165
     9  C   -0.130134
    10  H    0.122159
    11  H    0.130849
    12  H    0.127517
    13  H    0.094671
    14  H    0.289255
    15  H    0.101240
    16  H    0.095098
    17  H    0.119621
    18  H    0.113761
    19  H    0.094937
 Sum of Mulliken charges =   0.00000

 Dipole moment (field-independent basis, Debye):
    X=             -0.3740    Y=             -1.9749    Z=              0.2124  Tot=              2.0212
 Quadrupole moment (field-independent basis, Debye-Ang):
   XX=            -49.0005   YY=            -55.7242   ZZ=            -53.0467
   XY=             -2.0473   XZ=              0.3294   YZ=             -2.2512

  Exact polarizability:  86.103   0.088  73.275   0.038  -1.526  64.805
 Approx polarizability: 115.298  -1.612 109.526   0.504  -1.150 102.842

                      1                      2                      3
                      A                      A                      A
 Frequencies --     92.3353               155.1323               179.4492
 Red. masses --      2.9446                 2.9321                 1.0943
 Frc consts  --      0.0148                 0.0416                 0.0208
 IR Inten    --      5.7732                 2.1137                 0.1492

                      4                      5                      6
                      A                      A                      A
 Frequencies --    247.4018               274.5022               298.8850
 Red. masses --      4.3788                 3.6849                 2.9781
 Frc consts  --      0.1579                 0.1636                 0.1567
 IR Inten    --      5.5651                 9.7148                 0.5091

                      7                      8                      9
                      A                      A                      A
 Frequencies --    346.1566               414.4478               449.9533
 Red. masses --      3.1341                 1.1911                 2.9869
 Frc consts  --      0.2213                 0.1205                 0.3563
 IR Inten    --     13.9005                52.3226                 6.4031

                     10                     11                     12
                      A                      A                      A
 Frequencies --    455.7110               556.7921               690.0277
 Red. masses --      3.5671                 3.5645                 3.3423
 Frc consts  --      0.4365                 0.6511                 0.9376
 IR Inten    --      3.1525                 1.2727                13.9151

                     13                     14                     15
                      A                      A                      A
 Frequencies --    699.8681               762.4409               848.3331
 Red. masses --      2.9944                 1.4740                 2.1640
 Frc consts  --      0.8642                 0.5048                 0.9176
 IR Inten    --      7.2523                 5.1902                 6.1062

                     16                     17                     18
                      A                      A                      A
 Frequencies --    879.0898               889.8943               917.6872
 Red. masses --      1.8028                 2.8390                 2.3873
 Frc consts  --      0.8208                 1.3246                 1.1845
 IR Inten    --     11.8763                14.6194                 8.1113

                     19                     20                     21
                      A                      A                      A
 Frequencies --    937.0569               974.1388              1006.1091
 Red. masses --      2.5627                 1.9406                 1.4548
 Frc consts  --      1.3258                 1.0850                 0.8677
 IR Inten    --      4.8929                14.1906                 7.3138

                     22                     23                     24
                      A                      A                      A
 Frequencies --   1039.3659              1054.3857              1062.1621
 Red. masses --      2.1398                 1.9304                 1.4548
 Frc consts  --      1.3620                 1.2645                 0.9670
 IR Inten    --     35.1457                19.6847                 3.7904

                     25                     26                     27
                      A                      A                      A
 Frequencies --   1076.6983              1090.9394              1127.9188
 Red. masses --      2.1429                 1.4120                 2.5742
 Frc consts  --      1.4637                 0.9901                 1.9295
 IR Inten    --     21.7644                12.6991                89.8256

                     28                     29                     30
                      A                      A                      A
 Frequencies --   1167.9120              1178.6076              1179.5059
 Red. masses --      1.9359                 1.9458                 1.3434
 Frc consts  --      1.5558                 1.5925                 1.1012
 IR Inten    --      8.2487                19.4456                 2.3322

                     31                     32                     33
                      A                      A                      A
 Frequencies --   1222.8022              1236.6793              1267.5399
 Red. masses --      1.5136                 1.8947                 1.7042
 Frc consts  --      1.3334                 1.7073                 1.6132
 IR Inten    --      4.2214                 9.6603                 7.1306

                     34                     35                     36
                      A                      A                      A
 Frequencies --   1299.7222              1319.4096              1374.1403
 Red. masses --      2.1513                 2.2445                 1.8181
 Frc consts  --      2.1412                 2.3021                 2.0227
 IR Inten    --     64.2137                 6.3459                62.8586

                     37                     38                     39
                      A                      A                      A
 Frequencies --   1456.2619              1481.3934              1488.5819
 Red. masses --      1.6274                 1.3355                 1.0558
 Frc consts  --      2.0334                 1.7268                 1.3784
 IR Inten    --     60.4464                 8.5473                 8.9402

                     40                     41                     42
                      A                      A                      A
 Frequencies --   1499.7234              1504.9899              3009.0531
 Red. masses --      1.1818                 1.0527                 1.0328
 Frc consts  --      1.5661                 1.4049                 5.5098
 IR Inten    --      8.3369                 9.1569                42.3127

                     43                     44                     45
                      A                      A                      A
 Frequencies --   3071.1285              3127.2477              3130.2805
 Red. masses --      1.1050                 1.0576                 1.1009
 Frc consts  --      6.1406                 6.0937                 6.3555
 IR Inten    --     30.5762                 9.1163                23.7177

                     46                     47                     48
                      A                      A                      A
 Frequencies --   3156.4203              3183.5359              3192.0776
 Red. masses --      1.0875                 1.0888                 1.0968
 Frc consts  --      6.3837                 6.5017                 6.5847
 IR Inten    --     28.4856                12.7751                 8.6509

                     49                     50                     51
                      A                      A                      A
 Frequencies --   3201.2411              3210.4492              3747.0492
 Red. masses --      1.0951                 1.1104                 1.0650
 Frc consts  --      6.6120                 6.7433                 8.8099
 IR Inten    --      6.1397                18.6555                40.7778

 - Thermochemistry -
 -------------------
 Temperature   298.150 Kelvin.  Pressure   1.00000 Atm.
 Atom     1 has atomic number  6 and mass  12.00000

 Molecular mass:   126.06808 amu.
 Principal axes and moments of inertia in atomic units:
                           1         2         3
     Eigenvalues --   708.629861142.691541526.71712
           X            0.99949  -0.03169   0.00383
           Y            0.03179   0.99906  -0.02939
           Z           -0.00289   0.02949   0.99956
 This molecule is an asymmetric top.
 Rotational symmetry number  1.
 Warning -- assumption of classical behavior for rotation
           may cause significant error
 Rotational temperatures (Kelvin)      0.12223     0.07580     0.05673
 Rotational constants (GHZ):           2.54680     1.57938     1.18211
 Zero-point vibrational energy     414103.1 (Joules/Mol)
                                   98.97302 (Kcal/Mol)
 Warning -- explicit consideration of  11 degrees of freedom as
           vibrations may cause significant error
 Vibrational temperatures:    132.85   223.20   258.19   355.96   394.95
          (Kelvin)            430.03   498.04   596.30   647.38   655.67
                              801.10   992.79  1006.95  1096.98  1220.56
                             1264.81  1280.36  1320.35  1348.21  1401.57
                             1447.56  1495.41  1517.02  1528.21  1549.13
                             1569.62  1622.82  1680.36  1695.75  1697.04
                             1759.34  1779.30  1823.70  1870.01  1898.33
                             1977.08  2095.23  2131.39  2141.73  2157.76
                             2165.34  4329.35  4418.66  4499.41  4503.77
                             4541.38  4580.39  4592.68  4605.87  4619.11
                             5391.16

 Zero-point correction=                           0.157724 (Hartree/Particle)
 Thermal correction to Energy=                    0.166261
 Thermal correction to Enthalpy=                  0.167205
 Thermal correction to Gibbs Free Energy=         0.124882
 Sum of electronic and zero-point Energies=           -422.926795
 Sum of electronic and thermal Energies=              -422.918257
 Sum of electronic and thermal Enthalpies=            -422.917313
 Sum of electronic and thermal Free Energies=         -422.959637

                     E (Thermal)             CV                S
                      KCal/Mol        Cal/Mol-Kelvin    Cal/Mol-Kelvin
 Total                  104.330             33.231             89.077
 Electronic               0.000              0.000              0.000
 Translational            0.889              2.981             40.409
 Rotational               0.889              2.981             28.604
 Vibrational            102.553             27.269             20.064
 Vibration     1          0.602              1.955              3.610
 Vibration     2          0.620              1.897              2.608
 Vibration     3          0.629              1.868              2.334
 Vibration     4          0.661              1.767              1.749
 Vibration     5          0.677              1.720              1.568
 Vibration     6          0.692              1.676              1.423
 Vibration     7          0.724              1.583              1.184
 Vibration     8          0.778              1.439              0.911
 Vibration     9          0.809              1.361              0.796
 Vibration    10          0.814              1.348              0.779
 Vibration    11          0.912              1.125              0.530

 Optimization completed.
    -- Stationary point found.
 Normal termination of Gaussian 09 at Tue Jan 28 09:53:14 2020.
