 Gaussian 09, Revision D.01,
 Gaussian 09:  ES64L-G09RevD.01 24-Apr-2013

 -----------------------------
 # b3lyp 6-31G(2df,p) opt Freq
 -----------------------------

 -----
 titel
 -----
 Symbolic Z-matrix:
 Charge =  0 Multiplicity = 1

 SCF Done:  E(RB3LYP) =  -423.228774940     A.U. after   14 cycles
 Optimization completed.
    -- Stationary point found.
 Normal termination of Gaussian 09 at Tue Jan 28 12:36:45 2020.

 ----------------------------------------------------------------------
 #N Geom=AllCheck Guess=TCheck SCRF=Check GenChk RB3LYP/6-31G(2df,p) Fr
 eq
 ----------------------------------------------------------------------

 Structure from the checkpoint file:  "/scratch/puck/g09_3a2c3330-2b1c-46ed-8a42-71b20deaaa54/Gau-142038.chk"
 -----
 titel
 -----
 Charge =  0 Multiplicity = 1

                         Standard orientation:
 ---------------------------------------------------------------------
 Center     Atomic      Atomic             Coordinates (Angstroms)
 Number     Number       Type             X           Y           Z
 ---------------------------------------------------------------------
      1          8           0       -2.698346   -0.239994    0.672275
      2          6           0       -1.918072   -0.821535   -0.354472
      3          6           0       -0.442156   -0.513122   -0.208974
      4          6           0        0.509605   -1.457751   -0.149026
      5          6           0        1.979309   -1.182268   -0.003113
      6          6           0        2.251712    0.230677    0.526023
      7          6           0        1.405193    1.264933   -0.224911
      8          6           0       -0.075569    0.925647   -0.174335
      9          8           0       -0.930993    1.797110   -0.143378
     10          1           0       -2.548588    0.712002    0.589770
     11          1           0       -2.075963   -1.903791   -0.305093
     12          1           0       -2.257880   -0.484749   -1.347974
     13          1           0        0.213200   -2.503960   -0.216588
     14          1           0        2.430264   -1.935799    0.653104
     15          1           0        2.463238   -1.322838   -0.982810
     16          1           0        1.999232    0.266329    1.592746
     17          1           0        3.315400    0.474036    0.443006
     18          1           0        1.538996    2.278458    0.161143
     19          1           0        1.696672    1.283899   -1.285638
 ---------------------------------------------------------------------

 SCF Done:  E(RB3LYP) =  -423.228774940     A.U. after    1 cycles

 The electronic state is 1-A.
 Alpha  occ. eigenvalues --  -19.13420 -19.11651 -10.27173 -10.22637 -10.21341
 Alpha  occ. eigenvalues --  -10.20605 -10.20100 -10.19647 -10.19644  -1.04302
 Alpha  occ. eigenvalues --   -0.99999  -0.84858  -0.77630  -0.73825  -0.66937
 Alpha  occ. eigenvalues --   -0.61709  -0.60345  -0.51889  -0.49375  -0.47740
 Alpha  occ. eigenvalues --   -0.46344  -0.45791  -0.43450  -0.42208  -0.41509
 Alpha  occ. eigenvalues --   -0.40217  -0.38903  -0.36406  -0.34898  -0.34431
 Alpha  occ. eigenvalues --   -0.32912  -0.26920  -0.25977  -0.24416
 Alpha virt. eigenvalues --   -0.05548   0.04443   0.08434   0.11422   0.12005
 Alpha virt. eigenvalues --    0.12822   0.13835   0.15274   0.15971   0.17143
 Alpha virt. eigenvalues --    0.17657   0.18322   0.18834   0.20710   0.24474

 Mulliken charges:
               1
     1  O   -0.421759
     2  C   -0.165840
     3  C    0.208302
     4  C   -0.143511
     5  C   -0.251870
     6  C   -0.223214
     7  C   -0.301548
     8  C    0.339619
     9  O   -0.350762
    10  H    0.296163
    11  H    0.104778
    12  H    0.096335
    13  H    0.102642
    14  H    0.117121
    15  H    0.121859
    16  H    0.116640
    17  H    0.105778
    18  H    0.124854
    19  H    0.124412
 Sum of Mulliken charges =   0.00000

 Dipole moment (field-independent basis, Debye):
    X=              3.7826    Y=             -1.5649    Z=             -1.0101  Tot=              4.2163
 Quadrupole moment (field-independent basis, Debye-Ang):
   XX=            -56.3088   YY=            -53.4731   ZZ=            -53.2992
   XY=              0.3173   XZ=              2.5502   YZ=              1.4321

  Exact polarizability:  94.638  -7.709  86.720   1.132   0.851  56.442
 Approx polarizability: 132.304 -27.287 141.423  -2.060   1.045  88.695

                      1                      2                      3
                      A                      A                      A
 Frequencies --     86.5895               103.2267               181.9659
 Red. masses --      4.0451                 3.3233                 3.3429
 Frc consts  --      0.0179                 0.0209                 0.0652
 IR Inten    --      1.3138                 3.3006                 2.9554

                      4                      5                      6
                      A                      A                      A
 Frequencies --    246.7813               289.6318               312.6314
 Red. masses --      2.6814                 2.0249                 2.6459
 Frc consts  --      0.0962                 0.1001                 0.1524
 IR Inten    --      1.9866                 2.5975                 0.9088

                      7                      8                      9
                      A                      A                      A
 Frequencies --    379.2627               428.4345               487.2298
 Red. masses --      5.2199                 2.7190                 4.4039
 Frc consts  --      0.4424                 0.2941                 0.6160
 IR Inten    --      0.6143                 7.7443                 2.2801

                     10                     11                     12
                      A                      A                      A
 Frequencies --    533.5520               572.2875               672.8915
 Red. masses --      3.6945                 1.1061                 2.6949
 Frc consts  --      0.6197                 0.2134                 0.7189
 IR Inten    --      5.5754               145.8505                14.5369

                     13                     14                     15
                      A                      A                      A
 Frequencies --    689.2025               719.9472               819.0378
 Red. masses --      3.7657                 2.8023                 1.3772
 Frc consts  --      1.0539                 0.8558                 0.5443
 IR Inten    --      3.1257                 4.2180                 2.8483

                     16                     17                     18
                      A                      A                      A
 Frequencies --    874.3745               895.1901               936.0024
 Red. masses --      2.7196                 2.3134                 1.4120
 Frc consts  --      1.2250                 1.0923                 0.7289
 IR Inten    --      2.4599                11.2399                 3.5913

                     19                     20                     21
                      A                      A                      A
 Frequencies --    956.8345              1015.7982              1069.0454
 Red. masses --      2.0920                 1.7252                 4.5389
 Frc consts  --      1.1285                 1.0488                 3.0563
 IR Inten    --     17.6278                17.8048                71.7126

                     22                     23                     24
                      A                      A                      A
 Frequencies --   1072.7710              1087.1131              1116.3316
 Red. masses --      2.3258                 1.6011                 3.4137
 Frc consts  --      1.5770                 1.1149                 2.5065
 IR Inten    --     11.6119                 5.1544                10.3921

                     25                     26                     27
                      A                      A                      A
 Frequencies --   1151.0413              1187.7814              1226.0788
 Red. masses --      1.3143                 1.7745                 1.1198
 Frc consts  --      1.0260                 1.4750                 0.9918
 IR Inten    --     10.3418                15.4453                40.7433

                     28                     29                     30
                      A                      A                      A
 Frequencies --   1267.0989              1273.2441              1347.8653
 Red. masses --      1.2226                 1.6245                 1.3712
 Frc consts  --      1.1566                 1.5517                 1.4677
 IR Inten    --      1.1099                 9.4494                 0.3732

                     31                     32                     33
                      A                      A                      A
 Frequencies --   1370.7671              1371.9090              1379.6105
 Red. masses --      1.6373                 1.4656                 1.4863
 Frc consts  --      1.8126                 1.6253                 1.6667
 IR Inten    --      4.8533                20.0103                 3.6243

                     34                     35                     36
                      A                      A                      A
 Frequencies --   1400.3992              1449.5246              1458.9029
 Red. masses --      1.8149                 1.2076                 1.0878
 Frc consts  --      2.0970                 1.4950                 1.3641
 IR Inten    --     40.0957               105.6398                 3.4641

                     37                     38                     39
                      A                      A                      A
 Frequencies --   1471.7880              1492.2489              1496.7656
 Red. masses --      1.0835                 1.0913                 1.0948
 Frc consts  --      1.3829                 1.4318                 1.4451
 IR Inten    --      8.5403                 0.9053                 3.3855

                     40                     41                     42
                      A                      A                      A
 Frequencies --   1698.3036              1747.3086              2964.4972
 Red. masses --      7.4035                11.2676                 1.0699
 Frc consts  --     12.5811                20.2684                 5.5399
 IR Inten    --     14.4546               212.7374                56.3537

                     43                     44                     45
                      A                      A                      A
 Frequencies --   2989.4642              3009.6860              3035.5237
 Red. masses --      1.0711                 1.0690                 1.0636
 Frc consts  --      5.6398                 5.7051                 5.7741
 IR Inten    --     17.6708                 7.7268                20.0950

                     46                     47                     48
                      A                      A                      A
 Frequencies --   3055.2002              3071.8393              3083.4260
 Red. masses --      1.0862                 1.0918                 1.1018
 Frc consts  --      5.9734                 6.0701                 6.1721
 IR Inten    --     33.0686                26.9106                30.3298

                     49                     50                     51
                      A                      A                      A
 Frequencies --   3102.7224              3134.8903              3748.6179
 Red. masses --      1.0930                 1.0893                 1.0650
 Frc consts  --      6.1996                 6.3071                 8.8175
 IR Inten    --     14.9409                19.5518                67.9416

 - Thermochemistry -
 -------------------
 Temperature   298.150 Kelvin.  Pressure   1.00000 Atm.
 Atom     1 has atomic number  8 and mass  15.99491

 Molecular mass:   126.06808 amu.
 Principal axes and moments of inertia in atomic units:
                           1         2         3
     Eigenvalues --   649.400731364.345381854.81633
           X            0.99987   0.01143   0.01175
           Y           -0.01157   0.99986   0.01174
           Z           -0.01161  -0.01188   0.99986
 This molecule is an asymmetric top.
 Rotational symmetry number  1.
 Warning -- assumption of classical behavior for rotation
           may cause significant error
 Rotational temperatures (Kelvin)      0.13337     0.06348     0.04670
 Rotational constants (GHZ):           2.77909     1.32279     0.97300
 Zero-point vibrational energy     421878.9 (Joules/Mol)
                                  100.83147 (Kcal/Mol)
 Warning -- explicit consideration of  11 degrees of freedom as
           vibrations may cause significant error
 Vibrational temperatures:    124.58   148.52   261.81   355.06   416.72
          (Kelvin)            449.81   545.67   616.42   701.01   767.66
                              823.39   968.14   991.61  1035.84  1178.41
                             1258.03  1287.98  1346.70  1376.67  1461.51
                             1538.12  1543.48  1564.11  1606.15  1656.09
                             1708.95  1764.05  1823.07  1831.91  1939.28
                             1972.23  1973.87  1984.95  2014.86  2085.54
                             2099.03  2117.57  2147.01  2153.51  2443.48
                             2513.98  4265.24  4301.17  4330.26  4367.44
                             4395.75  4419.69  4436.36  4464.12  4510.40
                             5393.42

 Zero-point correction=                           0.160685 (Hartree/Particle)
 Thermal correction to Energy=                    0.169064
 Thermal correction to Enthalpy=                  0.170008
 Thermal correction to Gibbs Free Energy=         0.127545
 Sum of electronic and zero-point Energies=           -423.068090
 Sum of electronic and thermal Energies=              -423.059711
 Sum of electronic and thermal Enthalpies=            -423.058767
 Sum of electronic and thermal Free Energies=         -423.101230

                     E (Thermal)             CV                S
                      KCal/Mol        Cal/Mol-Kelvin    Cal/Mol-Kelvin
 Total                  106.089             31.931             89.371
 Electronic               0.000              0.000              0.000
 Translational            0.889              2.981             40.409
 Rotational               0.889              2.981             28.887
 Vibrational            104.312             25.969             20.075
 Vibration     1          0.601              1.959              3.736
 Vibration     2          0.605              1.947              3.392
 Vibration     3          0.630              1.864              2.308
 Vibration     4          0.661              1.768              1.753
 Vibration     5          0.686              1.693              1.476
 Vibration     6          0.701              1.650              1.348
 Vibration     7          0.749              1.514              1.042
 Vibration     8          0.790              1.408              0.864
 Vibration     9          0.843              1.278              0.691
 Vibration    10          0.889              1.176              0.579
 Vibration    11          0.928              1.091              0.500

 Normal termination of Gaussian 09 at Tue Jan 28 13:18:09 2020.
