 Gaussian 09, Revision D.01,
 Gaussian 09:  ES64L-G09RevD.01 24-Apr-2013

 -----------------------------
 # b3lyp 6-31G(2df,p) opt Freq
 -----------------------------

 -----
 titel
 -----
 Symbolic Z-matrix:
 Charge =  0 Multiplicity = 1

 SCF Done:  E(RB3LYP) =  -423.167239412     A.U. after   14 cycles
 Optimization completed.
    -- Stationary point found.
 Normal termination of Gaussian 09 at Tue Jan 28 14:12:26 2020.

 ----------------------------------------------------------------------
 #N Geom=AllCheck Guess=TCheck SCRF=Check GenChk RB3LYP/6-31G(2df,p) Fr
 eq
 ----------------------------------------------------------------------

 Structure from the checkpoint file:  "/scratch/puck/g09_6eea6871-5a39-4c37-9e2b-1179c112ab75/Gau-61179.chk"
 -----
 titel
 -----
 Charge =  0 Multiplicity = 1

                         Standard orientation:
 ---------------------------------------------------------------------
 Center     Atomic      Atomic             Coordinates (Angstroms)
 Number     Number       Type             X           Y           Z
 ---------------------------------------------------------------------
      1          8           0       -2.912098   -0.809291    0.118923
      2          6           0       -2.126913    0.367351    0.209275
      3          6           0       -0.764998    0.237945   -0.495594
      4          6           0       -0.014758    1.553913   -0.533915
      5          6           0        1.118970    1.543650    0.168595
      6          6           0        1.386118    0.192156    0.771173
      7          8           0        2.371577   -0.590690    0.043536
      8          6           0        1.334448   -1.373869   -0.585530
      9          6           0        0.223874   -0.689445    0.241545
     10          1           0       -2.480235   -1.498088    0.633534
     11          1           0       -2.716580    1.153676   -0.273835
     12          1           0       -1.972131    0.673573    1.256295
     13          1           0       -0.972933   -0.132031   -1.509140
     14          1           0       -0.401966    2.411687   -1.075447
     15          1           0        1.799620    2.379980    0.280286
     16          1           0        1.623666    0.210257    1.840573
     17          1           0        1.276783   -1.193697   -1.667145
     18          1           0        1.477953   -2.446264   -0.409529
     19          1           0       -0.250451   -1.349453    0.971452
 ---------------------------------------------------------------------

 SCF Done:  E(RB3LYP) =  -423.167239412     A.U. after    1 cycles

 The electronic state is 1-A.
 Alpha  occ. eigenvalues --  -19.13914 -19.12843 -10.23530 -10.23086 -10.22980
 Alpha  occ. eigenvalues --  -10.19631 -10.19549 -10.19279 -10.18557  -1.03380
 Alpha  occ. eigenvalues --   -1.02011  -0.84160  -0.74574  -0.71716  -0.67684
 Alpha  occ. eigenvalues --   -0.62777  -0.55545  -0.53661  -0.52340  -0.51175
 Alpha  occ. eigenvalues --   -0.47542  -0.45033  -0.42728  -0.42346  -0.40817
 Alpha  occ. eigenvalues --   -0.39368  -0.38013  -0.34586  -0.33192  -0.32163
 Alpha  occ. eigenvalues --   -0.29929  -0.28111  -0.25662  -0.24344
 Alpha virt. eigenvalues --    0.00365   0.06108   0.08906   0.10538   0.11480
 Alpha virt. eigenvalues --    0.12516   0.13578   0.14673   0.15888   0.16583
 Alpha virt. eigenvalues --    0.17091   0.18118   0.19847   0.21551   0.21910

 Mulliken charges:
               1
     1  O   -0.419357
     2  C   -0.081562
     3  C   -0.057874
     4  C   -0.083330
     5  C   -0.093458
     6  C    0.092496
     7  O   -0.295265
     8  C   -0.088927
     9  C   -0.090628
    10  H    0.284444
    11  H    0.109737
    12  H    0.089499
    13  H    0.088129
    14  H    0.101178
    15  H    0.104089
    16  H    0.077767
    17  H    0.101466
    18  H    0.102147
    19  H    0.059450
 Sum of Mulliken charges =   0.00000

 Dipole moment (field-independent basis, Debye):
    X=             -0.5192    Y=              0.2281    Z=              0.6572  Tot=              0.8681
 Quadrupole moment (field-independent basis, Debye-Ang):
   XX=            -66.1876   YY=            -48.4702   ZZ=            -51.1587
   XY=              0.3328   XZ=             -0.4876   YZ=             -1.4161

  Exact polarizability:  83.825  -0.342  78.555   6.601  -0.622  64.688
 Approx polarizability: 123.592   0.719 110.509  16.484  -0.814 103.034

                      1                      2                      3
                      A                      A                      A
 Frequencies --     77.0639               120.8956               166.6553
 Red. masses --      3.6062                 3.0306                 3.4180
 Frc consts  --      0.0126                 0.0261                 0.0559
 IR Inten    --      2.3800                 5.0677                 5.0780

                      4                      5                      6
                      A                      A                      A
 Frequencies --    216.5118               281.3608               292.4155
 Red. masses --      1.8214                 1.9275                 2.0092
 Frc consts  --      0.0503                 0.0899                 0.1012
 IR Inten    --     22.5169                32.1169                62.7067

                      7                      8                      9
                      A                      A                      A
 Frequencies --    402.7251               447.1825               536.4177
 Red. masses --      3.0282                 3.7874                 3.3896
 Frc consts  --      0.2894                 0.4462                 0.5746
 IR Inten    --      4.6359                 0.8767                 9.9303

                     10                     11                     12
                      A                      A                      A
 Frequencies --    665.9450               752.7184               762.7824
 Red. masses --      4.2729                 3.6331                 1.6826
 Frc consts  --      1.1165                 1.2128                 0.5768
 IR Inten    --      4.6210                 2.3038                15.6035

                     13                     14                     15
                      A                      A                      A
 Frequencies --    813.3755               863.3027               897.5614
 Red. masses --      1.8709                 2.0899                 2.9949
 Frc consts  --      0.7293                 0.9177                 1.4216
 IR Inten    --      9.3438                 6.4056                 6.5658

                     16                     17                     18
                      A                      A                      A
 Frequencies --    945.7079               977.4794               980.2620
 Red. masses --      2.3013                 1.6807                 1.6426
 Frc consts  --      1.2127                 0.9461                 0.9299
 IR Inten    --     24.4222                 0.9608                19.4077

                     19                     20                     21
                      A                      A                      A
 Frequencies --    989.7497              1009.2511              1019.1936
 Red. masses --      1.7564                 4.4471                 3.3516
 Frc consts  --      1.0138                 2.6689                 2.0512
 IR Inten    --      6.1765                34.9992                53.3042

                     22                     23                     24
                      A                      A                      A
 Frequencies --   1042.4894              1073.1746              1083.6531
 Red. masses --      4.0971                 4.4657                 1.9245
 Frc consts  --      2.6234                 3.0302                 1.3315
 IR Inten    --     14.7729                93.1479                24.5700

                     25                     26                     27
                      A                      A                      A
 Frequencies --   1108.5188              1136.6108              1161.6217
 Red. masses --      1.7978                 1.2013                 1.1231
 Frc consts  --      1.3016                 0.9143                 0.8929
 IR Inten    --      7.7240                 1.7266                 3.0862

                     28                     29                     30
                      A                      A                      A
 Frequencies --   1193.8198              1217.3768              1263.6912
 Red. masses --      1.3395                 1.5658                 1.3737
 Frc consts  --      1.1248                 1.3672                 1.2925
 IR Inten    --      6.2999                 7.7870                 0.3401

                     31                     32                     33
                      A                      A                      A
 Frequencies --   1270.5809              1303.8177              1328.3392
 Red. masses --      1.4052                 1.3185                 1.4078
 Frc consts  --      1.3366                 1.3205                 1.4636
 IR Inten    --      1.4603                 2.4450                 8.6227

                     34                     35                     36
                      A                      A                      A
 Frequencies --   1343.8525              1359.1980              1384.8236
 Red. masses --      1.6483                 1.4462                 1.2255
 Frc consts  --      1.7539                 1.5741                 1.3846
 IR Inten    --      2.7489                 9.0616                 1.3912

                     37                     38                     39
                      A                      A                      A
 Frequencies --   1387.7203              1415.6226              1501.9308
 Red. masses --      1.7212                 1.2342                 1.0882
 Frc consts  --      1.9530                 1.4572                 1.4464
 IR Inten    --      7.3752                54.0725                 1.1776

                     40                     41                     42
                      A                      A                      A
 Frequencies --   1520.3611              1673.8735              2977.3966
 Red. masses --      1.0995                 6.4901                 1.0694
 Frc consts  --      1.4973                10.7139                 5.5855
 IR Inten    --      0.8064                 1.7155                36.1205

                     43                     44                     45
                      A                      A                      A
 Frequencies --   3008.9097              3015.1039              3043.9613
 Red. masses --      1.0602                 1.0786                 1.0863
 Frc consts  --      5.6554                 5.7773                 5.9303
 IR Inten    --     35.4549                67.1019                42.9694

                     46                     47                     48
                      A                      A                      A
 Frequencies --   3054.7584              3072.3727              3080.3775
 Red. masses --      1.1061                 1.0941                 1.0903
 Frc consts  --      6.0816                 6.0848                 6.0952
 IR Inten    --     24.2064                25.4255                63.8541

                     49                     50                     51
                      A                      A                      A
 Frequencies --   3176.1382              3207.5638              3821.2138
 Red. masses --      1.0862                 1.1019                 1.0660
 Frc consts  --      6.4559                 6.6795                 9.1706
 IR Inten    --      8.9223                15.3421                11.7018

 - Thermochemistry -
 -------------------
 Temperature   298.150 Kelvin.  Pressure   1.00000 Atm.
 Atom     1 has atomic number  8 and mass  15.99491

 Molecular mass:   126.06808 amu.
 Principal axes and moments of inertia in atomic units:
                           1         2         3
     Eigenvalues --   578.838991456.332941803.86659
           X            0.99997  -0.00713  -0.00257
           Y            0.00712   0.99997  -0.00076
           Z            0.00258   0.00074   1.00000
 This molecule is an asymmetric top.
 Rotational symmetry number  1.
 Warning -- assumption of classical behavior for rotation
           may cause significant error
 Rotational temperatures (Kelvin)      0.14963     0.05947     0.04802
 Rotational constants (GHZ):           3.11786     1.23924     1.00048
 Zero-point vibrational energy     421369.2 (Joules/Mol)
                                  100.70966 (Kcal/Mol)
 Warning -- explicit consideration of   9 degrees of freedom as
           vibrations may cause significant error
 Vibrational temperatures:    110.88   173.94   239.78   311.51   404.81
          (Kelvin)            420.72   579.43   643.40   771.78   958.15
                             1082.99  1097.47  1170.26  1242.10  1291.39
                             1360.66  1406.37  1410.38  1424.03  1452.09
                             1466.39  1499.91  1544.06  1559.13  1594.91
                             1635.33  1671.31  1717.64  1751.53  1818.17
                             1828.08  1875.90  1911.18  1933.50  1955.58
                             1992.45  1996.62  2036.76  2160.94  2187.46
                             2408.33  4283.80  4329.14  4338.06  4379.58
                             4395.11  4420.45  4431.97  4569.75  4614.96
                             5497.87

 Zero-point correction=                           0.160491 (Hartree/Particle)
 Thermal correction to Energy=                    0.168611
 Thermal correction to Enthalpy=                  0.169555
 Thermal correction to Gibbs Free Energy=         0.127423
 Sum of electronic and zero-point Energies=           -423.006748
 Sum of electronic and thermal Energies=              -422.998628
 Sum of electronic and thermal Enthalpies=            -422.997684
 Sum of electronic and thermal Free Energies=         -423.039817

                     E (Thermal)             CV                S
                      KCal/Mol        Cal/Mol-Kelvin    Cal/Mol-Kelvin
 Total                  105.805             30.791             88.676
 Electronic               0.000              0.000              0.000
 Translational            0.889              2.981             40.409
 Rotational               0.889              2.981             28.810
 Vibrational            104.028             24.829             19.458
 Vibration     1          0.599              1.964              3.964
 Vibration     2          0.609              1.932              3.086
 Vibration     3          0.624              1.883              2.473
 Vibration     4          0.645              1.816              1.988
 Vibration     5          0.681              1.708              1.525
 Vibration     6          0.688              1.688              1.460
 Vibration     7          0.768              1.464              0.953
 Vibration     8          0.806              1.367              0.804
 Vibration     9          0.891              1.169              0.573

 Optimization completed.
    -- Stationary point found.
 Normal termination of Gaussian 09 at Tue Jan 28 14:58:06 2020.
