 Gaussian 09, Revision D.01,
 Gaussian 09:  ES64L-G09RevD.01 24-Apr-2013

 -----------------------------
 # b3lyp 6-31G(2df,p) opt Freq
 -----------------------------

 -----
 titel
 -----
 Symbolic Z-matrix:
 Charge =  0 Multiplicity = 1

 SCF Done:  E(RB3LYP) =  -423.157509918     A.U. after   14 cycles
 Optimization completed.
    -- Stationary point found.
 Normal termination of Gaussian 09 at Mon Jan 27 16:10:01 2020.

 ----------------------------------------------------------------------
 #N Geom=AllCheck Guess=TCheck SCRF=Check GenChk RB3LYP/6-31G(2df,p) Fr
 eq
 ----------------------------------------------------------------------

 Structure from the checkpoint file:  "/scratch/puck/g09_d9c9772c-1058-4fd2-bc94-8ddd43df6294/Gau-10731.chk"
 -----
 titel
 -----
 Charge =  0 Multiplicity = 1

                         Standard orientation:
 ---------------------------------------------------------------------
 Center     Atomic      Atomic             Coordinates (Angstroms)
 Number     Number       Type             X           Y           Z
 ---------------------------------------------------------------------
      1          6           0        2.024328    1.230930   -0.499180
      2          6           0        1.473066   -0.102640   -0.048522
      3          8           0        2.429668   -1.137561   -0.093279
      4          6           0        0.446834   -0.299136    1.042702
      5          6           0       -0.639974    0.782148    1.028660
      6          6           0       -0.962157    0.430116   -0.453437
      7          6           0       -2.333658   -0.159339   -0.683050
      8          8           0       -3.184147   -0.303635    0.157217
      9          6           0        0.129880   -0.661014   -0.420369
     10          1           0        1.268636    2.019328   -0.510501
     11          1           0        2.827022    1.557697    0.173375
     12          1           0        2.445473    1.140329   -1.505312
     13          1           0        3.080213   -0.965694    0.596742
     14          1           0        0.654699   -0.974367    1.864447
     15          1           0       -1.493986    0.534565    1.661515
     16          1           0       -0.323295    1.807919    1.237557
     17          1           0       -0.805387    1.208596   -1.212052
     18          1           0       -2.510274   -0.487242   -1.733600
     19          1           0        0.062812   -1.637951   -0.884501
 ---------------------------------------------------------------------

 SCF Done:  E(RB3LYP) =  -423.157509918     A.U. after    1 cycles

 The electronic state is 1-A.
 Alpha  occ. eigenvalues --  -19.14549 -19.14221 -10.27190 -10.24721 -10.20432
 Alpha  occ. eigenvalues --  -10.19996 -10.19368 -10.18862 -10.18369  -1.04868
 Alpha  occ. eigenvalues --   -1.03341  -0.89483  -0.75559  -0.71714  -0.68428
 Alpha  occ. eigenvalues --   -0.59066  -0.56959  -0.53994  -0.51550  -0.48630
 Alpha  occ. eigenvalues --   -0.46675  -0.45998  -0.43143  -0.42523  -0.40912
 Alpha  occ. eigenvalues --   -0.38967  -0.38195  -0.37045  -0.34480  -0.33075
 Alpha  occ. eigenvalues --   -0.30922  -0.27324  -0.25517  -0.25090
 Alpha virt. eigenvalues --   -0.02252   0.06878   0.09307   0.09940   0.11071
 Alpha virt. eigenvalues --    0.12953   0.13972   0.14806   0.15864   0.16403
 Alpha virt. eigenvalues --    0.18408   0.19186   0.19522   0.20312   0.21955

 Mulliken charges:
               1
     1  C   -0.463428
     2  C    0.402070
     3  O   -0.473138
     4  C   -0.114096
     5  C   -0.273850
     6  C   -0.117797
     7  C    0.139024
     8  O   -0.235829
     9  C   -0.097663
    10  H    0.124000
    11  H    0.110039
    12  H    0.129089
    13  H    0.282431
    14  H    0.088333
    15  H    0.137323
    16  H    0.096952
    17  H    0.087042
    18  H    0.078935
    19  H    0.100562
 Sum of Mulliken charges =   0.00000

 Dipole moment (field-independent basis, Debye):
    X=              2.3210    Y=              1.2781    Z=             -0.2261  Tot=              2.6593
 Quadrupole moment (field-independent basis, Debye-Ang):
   XX=            -59.6759   YY=            -53.7184   ZZ=            -50.9193
   XY=              0.3568   XZ=              6.7138   YZ=             -1.1191

  Exact polarizability:  91.979   1.771  65.955   0.780   1.207  71.918
 Approx polarizability: 123.540   0.873  98.710  -3.762   2.387 114.876

                      1                      2                      3
                      A                      A                      A
 Frequencies --     71.4162               137.7294               190.5852
 Red. masses --      6.0107                 2.7752                 2.4861
 Frc consts  --      0.0181                 0.0310                 0.0532
 IR Inten    --      3.8180                 3.9437                 5.0286

                      4                      5                      6
                      A                      A                      A
 Frequencies --    208.3092               245.7285               274.6024
 Red. masses --      1.2706                 2.1045                 2.3734
 Frc consts  --      0.0325                 0.0749                 0.1054
 IR Inten    --      1.4568                16.9002                 8.5890

                      7                      8                      9
                      A                      A                      A
 Frequencies --    294.3657               347.4926               409.7422
 Red. masses --      1.4553                 2.8769                 3.6459
 Frc consts  --      0.0743                 0.2047                 0.3606
 IR Inten    --     60.9984                 8.7194                11.4092

                     10                     11                     12
                      A                      A                      A
 Frequencies --    456.8548               481.8613               663.0231
 Red. masses --      2.3934                 3.4026                 3.2535
 Frc consts  --      0.2943                 0.4655                 0.8427
 IR Inten    --      4.1061                 8.0105                 2.5114

                     13                     14                     15
                      A                      A                      A
 Frequencies --    690.4242               705.2928               838.6978
 Red. masses --      2.9265                 3.9743                 3.0853
 Frc consts  --      0.8219                 1.1648                 1.2787
 IR Inten    --      8.7999                 7.1023                19.9991

                     16                     17                     18
                      A                      A                      A
 Frequencies --    843.0907               879.5247               910.2272
 Red. masses --      1.3850                 2.4583                 1.8250
 Frc consts  --      0.5800                 1.1204                 0.8909
 IR Inten    --     13.7214                 3.0895                 6.5714

                     19                     20                     21
                      A                      A                      A
 Frequencies --    956.3790               983.5584              1002.6291
 Red. masses --      2.0493                 1.7485                 1.2133
 Frc consts  --      1.1044                 0.9966                 0.7186
 IR Inten    --      6.4599                 1.5338                 0.9985

                     22                     23                     24
                      A                      A                      A
 Frequencies --   1006.1464              1050.0918              1062.0220
 Red. masses --      1.9098                 2.3845                 2.3610
 Frc consts  --      1.1391                 1.5492                 1.5689
 IR Inten    --     15.1810                 8.9251                 1.4921

                     25                     26                     27
                      A                      A                      A
 Frequencies --   1087.7303              1092.4367              1155.2368
 Red. masses --      2.0647                 1.5638                 1.7753
 Frc consts  --      1.4393                 1.0996                 1.3959
 IR Inten    --     13.4408                20.5681                51.5936

                     28                     29                     30
                      A                      A                      A
 Frequencies --   1170.3070              1204.5365              1243.4954
 Red. masses --      1.4450                 1.4369                 1.6104
 Frc consts  --      1.1661                 1.2283                 1.4671
 IR Inten    --     25.4258                 3.4819                 5.4384

                     31                     32                     33
                      A                      A                      A
 Frequencies --   1258.8879              1274.7559              1312.4990
 Red. masses --      1.5798                 2.3495                 1.5789
 Frc consts  --      1.4752                 2.2495                 1.6025
 IR Inten    --     20.0746                22.9773                31.5744

                     34                     35                     36
                      A                      A                      A
 Frequencies --   1340.0629              1414.1891              1420.9613
 Red. masses --      1.7328                 1.2880                 1.2753
 Frc consts  --      1.8333                 1.5176                 1.5172
 IR Inten    --     19.1733                 3.0036                 7.9703

                     37                     38                     39
                      A                      A                      A
 Frequencies --   1434.8979              1484.6164              1494.6961
 Red. masses --      2.3836                 1.0907                 1.0979
 Frc consts  --      2.8916                 1.4164                 1.4452
 IR Inten    --     12.4502                 5.1981                 3.0734

                     40                     41                     42
                      A                      A                      A
 Frequencies --   1500.7117              1828.2398              2865.6043
 Red. masses --      1.1269                10.3736                 1.0824
 Frc consts  --      1.4953                20.4289                 5.2367
 IR Inten    --      4.9061               165.0089               124.6500

                     43                     44                     45
                      A                      A                      A
 Frequencies --   3017.5754              3029.7058              3059.6644
 Red. masses --      1.0824                 1.0416                 1.0625
 Frc consts  --      5.8070                 5.6329                 5.8605
 IR Inten    --     30.1742                26.6546                38.8290

                     46                     47                     48
                      A                      A                      A
 Frequencies --   3092.2783              3124.5207              3127.5753
 Red. masses --      1.0962                 1.1021                 1.0996
 Frc consts  --      6.1761                 6.3391                 6.3372
 IR Inten    --     18.6757                 8.4018                18.1712

                     49                     50                     51
                      A                      A                      A
 Frequencies --   3176.8302              3187.0764              3792.9023
 Red. masses --      1.0882                 1.0956                 1.0661
 Frc consts  --      6.4704                 6.5569                 9.0361
 IR Inten    --     13.5431                10.8115                17.6037

 - Thermochemistry -
 -------------------
 Temperature   298.150 Kelvin.  Pressure   1.00000 Atm.
 Atom     1 has atomic number  6 and mass  12.00000

 Molecular mass:   126.06808 amu.
 Principal axes and moments of inertia in atomic units:
                           1         2         3
     Eigenvalues --   463.375811807.668161874.68306
           X            0.99990   0.01354   0.00339
           Y           -0.01337   0.99876  -0.04794
           Z           -0.00403   0.04789   0.99884
 This molecule is an asymmetric top.
 Rotational symmetry number  1.
 Warning -- assumption of classical behavior for rotation
           may cause significant error
 Rotational temperatures (Kelvin)      0.18692     0.04791     0.04620
 Rotational constants (GHZ):           3.89477     0.99838     0.96269
 Zero-point vibrational energy     412124.2 (Joules/Mol)
                                   98.50005 (Kcal/Mol)
 Warning -- explicit consideration of  11 degrees of freedom as
           vibrations may cause significant error
 Vibrational temperatures:    102.75   198.16   274.21   299.71   353.55
          (Kelvin)            395.09   423.53   499.96   589.53   657.31
                              693.29   953.94   993.37  1014.76  1206.70
                             1213.02  1265.44  1309.61  1376.01  1415.12
                             1442.56  1447.62  1510.85  1528.01  1565.00
                             1571.77  1662.13  1683.81  1733.06  1789.11
                             1811.26  1834.09  1888.39  1928.05  2034.70
                             2044.44  2064.50  2136.03  2150.53  2159.19
                             2630.43  4122.96  4341.61  4359.07  4402.17
                             4449.09  4495.48  4499.88  4570.74  4585.49
                             5457.13

 Zero-point correction=                           0.156970 (Hartree/Particle)
 Thermal correction to Energy=                    0.165933
 Thermal correction to Enthalpy=                  0.166877
 Thermal correction to Gibbs Free Energy=         0.123404
 Sum of electronic and zero-point Energies=           -423.000540
 Sum of electronic and thermal Energies=              -422.991577
 Sum of electronic and thermal Enthalpies=            -422.990633
 Sum of electronic and thermal Free Energies=         -423.034106

                     E (Thermal)             CV                S
                      KCal/Mol        Cal/Mol-Kelvin    Cal/Mol-Kelvin
 Total                  104.125             33.896             91.497
 Electronic               0.000              0.000              0.000
 Translational            0.889              2.981             40.409
 Rotational               0.889              2.981             28.842
 Vibrational            102.347             27.934             22.247
 Vibration     1          0.598              1.968              4.114
 Vibration     2          0.614              1.916              2.835
 Vibration     3          0.634              1.853              2.222
 Vibration     4          0.642              1.828              2.058
 Vibration     5          0.660              1.770              1.761
 Vibration     6          0.677              1.720              1.567
 Vibration     7          0.689              1.684              1.449
 Vibration     8          0.725              1.580              1.178
 Vibration     9          0.774              1.449              0.928
 Vibration    10          0.815              1.346              0.775
 Vibration    11          0.838              1.290              0.705

 Normal termination of Gaussian 09 at Mon Jan 27 17:57:40 2020.
