 Gaussian 09, Revision D.01,
 Gaussian 09:  ES64L-G09RevD.01 24-Apr-2013

 -----------------------------
 # b3lyp 6-31G(2df,p) opt Freq
 -----------------------------

 -----
 titel
 -----
 Symbolic Z-matrix:
 Charge =  0 Multiplicity = 1

 SCF Done:  E(RB3LYP) =  -423.176847103     A.U. after   14 cycles
 Optimization completed.
    -- Stationary point found.
 Normal termination of Gaussian 09 at Mon Jan 27 14:03:01 2020.

 ----------------------------------------------------------------------
 #N Geom=AllCheck Guess=TCheck SCRF=Check GenChk RB3LYP/6-31G(2df,p) Fr
 eq
 ----------------------------------------------------------------------

 Structure from the checkpoint file:  "/scratch/puck/g09_b90f051a-6d5c-4319-9f72-1296a834ce30/Gau-30632.chk"
 -----
 titel
 -----
 Charge =  0 Multiplicity = 1

                         Standard orientation:
 ---------------------------------------------------------------------
 Center     Atomic      Atomic             Coordinates (Angstroms)
 Number     Number       Type             X           Y           Z
 ---------------------------------------------------------------------
      1          6           0        3.133706    1.139882    0.101635
      2          6           0        2.402920   -0.182056   -0.016765
      3          8           0        2.975045   -1.247725   -0.104564
      4          6           0        0.953694   -0.096494   -0.019310
      5          6           0       -0.252588   -0.026791   -0.028432
      6          6           0       -1.724566   -0.008661   -0.017672
      7          6           0       -2.220899    0.043521    1.440827
      8          6           0       -2.256239    1.183052   -0.825733
      9          8           0       -2.235583   -1.170258   -0.675172
     10          1           0        2.835643    1.654369    1.021555
     11          1           0        4.210239    0.963314    0.103016
     12          1           0        2.861756    1.794877   -0.733191
     13          1           0       -1.853165   -0.819537    2.003819
     14          1           0       -1.876241    0.950726    1.944896
     15          1           0       -3.314105    0.024667    1.443339
     16          1           0       -1.899072    1.127709   -1.856110
     17          1           0       -3.349064    1.149328   -0.832521
     18          1           0       -1.929265    2.127502   -0.384798
     19          1           0       -1.818609   -1.943813   -0.279428
 ---------------------------------------------------------------------

 SCF Done:  E(RB3LYP) =  -423.176847103     A.U. after    1 cycles

 The electronic state is 1-A.
 Alpha  occ. eigenvalues --  -19.14689 -19.13445 -10.28998 -10.27420 -10.20253
 Alpha  occ. eigenvalues --  -10.19360 -10.19172 -10.19066 -10.18715  -1.04487
 Alpha  occ. eigenvalues --   -1.03273  -0.81096  -0.77367  -0.73637  -0.70509
 Alpha  occ. eigenvalues --   -0.64150  -0.59789  -0.54327  -0.48238  -0.46901
 Alpha  occ. eigenvalues --   -0.45328  -0.44715  -0.43918  -0.40945  -0.40294
 Alpha  occ. eigenvalues --   -0.39752  -0.39102  -0.37340  -0.36958  -0.35138
 Alpha  occ. eigenvalues --   -0.29772  -0.28323  -0.27654  -0.25805
 Alpha virt. eigenvalues --   -0.05016   0.02546   0.07153   0.09058   0.11100
 Alpha virt. eigenvalues --    0.12086   0.13415   0.14393   0.15500   0.16068
 Alpha virt. eigenvalues --    0.17928   0.17964   0.18567   0.19743   0.20229

 Mulliken charges:
               1
     1  C   -0.477621
     2  C    0.249029
     3  O   -0.276386
     4  C   -0.041587
     5  C    0.122271
     6  C    0.160790
     7  C   -0.402476
     8  C   -0.385664
     9  O   -0.436432
    10  H    0.145234
    11  H    0.143922
    12  H    0.147583
    13  H    0.121380
    14  H    0.125885
    15  H    0.129250
    16  H    0.136169
    17  H    0.128635
    18  H    0.122686
    19  H    0.287330
 Sum of Mulliken charges =   0.00000

 Dipole moment (field-independent basis, Debye):
    X=             -1.3427    Y=              2.4204    Z=              1.2825  Tot=              3.0506
 Quadrupole moment (field-independent basis, Debye-Ang):
   XX=            -57.0311   YY=            -52.5333   ZZ=            -53.2364
   XY=              6.2257   XZ=             -2.0389   YZ=             -1.7081

  Exact polarizability: 117.042  -3.212  72.744  -0.669  -0.266  61.545
 Approx polarizability: 168.320 -13.675 111.088   0.853   2.117  87.798

                      1                      2                      3
                      A                      A                      A
 Frequencies --     19.4015                72.4071                83.9780
 Red. masses --      3.6967                 4.1195                 3.5720
 Frc consts  --      0.0008                 0.0127                 0.0148
 IR Inten    --      2.8658                 2.5935                 0.2452

                      4                      5                      6
                      A                      A                      A
 Frequencies --    122.6309               179.6988               212.2247
 Red. masses --      1.0825                 3.2776                 1.0660
 Frc consts  --      0.0096                 0.0624                 0.0283
 IR Inten    --      0.0505                 1.1179                 3.5176

                      7                      8                      9
                      A                      A                      A
 Frequencies --    235.5825               264.7967               282.6461
 Red. masses --      3.9903                 1.1363                 2.4269
 Frc consts  --      0.1305                 0.0469                 0.1142
 IR Inten    --      0.1109                 1.6830                22.4224

                     10                     11                     12
                      A                      A                      A
 Frequencies --    309.6642               356.5538               396.7825
 Red. masses --      1.3228                 2.5127                 3.4657
 Frc consts  --      0.0747                 0.1882                 0.3215
 IR Inten    --     83.7912                12.1486                 4.3151

                     13                     14                     15
                      A                      A                      A
 Frequencies --    459.5041               528.8576               564.5947
 Red. masses --      3.0856                 4.7365                 3.8515
 Frc consts  --      0.3839                 0.7805                 0.7234
 IR Inten    --     10.0438                 3.8258                 7.4933

                     16                     17                     18
                      A                      A                      A
 Frequencies --    602.4762               614.5253               643.8193
 Red. masses --      4.2818                 3.5552                 4.3222
 Frc consts  --      0.9157                 0.7910                 1.0556
 IR Inten    --      6.1728                 1.3193                19.3515

                     19                     20                     21
                      A                      A                      A
 Frequencies --    813.9223               923.4580               932.9139
 Red. masses --      4.1182                 2.4934                 1.6425
 Frc consts  --      1.6074                 1.2528                 0.8422
 IR Inten    --      1.9445                 3.8428                 1.4635

                     22                     23                     24
                      A                      A                      A
 Frequencies --    965.3381               997.3372              1018.3102
 Red. masses --      2.3471                 1.8009                 1.3243
 Frc consts  --      1.2887                 1.0554                 0.8091
 IR Inten    --     76.4567                 9.5649                 0.4659

                     25                     26                     27
                      A                      A                      A
 Frequencies --   1042.8197              1123.7879              1194.2175
 Red. masses --      1.8443                 1.8625                 2.5605
 Frc consts  --      1.1817                 1.3858                 2.1515
 IR Inten    --      4.8480                38.8111                65.2474

                     28                     29                     30
                      A                      A                      A
 Frequencies --   1207.2305              1255.4021              1367.0649
 Red. masses --      2.8284                 3.4138                 1.4843
 Frc consts  --      2.4287                 3.1700                 1.6343
 IR Inten    --     28.9172               230.9160                93.1182

                     31                     32                     33
                      A                      A                      A
 Frequencies --   1380.8978              1391.4061              1412.4254
 Red. masses --      1.3104                 1.2801                 1.2442
 Frc consts  --      1.4722                 1.4602                 1.4624
 IR Inten    --     38.9021                14.7306                 3.0378

                     34                     35                     36
                      A                      A                      A
 Frequencies --   1460.5258              1468.8021              1474.5906
 Red. masses --      1.0540                 1.0474                 1.0498
 Frc consts  --      1.3246                 1.3313                 1.3450
 IR Inten    --     11.3357                 7.3411                 1.5080

                     37                     38                     39
                      A                      A                      A
 Frequencies --   1479.2776              1492.8629              1503.7540
 Red. masses --      1.0481                 1.0650                 1.0577
 Frc consts  --      1.3513                 1.3985                 1.4091
 IR Inten    --      0.9213                 4.9130                 0.7374

                     40                     41                     42
                      A                      A                      A
 Frequencies --   1767.9804              2318.0046              3039.3332
 Red. masses --     11.0906                11.9693                 1.0356
 Frc consts  --     20.4249                37.8920                 5.6361
 IR Inten    --    207.5260                93.8647                 1.4935

                     43                     44                     45
                      A                      A                      A
 Frequencies --   3040.7654              3053.0730              3103.5439
 Red. masses --      1.0336                 1.0341                 1.0986
 Frc consts  --      5.6306                 5.6793                 6.2347
 IR Inten    --     13.1031                11.3472                 5.5135

                     46                     47                     48
                      A                      A                      A
 Frequencies --   3117.2703              3125.6314              3132.7990
 Red. masses --      1.1022                 1.1033                 1.1022
 Frc consts  --      6.3102                 6.3505                 6.3735
 IR Inten    --     19.0246                 5.1255                26.5810

                     49                     50                     51
                      A                      A                      A
 Frequencies --   3140.6075              3152.1892              3806.3907
 Red. masses --      1.1032                 1.1029                 1.0662
 Frc consts  --      6.4108                 6.4568                 9.1018
 IR Inten    --     15.5041                 9.8906                20.7786

 - Thermochemistry -
 -------------------
 Temperature   298.150 Kelvin.  Pressure   1.00000 Atm.
 Atom     1 has atomic number  6 and mass  12.00000

 Molecular mass:   126.06808 amu.
 Principal axes and moments of inertia in atomic units:
                           1         2         3
     Eigenvalues --   554.889432524.268212675.95370
           X            0.99991   0.01155  -0.00642
           Y           -0.01190   0.99820  -0.05871
           Z            0.00573   0.05878   0.99825
 This molecule is an asymmetric top.
 Rotational symmetry number  1.
 Warning -- assumption of classical behavior for rotation
           may cause significant error
 Rotational temperatures (Kelvin)      0.15609     0.03431     0.03237
 Rotational constants (GHZ):           3.25243     0.71496     0.67443
 Zero-point vibrational energy     404661.2 (Joules/Mol)
                                   96.71636 (Kcal/Mol)
 Warning -- explicit consideration of  17 degrees of freedom as
           vibrations may cause significant error
 Vibrational temperatures:     27.91   104.18   120.83   176.44   258.55
          (Kelvin)            305.34   338.95   380.98   406.66   445.54
                              513.00   570.88   661.12   760.91   812.32
                              866.83   884.16   926.31  1171.05  1328.65
                             1342.25  1388.90  1434.94  1465.12  1500.38
                             1616.88  1718.21  1736.93  1806.24  1966.90
                             1986.80  2001.92  2032.16  2101.37  2113.28
                             2121.60  2128.35  2147.89  2163.56  2543.73
                             3335.09  4372.92  4374.98  4392.69  4465.30
                             4485.05  4497.08  4507.39  4518.63  4535.29
                             5476.54

 Zero-point correction=                           0.154127 (Hartree/Particle)
 Thermal correction to Energy=                    0.165272
 Thermal correction to Enthalpy=                  0.166216
 Thermal correction to Gibbs Free Energy=         0.116407
 Sum of electronic and zero-point Energies=           -423.022720
 Sum of electronic and thermal Energies=              -423.011575
 Sum of electronic and thermal Enthalpies=            -423.010631
 Sum of electronic and thermal Free Energies=         -423.060440

                     E (Thermal)             CV                S
                      KCal/Mol        Cal/Mol-Kelvin    Cal/Mol-Kelvin
 Total                  103.710             38.859            104.831
 Electronic               0.000              0.000              0.000
 Translational            0.889              2.981             40.409
 Rotational               0.889              2.981             29.706
 Vibrational            101.932             32.897             34.716
 Vibration     1          0.593              1.986              6.695
 Vibration     2          0.599              1.967              4.087
 Vibration     3          0.601              1.960              3.796
 Vibration     4          0.610              1.930              3.058
 Vibration     5          0.629              1.867              2.332
 Vibration     6          0.643              1.822              2.024
 Vibration     7          0.655              1.786              1.836
 Vibration     8          0.671              1.738              1.630
 Vibration     9          0.682              1.706              1.518
 Vibration    10          0.699              1.655              1.364
 Vibration    11          0.732              1.562              1.137
 Vibration    12          0.763              1.477              0.975
 Vibration    13          0.817              1.340              0.768
 Vibration    14          0.884              1.186              0.590
 Vibration    15          0.920              1.108              0.515
 Vibration    16          0.961              1.027              0.445
 Vibration    17          0.974              1.001              0.425

 Normal termination of Gaussian 09 at Mon Jan 27 14:38:48 2020.
