 Gaussian 09, Revision D.01,
 Gaussian 09:  ES64L-G09RevD.01 24-Apr-2013

 -----------------------------
 # b3lyp 6-31G(2df,p) opt Freq
 -----------------------------

 -----
 titel
 -----
 Symbolic Z-matrix:
 Charge =  0 Multiplicity = 1

 SCF Done:  E(RB3LYP) =  -423.115395957     A.U. after   14 cycles
 Optimization completed.
    -- Stationary point found.
 Normal termination of Gaussian 09 at Tue Jan 28 14:27:31 2020.

 ----------------------------------------------------------------------
 #N Geom=AllCheck Guess=TCheck SCRF=Check GenChk RB3LYP/6-31G(2df,p) Fr
 eq
 ----------------------------------------------------------------------

 Structure from the checkpoint file:  "/scratch/puck/g09_e3ec555a-78c5-4815-99b2-e9ce66fad9b3/Gau-122013.chk"
 -----
 titel
 -----
 Charge =  0 Multiplicity = 1

                         Standard orientation:
 ---------------------------------------------------------------------
 Center     Atomic      Atomic             Coordinates (Angstroms)
 Number     Number       Type             X           Y           Z
 ---------------------------------------------------------------------
      1          6           0       -4.324068   -0.676920   -0.023066
      2          8           0       -3.324261    0.305026   -0.159735
      3          6           0       -2.029668   -0.192220    0.083628
      4          6           0       -1.047418    0.969230   -0.107050
      5          6           0        0.335544    0.573311    0.119065
      6          6           0        1.472602    0.219849    0.303079
      7          6           0        2.824147   -0.199984    0.553496
      8          6           0        3.959107    0.309266   -0.242436
      9          8           0        3.469371   -1.008698   -0.446910
     10          1           0       -4.177835   -1.509473   -0.729114
     11          1           0       -4.351220   -1.093272    0.996340
     12          1           0       -5.283179   -0.198353   -0.234684
     13          1           0       -1.946152   -0.593743    1.106636
     14          1           0       -1.783691   -1.011837   -0.610657
     15          1           0       -1.168842    1.365996   -1.122088
     16          1           0       -1.327368    1.778968    0.577677
     17          1           0        3.033476   -0.523314    1.572811
     18          1           0        3.760827    1.015343   -1.046493
     19          1           0        4.941627    0.383877    0.222446
 ---------------------------------------------------------------------

 SCF Done:  E(RB3LYP) =  -423.115395957     A.U. after    1 cycles

 The electronic state is 1-A.
 Alpha  occ. eigenvalues --  -19.15639 -19.14446 -10.25927 -10.24064 -10.23529
 Alpha  occ. eigenvalues --  -10.22732 -10.20918 -10.18486 -10.17709  -1.07626
 Alpha  occ. eigenvalues --   -1.03848  -0.80263  -0.75076  -0.69828  -0.66924
 Alpha  occ. eigenvalues --   -0.64392  -0.61719  -0.53359  -0.50308  -0.49320
 Alpha  occ. eigenvalues --   -0.49031  -0.46527  -0.43436  -0.43393  -0.41021
 Alpha  occ. eigenvalues --   -0.40279  -0.38224  -0.37281  -0.33989  -0.32348
 Alpha  occ. eigenvalues --   -0.27903  -0.26449  -0.25915  -0.25027
 Alpha virt. eigenvalues --    0.02524   0.04218   0.08837   0.10934   0.11720
 Alpha virt. eigenvalues --    0.13285   0.13941   0.14005   0.14705   0.15617
 Alpha virt. eigenvalues --    0.17020   0.17228   0.17713   0.18446   0.21603

 Mulliken charges:
               1
     1  C   -0.230294
     2  O   -0.227230
     3  C   -0.043208
     4  C   -0.357701
     5  C    0.067279
     6  C    0.102280
     7  C   -0.116823
     8  C   -0.159107
     9  O   -0.215892
    10  H    0.107035
    11  H    0.105967
    12  H    0.129023
    13  H    0.097204
    14  H    0.101254
    15  H    0.142160
    16  H    0.141002
    17  H    0.115088
    18  H    0.123745
    19  H    0.118218
 Sum of Mulliken charges =   0.00000

 Dipole moment (field-independent basis, Debye):
    X=             -0.5976    Y=              0.5803    Z=              0.9574  Tot=              1.2691
 Quadrupole moment (field-independent basis, Debye-Ang):
   XX=            -46.4778   YY=            -54.6847   ZZ=            -52.3870
   XY=              8.3728   XZ=              2.3357   YZ=             -1.7562

  Exact polarizability: 128.224  -2.766  62.942   0.898  -3.016  61.689
 Approx polarizability: 160.279 -14.392  97.476   2.371  -3.094  92.311

                      1                      2                      3
                      A                      A                      A
 Frequencies --     15.2672                65.1947                69.2531
 Red. masses --      3.1437                 3.7211                 2.2880
 Frc consts  --      0.0004                 0.0093                 0.0065
 IR Inten    --      3.1066                 2.0846                 1.3434

                      4                      5                      6
                      A                      A                      A
 Frequencies --    102.1203               140.2878               171.7809
 Red. masses --      2.8795                 3.0971                 3.8953
 Frc consts  --      0.0177                 0.0359                 0.0677
 IR Inten    --      1.3605                 3.1757                 1.4938

                      7                      8                      9
                      A                      A                      A
 Frequencies --    232.4451               265.8421               338.5464
 Red. masses --      1.2692                 4.0141                 4.0494
 Frc consts  --      0.0404                 0.1671                 0.2735
 IR Inten    --      2.4800                 4.6938                 5.0896

                     10                     11                     12
                      A                      A                      A
 Frequencies --    390.9860               475.6164               516.5782
 Red. masses --      4.5777                 3.6408                 4.6115
 Frc consts  --      0.4123                 0.4852                 0.7250
 IR Inten    --      0.3592                 6.8196                 1.9230

                     13                     14                     15
                      A                      A                      A
 Frequencies --    560.8498               739.5937               794.7026
 Red. masses --      7.6104                 2.5071                 1.1688
 Frc consts  --      1.4104                 0.8080                 0.4349
 IR Inten    --      8.0977                 2.4858                 0.3144

                     16                     17                     18
                      A                      A                      A
 Frequencies --    833.1934               906.7277               987.3323
 Red. masses --      8.0134                 3.6722                 2.7902
 Frc consts  --      3.2776                 1.7788                 1.6026
 IR Inten    --     26.9655                35.0116                 3.9047

                     19                     20                     21
                      A                      A                      A
 Frequencies --   1003.5267              1053.1974              1085.6042
 Red. masses --      2.1689                 3.4648                 1.1797
 Frc consts  --      1.2869                 2.2644                 0.8191
 IR Inten    --     32.9139                 1.2509                 0.1900

                     22                     23                     24
                      A                      A                      A
 Frequencies --   1085.8482              1148.3847              1159.6404
 Red. masses --      1.5429                 1.6825                 1.4727
 Frc consts  --      1.0719                 1.3074                 1.1668
 IR Inten    --      1.3162                 4.2506                12.9693

                     25                     26                     27
                      A                      A                      A
 Frequencies --   1164.1220              1182.4759              1185.5528
 Red. masses --      3.4866                 1.2466                 2.1146
 Frc consts  --      2.7839                 1.0270                 1.7511
 IR Inten    --    168.0727                 1.9522                15.7167

                     28                     29                     30
                      A                      A                      A
 Frequencies --   1227.5974              1232.1857              1281.8886
 Red. masses --      1.7058                 1.2458                 1.6504
 Frc consts  --      1.5145                 1.1144                 1.5978
 IR Inten    --     57.5053                 5.4229                 8.0986

                     31                     32                     33
                      A                      A                      A
 Frequencies --   1299.1386              1315.7780              1407.1067
 Red. masses --      1.0865                 1.5343                 1.7918
 Frc consts  --      1.0804                 1.5651                 2.0903
 IR Inten    --      0.6111                 4.8467                55.3163

                     34                     35                     36
                      A                      A                      A
 Frequencies --   1419.8443              1473.2495              1482.3433
 Red. masses --      1.4476                 1.0827                 1.1579
 Frc consts  --      1.7194                 1.3846                 1.4991
 IR Inten    --     16.5130                 2.2278                 1.1823

                     37                     38                     39
                      A                      A                      A
 Frequencies --   1486.1839              1504.7644              1519.6855
 Red. masses --      1.0464                 1.0607                 1.2369
 Frc consts  --      1.3618                 1.4150                 1.6830
 IR Inten    --      5.2001                10.3513                 1.6439

                     40                     41                     42
                      A                      A                      A
 Frequencies --   1531.7786              2367.0562              2963.7716
 Red. masses --      1.0933                11.8763                 1.0474
 Frc consts  --      1.5113                39.2055                 5.4205
 IR Inten    --      1.3302                13.1247                27.2921

                     43                     44                     45
                      A                      A                      A
 Frequencies --   2976.2535              2998.3075              3016.9252
 Red. masses --      1.0436                 1.1058                 1.1034
 Frc consts  --      5.4465                 5.8571                 5.9170
 IR Inten    --     69.2064                51.9639                51.3699

                     46                     47                     48
                      A                      A                      A
 Frequencies --   3033.1829              3070.4345              3084.1660
 Red. masses --      1.0581                 1.1026                 1.0499
 Frc consts  --      5.7353                 6.1245                 5.8841
 IR Inten    --     17.2258                14.6455                30.0952

                     49                     50                     51
                      A                      A                      A
 Frequencies --   3112.5566              3116.1202              3177.8824
 Red. masses --      1.0866                 1.0961                 1.1199
 Frc consts  --      6.2024                 6.2707                 6.6633
 IR Inten    --     20.5774                30.4218                24.5374

 - Thermochemistry -
 -------------------
 Temperature   298.150 Kelvin.  Pressure   1.00000 Atm.
 Atom     1 has atomic number  6 and mass  12.00000

 Molecular mass:   126.06808 amu.
 Principal axes and moments of inertia in atomic units:
                           1         2         3
     Eigenvalues --   251.051083956.792564080.81279
           X            0.99989   0.01463   0.00030
           Y           -0.01458   0.99778  -0.06493
           Z           -0.00125   0.06492   0.99789
 This molecule is an asymmetric top.
 Rotational symmetry number  1.
 Rotational temperatures (Kelvin)      0.34500     0.02189     0.02122
 Rotational constants (GHZ):           7.18874     0.45611     0.44225
 Zero-point vibrational energy     411353.1 (Joules/Mol)
                                   98.31575 (Kcal/Mol)
 Warning -- explicit consideration of  13 degrees of freedom as
           vibrations may cause significant error
 Vibrational temperatures:     21.97    93.80    99.64   146.93   201.84
          (Kelvin)            247.15   334.44   382.49   487.09   562.54
                              684.31   743.24   806.94  1064.11  1143.40
                             1198.78  1304.58  1420.55  1443.85  1515.31
                             1561.94  1562.29  1652.27  1668.46  1674.91
                             1701.32  1705.74  1766.24  1772.84  1844.35
                             1869.17  1893.11  2024.51  2042.84  2119.67
                             2132.76  2138.28  2165.02  2186.49  2203.88
                             3405.66  4264.20  4282.16  4313.89  4340.68
                             4364.07  4417.66  4437.42  4478.27  4483.40
                             4572.26

 Zero-point correction=                           0.156676 (Hartree/Particle)
 Thermal correction to Energy=                    0.166981
 Thermal correction to Enthalpy=                  0.167925
 Thermal correction to Gibbs Free Energy=         0.118650
 Sum of electronic and zero-point Energies=           -422.958720
 Sum of electronic and thermal Energies=              -422.948415
 Sum of electronic and thermal Enthalpies=            -422.947471
 Sum of electronic and thermal Free Energies=         -422.996746

                     E (Thermal)             CV                S
                      KCal/Mol        Cal/Mol-Kelvin    Cal/Mol-Kelvin
 Total                  104.782             34.660            103.708
 Electronic               0.000              0.000              0.000
 Translational            0.889              2.981             40.409
 Rotational               0.889              2.981             29.784
 Vibrational            103.005             28.698             33.516
 Vibration     1          0.593              1.986              7.170
 Vibration     2          0.597              1.971              4.293
 Vibration     3          0.598              1.969              4.174
 Vibration     4          0.604              1.947              3.413
 Vibration     5          0.615              1.913              2.800
 Vibration     6          0.626              1.877              2.416
 Vibration     7          0.653              1.791              1.860
 Vibration     8          0.672              1.736              1.623
 Vibration     9          0.719              1.598              1.219
 Vibration    10          0.759              1.489              0.996
 Vibration    11          0.832              1.304              0.722
 Vibration    12          0.872              1.213              0.618
 Vibration    13          0.917              1.116              0.522

 Optimization completed.
    -- Stationary point found.
 Normal termination of Gaussian 09 at Tue Jan 28 14:55:03 2020.
