 Gaussian 09, Revision D.01,
 Gaussian 09:  ES64L-G09RevD.01 24-Apr-2013

 -----------------------------
 # b3lyp 6-31G(2df,p) opt Freq
 -----------------------------

 -----
 titel
 -----
 Symbolic Z-matrix:
 Charge =  0 Multiplicity = 1

 SCF Done:  E(RB3LYP) =  -423.171973076     A.U. after   14 cycles
 Optimization completed.
    -- Stationary point found.
 Normal termination of Gaussian 09 at Tue Jan 28 12:09:00 2020.

 ----------------------------------------------------------------------
 #N Geom=AllCheck Guess=TCheck SCRF=Check GenChk RB3LYP/6-31G(2df,p) Fr
 eq
 ----------------------------------------------------------------------

 Structure from the checkpoint file:  "/scratch/puck/g09_830f01ac-4456-4757-8711-b94c120444c5/Gau-65845.chk"
 -----
 titel
 -----
 Charge =  0 Multiplicity = 1

                         Standard orientation:
 ---------------------------------------------------------------------
 Center     Atomic      Atomic             Coordinates (Angstroms)
 Number     Number       Type             X           Y           Z
 ---------------------------------------------------------------------
      1          8           0        2.829560   -0.582836   -0.137646
      2          6           0        1.750126   -0.344036    0.755448
      3          6           0        0.480556    0.047152    0.034397
      4          6           0        0.464305    1.403648   -0.723802
      5          6           0       -0.849633    1.812306    0.003784
      6          6           0       -0.848735    0.462732    0.792036
      7          6           0       -1.574205   -0.653623    0.040453
      8          8           0       -2.699442   -1.061083    0.047970
      9          6           0       -0.294956   -1.087866   -0.705544
     10          1           0        2.589175   -1.329042   -0.696836
     11          1           0        1.563435   -1.215990    1.404650
     12          1           0        2.083063    0.475190    1.402669
     13          1           0        1.317100    2.039132   -0.474087
     14          1           0        0.407386    1.330751   -1.812736
     15          1           0       -0.734310    2.675939    0.661223
     16          1           0       -1.727117    1.980907   -0.624866
     17          1           0       -0.973003    0.506180    1.875451
     18          1           0        0.004802   -2.098509   -0.400451
     19          1           0       -0.336218   -1.055080   -1.798237
 ---------------------------------------------------------------------

 SCF Done:  E(RB3LYP) =  -423.171973076     A.U. after    1 cycles

 The electronic state is 1-A.
 Alpha  occ. eigenvalues --  -19.14202 -19.13793 -10.27099 -10.23380 -10.20469
 Alpha  occ. eigenvalues --  -10.19839 -10.19706 -10.19671 -10.18986  -1.04676
 Alpha  occ. eigenvalues --   -1.02233  -0.88398  -0.75700  -0.71722  -0.67595
 Alpha  occ. eigenvalues --   -0.61837  -0.56387  -0.52230  -0.51101  -0.47930
 Alpha  occ. eigenvalues --   -0.47627  -0.46092  -0.43553  -0.42269  -0.41319
 Alpha  occ. eigenvalues --   -0.39863  -0.37215  -0.35465  -0.34852  -0.32790
 Alpha  occ. eigenvalues --   -0.30915  -0.30163  -0.26932  -0.24256
 Alpha virt. eigenvalues --   -0.02447   0.05347   0.08433   0.09768   0.11601
 Alpha virt. eigenvalues --    0.12206   0.13514   0.14000   0.15230   0.16160
 Alpha virt. eigenvalues --    0.16709   0.17964   0.19568   0.21187   0.22201

 Mulliken charges:
               1
     1  O   -0.415542
     2  C   -0.173835
     3  C    0.350027
     4  C   -0.275445
     5  C   -0.228299
     6  C   -0.222130
     7  C    0.423496
     8  O   -0.299337
     9  C   -0.435430
    10  H    0.285322
    11  H    0.085865
    12  H    0.109839
    13  H    0.114294
    14  H    0.102485
    15  H    0.116929
    16  H    0.117857
    17  H    0.089638
    18  H    0.126219
    19  H    0.128047
 Sum of Mulliken charges =   0.00000

 Dipole moment (field-independent basis, Debye):
    X=              1.3566    Y=              0.4928    Z=             -0.1272  Tot=              1.4489
 Quadrupole moment (field-independent basis, Debye-Ang):
   XX=            -69.1584   YY=            -50.2536   ZZ=            -50.2542
   XY=             -5.5616   XZ=             -0.0459   YZ=              1.6827

  Exact polarizability:  82.474   1.134  76.829  -1.759   2.914  67.101
 Approx polarizability: 120.804   5.763 109.562  -4.075   5.095 102.218

                      1                      2                      3
                      A                      A                      A
 Frequencies --     51.2871                93.9716               144.4691
 Red. masses --      3.5716                 3.2351                 2.7143
 Frc consts  --      0.0055                 0.0168                 0.0334
 IR Inten    --      5.7983                 4.7427                 1.5797

                      4                      5                      6
                      A                      A                      A
 Frequencies --    196.3558               289.2996               347.1449
 Red. masses --      3.5476                 1.2750                 2.0887
 Frc consts  --      0.0806                 0.0629                 0.1483
 IR Inten    --      1.2085                73.2451                 8.4727

                      7                      8                      9
                      A                      A                      A
 Frequencies --    351.5595               379.1994               438.2708
 Red. masses --      1.9973                 3.6845                 3.8975
 Frc consts  --      0.1454                 0.3122                 0.4411
 IR Inten    --      9.0723                28.7256                 1.3579

                     10                     11                     12
                      A                      A                      A
 Frequencies --    527.6369               587.4714               667.2214
 Red. masses --      2.2646                 3.6158                 2.9651
 Frc consts  --      0.3715                 0.7352                 0.7777
 IR Inten    --      1.0106                 3.3827                 2.5795

                     13                     14                     15
                      A                      A                      A
 Frequencies --    721.9829               771.2178               851.6415
 Red. masses --      1.9251                 1.4483                 2.2434
 Frc consts  --      0.5912                 0.5075                 0.9587
 IR Inten    --      5.8712                 0.8752                 1.7179

                     16                     17                     18
                      A                      A                      A
 Frequencies --    888.9914               906.8850               945.3708
 Red. masses --      2.9885                 1.9589                 2.0726
 Frc consts  --      1.3915                 0.9492                 1.0914
 IR Inten    --      0.4285                 3.0941                 8.2666

                     19                     20                     21
                      A                      A                      A
 Frequencies --    959.3446               964.1617              1008.3441
 Red. masses --      2.4889                 2.3264                 1.6258
 Frc consts  --      1.3496                 1.2742                 0.9739
 IR Inten    --      4.0362                12.7308                29.4217

                     22                     23                     24
                      A                      A                      A
 Frequencies --   1019.2277              1059.5489              1092.4869
 Red. masses --      3.3574                 2.9940                 2.4948
 Frc consts  --      2.0549                 1.9803                 1.7544
 IR Inten    --     11.5159                91.3323                17.5178

                     25                     26                     27
                      A                      A                      A
 Frequencies --   1128.0435              1134.9759              1146.1902
 Red. masses --      1.8729                 1.5149                 1.6003
 Frc consts  --      1.4042                 1.1498                 1.2387
 IR Inten    --     19.4066                 5.3307                 2.0994

                     28                     29                     30
                      A                      A                      A
 Frequencies --   1202.2338              1221.2129              1237.2611
 Red. masses --      1.5434                 1.3562                 1.4264
 Frc consts  --      1.3144                 1.1917                 1.2865
 IR Inten    --     12.6383                 0.8454                 2.3251

                     31                     32                     33
                      A                      A                      A
 Frequencies --   1254.3323              1277.4017              1286.1299
 Red. masses --      1.4694                 1.4988                 1.7888
 Frc consts  --      1.3621                 1.4410                 1.7433
 IR Inten    --      2.1493                 4.4733                11.2978

                     34                     35                     36
                      A                      A                      A
 Frequencies --   1329.3778              1376.6471              1419.3762
 Red. masses --      2.3489                 1.2758                 1.2786
 Frc consts  --      2.4458                 1.4245                 1.5176
 IR Inten    --      1.7084                 3.8722                57.8836

                     37                     38                     39
                      A                      A                      A
 Frequencies --   1432.6197              1480.7761              1493.9265
 Red. masses --      1.1123                 1.0788                 1.1019
 Frc consts  --      1.3451                 1.3936                 1.4489
 IR Inten    --      9.0058                 1.3502                 1.9997

                     40                     41                     42
                      A                      A                      A
 Frequencies --   1506.1589              1886.5350              2964.2335
 Red. masses --      1.0930                12.6521                 1.0706
 Frc consts  --      1.4609                26.5302                 5.5426
 IR Inten    --      0.1817               295.0417                58.4017

                     43                     44                     45
                      A                      A                      A
 Frequencies --   3032.6050              3061.4728              3063.6658
 Red. masses --      1.0616                 1.0769                 1.0726
 Frc consts  --      5.7525                 5.9470                 5.9317
 IR Inten    --     11.3840                24.9988                27.2839

                     46                     47                     48
                      A                      A                      A
 Frequencies --   3070.4698              3095.7150              3100.3523
 Red. masses --      1.0604                 1.1015                 1.0930
 Frc consts  --      5.8901                 6.2192                 6.1901
 IR Inten    --     37.5577                12.5695                 9.2115

                     49                     50                     51
                      A                      A                      A
 Frequencies --   3107.4436              3126.5507              3809.6758
 Red. masses --      1.1044                 1.1068                 1.0661
 Frc consts  --      6.2832                 6.3747                 9.1164
 IR Inten    --      2.7402                30.8740                14.6548

 - Thermochemistry -
 -------------------
 Temperature   298.150 Kelvin.  Pressure   1.00000 Atm.
 Atom     1 has atomic number  8 and mass  15.99491

 Molecular mass:   126.06808 amu.
 Principal axes and moments of inertia in atomic units:
                           1         2         3
     Eigenvalues --   638.612541420.577041753.52890
           X            0.99955  -0.02970   0.00400
           Y            0.02967   0.99953   0.00729
           Z           -0.00421  -0.00716   0.99997
 This molecule is an asymmetric top.
 Rotational symmetry number  1.
 Warning -- assumption of classical behavior for rotation
           may cause significant error
 Rotational temperatures (Kelvin)      0.13563     0.06097     0.04939
 Rotational constants (GHZ):           2.82603     1.27043     1.02921
 Zero-point vibrational energy     415753.0 (Joules/Mol)
                                   99.36735 (Kcal/Mol)
 Warning -- explicit consideration of  11 degrees of freedom as
           vibrations may cause significant error
 Vibrational temperatures:     73.79   135.20   207.86   282.51   416.24
          (Kelvin)            499.46   505.82   545.58   630.57   759.15
                              845.24   959.98  1038.77  1109.61  1225.32
                             1279.06  1304.80  1360.18  1380.28  1387.21
                             1450.78  1466.44  1524.45  1571.84  1623.00
                             1632.98  1649.11  1729.74  1757.05  1780.14
                             1804.70  1837.89  1850.45  1912.68  1980.69
                             2042.16  2061.22  2130.50  2149.42  2167.02
                             2714.30  4264.87  4363.24  4404.77  4407.93
                             4417.72  4454.04  4460.71  4470.91  4498.40
                             5481.27

 Zero-point correction=                           0.158352 (Hartree/Particle)
 Thermal correction to Energy=                    0.167059
 Thermal correction to Enthalpy=                  0.168003
 Thermal correction to Gibbs Free Energy=         0.124426
 Sum of electronic and zero-point Energies=           -423.013621
 Sum of electronic and thermal Energies=              -423.004914
 Sum of electronic and thermal Enthalpies=            -423.003970
 Sum of electronic and thermal Free Energies=         -423.047547

                     E (Thermal)             CV                S
                      KCal/Mol        Cal/Mol-Kelvin    Cal/Mol-Kelvin
 Total                  104.831             32.714             91.715
 Electronic               0.000              0.000              0.000
 Translational            0.889              2.981             40.409
 Rotational               0.889              2.981             28.855
 Vibrational            103.054             26.752             22.452
 Vibration     1          0.596              1.977              4.767
 Vibration     2          0.603              1.953              3.576
 Vibration     3          0.616              1.909              2.744
 Vibration     4          0.636              1.845              2.167
 Vibration     5          0.686              1.694              1.478
 Vibration     6          0.725              1.581              1.179
 Vibration     7          0.728              1.572              1.159
 Vibration     8          0.749              1.514              1.042
 Vibration     9          0.798              1.387              0.832
 Vibration    10          0.883              1.189              0.593
 Vibration    11          0.945              1.059              0.472

 Normal termination of Gaussian 09 at Tue Jan 28 12:55:47 2020.
