 Gaussian 09, Revision D.01,
 Gaussian 09:  ES64L-G09RevD.01 24-Apr-2013

 -----------------------------
 # b3lyp 6-31G(2df,p) opt Freq
 -----------------------------

 -----
 titel
 -----
 Symbolic Z-matrix:
 Charge =  0 Multiplicity = 1

 SCF Done:  E(RB3LYP) =  -423.226954345     A.U. after   14 cycles
 Optimization completed.
    -- Stationary point found.
 Normal termination of Gaussian 09 at Mon Jan 27 12:59:39 2020.

 ----------------------------------------------------------------------
 #N Geom=AllCheck Guess=TCheck SCRF=Check GenChk RB3LYP/6-31G(2df,p) Fr
 eq
 ----------------------------------------------------------------------

 Structure from the checkpoint file:  "/scratch/puck/g09_e37a9e33-5046-420c-9bd6-0c8e7c92b3b6/Gau-50656.chk"
 -----
 titel
 -----
 Charge =  0 Multiplicity = 1

                         Standard orientation:
 ---------------------------------------------------------------------
 Center     Atomic      Atomic             Coordinates (Angstroms)
 Number     Number       Type             X           Y           Z
 ---------------------------------------------------------------------
      1          8           0        2.427494    0.317482   -0.507149
      2          6           0        1.352986   -0.058074   -0.120771
      3          6           0        0.608558   -1.324306   -0.574326
      4          6           0       -0.748541   -1.237070    0.153889
      5          6           0       -0.366331   -0.532071    1.476941
      6          6           0        0.462107    0.639434    0.921937
      7          6           0       -0.490204    1.581977    0.153951
      8          8           0       -1.095581    0.921506   -0.948410
      9          6           0       -1.712891   -0.313151   -0.608284
     10          1           0        0.543938   -1.355071   -1.665244
     11          1           0        1.181203   -2.201681   -0.251534
     12          1           0       -1.220125   -2.211829    0.304377
     13          1           0       -1.238971   -0.202486    2.049705
     14          1           0        0.234608   -1.183872    2.120226
     15          1           0        1.049808    1.200879    1.650578
     16          1           0       -1.256582    1.969588    0.846132
     17          1           0        0.056985    2.428836   -0.268710
     18          1           0       -2.617847   -0.138601   -0.002087
     19          1           0       -2.022434   -0.758102   -1.559004
 ---------------------------------------------------------------------

 SCF Done:  E(RB3LYP) =  -423.226954345     A.U. after    1 cycles

 The electronic state is 1-A.
 Alpha  occ. eigenvalues --  -19.14753 -19.12771 -10.26473 -10.23847 -10.23433
 Alpha  occ. eigenvalues --  -10.20015 -10.19521 -10.19437 -10.18986  -1.04418
 Alpha  occ. eigenvalues --   -1.03558  -0.84943  -0.77718  -0.71271  -0.65355
 Alpha  occ. eigenvalues --   -0.65191  -0.56767  -0.52869  -0.51099  -0.48092
 Alpha  occ. eigenvalues --   -0.46976  -0.45519  -0.42797  -0.41552  -0.40733
 Alpha  occ. eigenvalues --   -0.40213  -0.39362  -0.37961  -0.35532  -0.33667
 Alpha  occ. eigenvalues --   -0.32921  -0.30321  -0.26332  -0.23400
 Alpha virt. eigenvalues --   -0.01322   0.07472   0.11320   0.12152   0.12733
 Alpha virt. eigenvalues --    0.13491   0.14135   0.15529   0.15681   0.16662
 Alpha virt. eigenvalues --    0.17254   0.18313   0.19451   0.20146   0.21016

 Mulliken charges:
               1
     1  O   -0.331252
     2  C    0.440441
     3  C   -0.320594
     4  C   -0.035096
     5  C   -0.243491
     6  C   -0.133688
     7  C   -0.082988
     8  O   -0.253961
     9  C   -0.076397
    10  H    0.132003
    11  H    0.125162
    12  H    0.073391
    13  H    0.099325
    14  H    0.102051
    15  H    0.087744
    16  H    0.091587
    17  H    0.126773
    18  H    0.087728
    19  H    0.111264
 Sum of Mulliken charges =   0.00000

 Dipole moment (field-independent basis, Debye):
    X=             -2.4130    Y=             -1.3811    Z=              1.8821  Tot=              3.3575
 Quadrupole moment (field-independent basis, Debye-Ang):
   XX=            -60.3092   YY=            -50.3442   ZZ=            -53.2692
   XY=             -0.3317   XZ=              1.4411   YZ=              2.4752

  Exact polarizability:  78.326   2.597  74.940  -2.068   3.307  68.404
 Approx polarizability: 116.119   6.045 107.566  -5.683   2.261 103.935

                      1                      2                      3
                      A                      A                      A
 Frequencies --    105.2227               232.9953               269.9200
 Red. masses --      5.1555                 3.2355                 2.4732
 Frc consts  --      0.0336                 0.1035                 0.1062
 IR Inten    --      3.3888                 1.5992                 5.5481

                      4                      5                      6
                      A                      A                      A
 Frequencies --    346.4919               420.0014               436.0123
 Red. masses --      1.9826                 2.0886                 4.2487
 Frc consts  --      0.1402                 0.2171                 0.4759
 IR Inten    --      0.1547                 2.8071                 2.1189

                      7                      8                      9
                      A                      A                      A
 Frequencies --    472.4916               508.4470               606.6877
 Red. masses --      3.8499                 2.7311                 3.1042
 Frc consts  --      0.5064                 0.4160                 0.6732
 IR Inten    --      6.2658                 3.7627                 0.7873

                     10                     11                     12
                      A                      A                      A
 Frequencies --    654.5430               772.7408               813.9220
 Red. masses --      4.4121                 3.6967                 2.8629
 Frc consts  --      1.1137                 1.3006                 1.1174
 IR Inten    --      0.4598                 3.7704                 2.6853

                     13                     14                     15
                      A                      A                      A
 Frequencies --    822.0142               862.8967               898.9270
 Red. masses --      4.4986                 2.4499                 2.8014
 Frc consts  --      1.7910                 1.0748                 1.3338
 IR Inten    --      7.2046                 5.7829                10.8618

                     16                     17                     18
                      A                      A                      A
 Frequencies --    921.0324               938.1904               959.5112
 Red. masses --      1.8326                 1.9512                 1.9468
 Frc consts  --      0.9159                 1.0119                 1.0560
 IR Inten    --      4.0843                10.1346                 1.3868

                     19                     20                     21
                      A                      A                      A
 Frequencies --    989.3955              1021.7583              1057.9019
 Red. masses --      1.8759                 1.9394                 1.4739
 Frc consts  --      1.0819                 1.1929                 0.9719
 IR Inten    --      1.9103                12.2453                19.2786

                     22                     23                     24
                      A                      A                      A
 Frequencies --   1087.1718              1114.3160              1141.5561
 Red. masses --      2.4747                 2.0069                 1.3678
 Frc consts  --      1.7233                 1.4682                 1.0502
 IR Inten    --     20.0319                29.9796                 8.3560

                     25                     26                     27
                      A                      A                      A
 Frequencies --   1161.7041              1178.5494              1209.2340
 Red. masses --      2.5696                 1.3096                 1.6949
 Frc consts  --      2.0432                 1.0717                 1.4602
 IR Inten    --     53.9325                 3.3423                35.0901

                     28                     29                     30
                      A                      A                      A
 Frequencies --   1238.0233              1269.3929              1285.3956
 Red. masses --      1.6066                 1.5312                 1.3861
 Frc consts  --      1.4508                 1.4537                 1.3493
 IR Inten    --      6.6861                 4.8196                 2.8115

                     31                     32                     33
                      A                      A                      A
 Frequencies --   1310.6921              1324.2427              1340.8139
 Red. masses --      1.4653                 1.4095                 1.4395
 Frc consts  --      1.4832                 1.4563                 1.5247
 IR Inten    --     11.2173                 1.6337                 3.3208

                     34                     35                     36
                      A                      A                      A
 Frequencies --   1353.0570              1385.5724              1412.7450
 Red. masses --      1.6534                 1.3053                 1.2918
 Frc consts  --      1.7835                 1.4764                 1.5191
 IR Inten    --      2.6475                 4.2601                 4.6174

                     37                     38                     39
                      A                      A                      A
 Frequencies --   1444.5575              1493.6652              1495.3391
 Red. masses --      1.1016                 1.0918                 1.0946
 Frc consts  --      1.3544                 1.4351                 1.4421
 IR Inten    --     10.3227                 2.1564                 2.5443

                     40                     41                     42
                      A                      A                      A
 Frequencies --   1509.8904              1855.6035              2961.6456
 Red. masses --      1.0970                12.5072                 1.0705
 Frc consts  --      1.4735                25.3736                 5.5320
 IR Inten    --      2.4581               217.9441                32.9173

                     43                     44                     45
                      A                      A                      A
 Frequencies --   2967.6510              3039.7809              3046.2537
 Red. masses --      1.0708                 1.0595                 1.0644
 Frc consts  --      5.5561                 5.7683                 5.8197
 IR Inten    --     94.9268                30.5089                 9.5326

                     46                     47                     48
                      A                      A                      A
 Frequencies --   3073.4870              3080.9630              3085.4494
 Red. masses --      1.0887                 1.0902                 1.1054
 Frc consts  --      6.0595                 6.0971                 6.2000
 IR Inten    --     22.4855                45.9717                30.6672

                     49                     50                     51
                      A                      A                      A
 Frequencies --   3093.2520              3102.7227              3104.4527
 Red. masses --      1.0927                 1.0879                 1.0988
 Frc consts  --      6.1600                 6.1708                 6.2392
 IR Inten    --     14.8382                23.6000                 7.3623

 - Thermochemistry -
 -------------------
 Temperature   298.150 Kelvin.  Pressure   1.00000 Atm.
 Atom     1 has atomic number  8 and mass  15.99491

 Molecular mass:   126.06808 amu.
 Principal axes and moments of inertia in atomic units:
                           1         2         3
     Eigenvalues --   717.001471030.367531166.31128
           X            1.00000   0.00281   0.00066
           Y           -0.00286   0.99621   0.08694
           Z           -0.00041  -0.08694   0.99621
 This molecule is an asymmetric top.
 Rotational symmetry number  1.
 Warning -- assumption of classical behavior for rotation
           may cause significant error
 Rotational temperatures (Kelvin)      0.12080     0.08406     0.07426
 Rotational constants (GHZ):           2.51707     1.75155     1.54739
 Zero-point vibrational energy     426338.8 (Joules/Mol)
                                  101.89742 (Kcal/Mol)
 Warning -- explicit consideration of   9 degrees of freedom as
           vibrations may cause significant error
 Vibrational temperatures:    151.39   335.23   388.35   498.52   604.29
          (Kelvin)            627.32   679.81   731.54   872.89   941.74
                             1111.80  1171.05  1182.69  1241.51  1293.35
                             1325.16  1349.85  1380.52  1423.52  1470.08
                             1522.08  1564.20  1603.25  1642.44  1671.43
                             1695.67  1739.82  1781.24  1826.37  1849.40
                             1885.79  1905.29  1929.13  1946.74  1993.53
                             2032.62  2078.39  2149.05  2151.46  2172.39
                             2669.80  4261.14  4269.78  4373.56  4382.87
                             4422.06  4432.81  4439.27  4450.49  4464.12
                             4466.61

 Zero-point correction=                           0.162384 (Hartree/Particle)
 Thermal correction to Energy=                    0.169426
 Thermal correction to Enthalpy=                  0.170370
 Thermal correction to Gibbs Free Energy=         0.131090
 Sum of electronic and zero-point Energies=           -423.064570
 Sum of electronic and thermal Energies=              -423.057529
 Sum of electronic and thermal Enthalpies=            -423.056585
 Sum of electronic and thermal Free Energies=         -423.095864

                     E (Thermal)             CV                S
                      KCal/Mol        Cal/Mol-Kelvin    Cal/Mol-Kelvin
 Total                  106.316             28.745             82.672
 Electronic               0.000              0.000              0.000
 Translational            0.889              2.981             40.409
 Rotational               0.889              2.981             28.246
 Vibrational            104.539             22.783             14.017
 Vibration     1          0.605              1.945              3.355
 Vibration     2          0.654              1.790              1.856
 Vibration     3          0.674              1.729              1.597
 Vibration     4          0.724              1.582              1.182
 Vibration     5          0.783              1.427              0.892
 Vibration     6          0.796              1.392              0.839
 Vibration     7          0.829              1.311              0.731
 Vibration     8          0.864              1.231              0.637
 Vibration     9          0.965              1.018              0.438

 Normal termination of Gaussian 09 at Mon Jan 27 13:43:57 2020.
