 Gaussian 09, Revision D.01,
 Gaussian 09:  ES64L-G09RevD.01 24-Apr-2013

 -----------------------------
 # b3lyp 6-31G(2df,p) opt Freq
 -----------------------------

 -----
 titel
 -----
 Symbolic Z-matrix:
 Charge =  0 Multiplicity = 1

 SCF Done:  E(RB3LYP) =  -423.211489850     A.U. after   14 cycles
 Optimization completed.
    -- Stationary point found.
 Normal termination of Gaussian 09 at Tue Jan 28 01:52:01 2020.

 ----------------------------------------------------------------------
 #N Geom=AllCheck Guess=TCheck SCRF=Check GenChk RB3LYP/6-31G(2df,p) Fr
 eq
 ----------------------------------------------------------------------

 Structure from the checkpoint file:  "/scratch/puck/g09_f701c764-82ce-49d6-83bf-f1b488379430/Gau-110866.chk"
 -----
 titel
 -----
 Charge =  0 Multiplicity = 1

                         Standard orientation:
 ---------------------------------------------------------------------
 Center     Atomic      Atomic             Coordinates (Angstroms)
 Number     Number       Type             X           Y           Z
 ---------------------------------------------------------------------
      1          6           0       -2.593254    0.155517   -0.755180
      2          6           0       -1.567817   -0.687943   -0.031975
      3          6           0       -1.075838   -0.304641    1.334517
      4          6           0       -0.157624   -0.182171    0.146131
      5          6           0        0.579888    1.016854   -0.448190
      6          6           0        0.899358    2.198442    0.439625
      7          8           0        1.756578    0.143731   -0.643378
      8          6           0        1.105787   -0.944170   -0.103725
      9          8           0        1.522078   -2.050172    0.042160
     10          1           0       -2.511710    0.038839   -1.840955
     11          1           0       -3.608063   -0.133657   -0.462943
     12          1           0       -2.472201    1.218669   -0.522387
     13          1           0       -1.628990   -1.756109   -0.225043
     14          1           0       -1.444656    0.621202    1.765970
     15          1           0       -0.850768   -1.085956    2.052252
     16          1           0        0.211990    1.333608   -1.429115
     17          1           0        1.658117    2.833092   -0.027195
     18          1           0        0.001801    2.805445    0.599861
     19          1           0        1.272225    1.865062    1.412077
 ---------------------------------------------------------------------

 SCF Done:  E(RB3LYP) =  -423.211489849     A.U. after    1 cycles

 The electronic state is 1-A.
 Alpha  occ. eigenvalues --  -19.17160 -19.12570 -10.29879 -10.25667 -10.21505
 Alpha  occ. eigenvalues --  -10.21408 -10.20674 -10.19580 -10.19336  -1.09588
 Alpha  occ. eigenvalues --   -1.02366  -0.88383  -0.76985  -0.73189  -0.68164
 Alpha  occ. eigenvalues --   -0.62126  -0.59695  -0.52934  -0.51407  -0.49179
 Alpha  occ. eigenvalues --   -0.46590  -0.44987  -0.43161  -0.42010  -0.41191
 Alpha  occ. eigenvalues --   -0.40757  -0.38797  -0.37609  -0.37165  -0.35532
 Alpha  occ. eigenvalues --   -0.31071  -0.30159  -0.28930  -0.26470
 Alpha virt. eigenvalues --    0.01266   0.06999   0.08993   0.10014   0.10929
 Alpha virt. eigenvalues --    0.11952   0.13133   0.13418   0.15521   0.16484
 Alpha virt. eigenvalues --    0.16843   0.17409   0.19198   0.19717   0.21752

 Mulliken charges:
               1
     1  C   -0.410249
     2  C   -0.058096
     3  C   -0.346804
     4  C    0.097256
     5  C    0.073937
     6  C   -0.405404
     7  O   -0.278465
     8  C    0.435942
     9  O   -0.350019
    10  H    0.128991
    11  H    0.129980
    12  H    0.117062
    13  H    0.113563
    14  H    0.121772
    15  H    0.138479
    16  H    0.098892
    17  H    0.137193
    18  H    0.123087
    19  H    0.132880
 Sum of Mulliken charges =   0.00000

 Dipole moment (field-independent basis, Debye):
    X=             -3.3480    Y=              2.9944    Z=              0.3894  Tot=              4.5086
 Quadrupole moment (field-independent basis, Debye-Ang):
   XX=            -57.2683   YY=            -55.8754   ZZ=            -51.6157
   XY=              5.0475   XZ=              1.4530   YZ=              0.0092

  Exact polarizability:  81.728  -0.685  81.105  -0.154  -1.969  66.177
 Approx polarizability: 113.644  -4.663 121.212  -3.398  -4.726  99.841

                      1                      2                      3
                      A                      A                      A
 Frequencies --    102.8422               125.1161               153.7593
 Red. masses --      3.3030                 3.9689                 3.4603
 Frc consts  --      0.0206                 0.0366                 0.0482
 IR Inten    --      0.6116                 1.2581                 1.8307

                      4                      5                      6
                      A                      A                      A
 Frequencies --    171.5911               220.4464               224.0166
 Red. masses --      2.0926                 1.1251                 1.1578
 Frc consts  --      0.0363                 0.0322                 0.0342
 IR Inten    --      0.5578                 0.0528                 0.0403

                      7                      8                      9
                      A                      A                      A
 Frequencies --    277.4549               366.6464               395.5698
 Red. masses --      3.8556                 2.6981                 2.5836
 Frc consts  --      0.1749                 0.2137                 0.2382
 IR Inten    --      2.3020                 2.1107                 0.6288

                     10                     11                     12
                      A                      A                      A
 Frequencies --    505.3011               551.3640               618.9234
 Red. masses --      2.9809                 3.2857                 6.0012
 Frc consts  --      0.4484                 0.5885                 1.3544
 IR Inten    --      1.0303                 3.2550                 4.1263

                     13                     14                     15
                      A                      A                      A
 Frequencies --    711.2227               743.4111               825.2932
 Red. masses --      5.3366                 3.6167                 1.9848
 Frc consts  --      1.5905                 1.1777                 0.7965
 IR Inten    --      8.2943                 1.0362                 3.6846

                     16                     17                     18
                      A                      A                      A
 Frequencies --    855.0081               861.3348               909.3990
 Red. masses --      4.7229                 1.9351                 1.3973
 Frc consts  --      2.0342                 0.8458                 0.6809
 IR Inten    --     51.2655                 4.8365                 1.7991

                     19                     20                     21
                      A                      A                      A
 Frequencies --    931.9309              1009.3559              1039.7141
 Red. masses --      3.6555                 1.3203                 2.1304
 Frc consts  --      1.8705                 0.7925                 1.3569
 IR Inten    --     10.2795                 3.6713                65.5092

                     22                     23                     24
                      A                      A                      A
 Frequencies --   1059.1002              1068.7275              1100.4092
 Red. masses --      1.4481                 1.6535                 2.4187
 Frc consts  --      0.9570                 1.1128                 1.7256
 IR Inten    --      3.8428                20.3778                31.0499

                     25                     26                     27
                      A                      A                      A
 Frequencies --   1125.6796              1137.3908              1144.4162
 Red. masses --      2.0609                 2.0380                 1.9833
 Frc consts  --      1.5386                 1.5534                 1.5304
 IR Inten    --     58.4572                29.3330                 2.2935

                     28                     29                     30
                      A                      A                      A
 Frequencies --   1187.2289              1225.6204              1286.0150
 Red. masses --      1.6557                 2.2688                 1.7354
 Frc consts  --      1.3750                 2.0080                 1.6910
 IR Inten    --      2.4252                13.5032                42.2610

                     31                     32                     33
                      A                      A                      A
 Frequencies --   1346.8174              1381.2604              1410.6699
 Red. masses --      1.5834                 1.4282                 1.3139
 Frc consts  --      1.6922                 1.6055                 1.5406
 IR Inten    --     13.2829                15.7201                11.0093

                     34                     35                     36
                      A                      A                      A
 Frequencies --   1412.7314              1434.1366              1482.2130
 Red. masses --      1.2880                 1.6448                 1.1007
 Frc consts  --      1.5146                 1.9932                 1.4247
 IR Inten    --     11.5531                13.3821                 2.0245

                     37                     38                     39
                      A                      A                      A
 Frequencies --   1485.6322              1490.7240              1494.6090
 Red. masses --      1.2300                 1.0496                 1.1142
 Frc consts  --      1.5994                 1.3743                 1.4665
 IR Inten    --     10.8349                 3.5381                 2.6003

                     40                     41                     42
                      A                      A                      A
 Frequencies --   1506.8420              1929.6695              3031.9331
 Red. masses --      1.3036                12.8252                 1.0352
 Frc consts  --      1.7439                28.1372                 5.6068
 IR Inten    --      5.0854               447.6766                20.4268

                     43                     44                     45
                      A                      A                      A
 Frequencies --   3039.6297              3061.9990              3098.6487
 Red. masses --      1.0356                 1.0858                 1.1009
 Frc consts  --      5.6374                 5.9981                 6.2278
 IR Inten    --     10.3704                22.9997                17.3094

                     46                     47                     48
                      A                      A                      A
 Frequencies --   3099.6340              3110.4647              3125.1846
 Red. masses --      1.1008                 1.1000                 1.1013
 Frc consts  --      6.2314                 6.2705                 6.3373
 IR Inten    --     20.6572                14.8719                16.4412

                     49                     50                     51
                      A                      A                      A
 Frequencies --   3127.1408              3145.4311              3217.6745
 Red. masses --      1.0558                 1.0884                 1.1165
 Frc consts  --      6.0833                 6.3446                 6.8108
 IR Inten    --     10.3410                11.8091                 3.7124

 - Thermochemistry -
 -------------------
 Temperature   298.150 Kelvin.  Pressure   1.00000 Atm.
 Atom     1 has atomic number  6 and mass  12.00000

 Molecular mass:   126.06808 amu.
 Principal axes and moments of inertia in atomic units:
                           1         2         3
     Eigenvalues --   851.031751179.835771633.54440
           X            0.99688   0.07550   0.02300
           Y           -0.07573   0.99709   0.00927
           Z           -0.02224  -0.01098   0.99969
 This molecule is an asymmetric top.
 Rotational symmetry number  1.
 Warning -- assumption of classical behavior for rotation
           may cause significant error
 Rotational temperatures (Kelvin)      0.10178     0.07341     0.05302
 Rotational constants (GHZ):           2.12065     1.52965     1.10480
 Zero-point vibrational energy     414908.8 (Joules/Mol)
                                   99.16558 (Kcal/Mol)
 Warning -- explicit consideration of  12 degrees of freedom as
           vibrations may cause significant error
 Vibrational temperatures:    147.97   180.01   221.23   246.88   317.17
          (Kelvin)            322.31   399.20   527.52   569.14   727.01
                              793.29   890.49  1023.29  1069.60  1187.41
                             1230.16  1239.27  1308.42  1340.84  1452.24
                             1495.91  1523.81  1537.66  1583.24  1619.60
                             1636.45  1646.56  1708.16  1763.39  1850.29
                             1937.77  1987.32  2029.64  2032.60  2063.40
                             2132.57  2137.49  2144.82  2150.41  2168.01
                             2776.36  4362.27  4373.34  4405.53  4458.26
                             4459.68  4475.26  4496.44  4499.25  4525.57
                             4629.51

 Zero-point correction=                           0.158030 (Hartree/Particle)
 Thermal correction to Energy=                    0.167067
 Thermal correction to Enthalpy=                  0.168011
 Thermal correction to Gibbs Free Energy=         0.124302
 Sum of electronic and zero-point Energies=           -423.053459
 Sum of electronic and thermal Energies=              -423.044423
 Sum of electronic and thermal Enthalpies=            -423.043479
 Sum of electronic and thermal Free Energies=         -423.087188

                     E (Thermal)             CV                S
                      KCal/Mol        Cal/Mol-Kelvin    Cal/Mol-Kelvin
 Total                  104.836             33.416             91.994
 Electronic               0.000              0.000              0.000
 Translational            0.889              2.981             40.409
 Rotational               0.889              2.981             28.885
 Vibrational            103.059             27.454             22.700
 Vibration     1          0.605              1.947              3.400
 Vibration     2          0.610              1.928              3.020
 Vibration     3          0.619              1.898              2.625
 Vibration     4          0.626              1.877              2.418
 Vibration     5          0.647              1.810              1.955
 Vibration     6          0.649              1.804              1.926
 Vibration     7          0.678              1.715              1.549
 Vibration     8          0.740              1.541              1.094
 Vibration     9          0.762              1.480              0.979
 Vibration    10          0.861              1.238              0.645
 Vibration    11          0.907              1.137              0.541
 Vibration    12          0.979              0.992              0.418

 Normal termination of Gaussian 09 at Tue Jan 28 02:31:43 2020.
