 Gaussian 09, Revision D.01,
 Gaussian 09:  ES64L-G09RevD.01 24-Apr-2013

 -----------------------------
 # b3lyp 6-31G(2df,p) opt Freq
 -----------------------------

 -----
 titel
 -----
 Symbolic Z-matrix:
 Charge =  0 Multiplicity = 1

 SCF Done:  E(RB3LYP) =  -423.132468230     A.U. after   14 cycles
 Optimization completed.
    -- Stationary point found.
 Normal termination of Gaussian 09 at Tue Jan 28 14:02:32 2020.

 ----------------------------------------------------------------------
 #N Geom=AllCheck Guess=TCheck SCRF=Check GenChk RB3LYP/6-31G(2df,p) Fr
 eq
 ----------------------------------------------------------------------

 Structure from the checkpoint file:  "/scratch/puck/g09_123c8239-0327-4926-981b-672837d00d63/Gau-24643.chk"
 -----
 titel
 -----
 Charge =  0 Multiplicity = 1

                         Standard orientation:
 ---------------------------------------------------------------------
 Center     Atomic      Atomic             Coordinates (Angstroms)
 Number     Number       Type             X           Y           Z
 ---------------------------------------------------------------------
      1          6           0       -3.001499   -0.750392   -0.372636
      2          6           0       -1.699176   -0.058988   -0.176685
      3          6           0       -1.211148    1.110460   -0.604552
      4          6           0        0.192237    1.112278    0.018152
      5          8           0       -0.087571    0.620143    1.376873
      6          6           0       -0.500686   -0.582138    0.650392
      7          6           0        0.693769   -0.329526   -0.329967
      8          6           0        2.081215   -0.691907    0.176055
      9          8           0        3.104351   -0.029266   -0.558133
     10          1           0       -2.866834   -1.735115   -0.838505
     11          1           0       -3.506733   -0.925873    0.585678
     12          1           0       -3.672853   -0.166240   -1.008041
     13          1           0       -1.656270    1.874106   -1.225643
     14          1           0        0.827679    1.994899   -0.025597
     15          1           0       -0.610080   -1.474851    1.267927
     16          1           0        0.546330   -0.653508   -1.366598
     17          1           0        2.190365   -0.365549    1.212556
     18          1           0        2.215893   -1.785516    0.149540
     19          1           0        3.070002   -0.348097   -1.465791
 ---------------------------------------------------------------------

 SCF Done:  E(RB3LYP) =  -423.132468230     A.U. after    1 cycles

 The electronic state is 1-A.
 Alpha  occ. eigenvalues --  -19.13392 -19.12719 -10.24055 -10.23733 -10.22228
 Alpha  occ. eigenvalues --  -10.19470 -10.19120 -10.19041 -10.17733  -1.04432
 Alpha  occ. eigenvalues --   -1.01275  -0.81300  -0.75403  -0.71791  -0.67567
 Alpha  occ. eigenvalues --   -0.63652  -0.55120  -0.53196  -0.50682  -0.48795
 Alpha  occ. eigenvalues --   -0.47742  -0.43161  -0.42160  -0.41158  -0.40771
 Alpha  occ. eigenvalues --   -0.40117  -0.37237  -0.35032  -0.34513  -0.32345
 Alpha  occ. eigenvalues --   -0.30554  -0.27566  -0.24528  -0.22673
 Alpha virt. eigenvalues --    0.00647   0.07589   0.10217   0.10425   0.12443
 Alpha virt. eigenvalues --    0.12957   0.14563   0.14952   0.15824   0.16148
 Alpha virt. eigenvalues --    0.16601   0.17956   0.18474   0.20896   0.21557

 Mulliken charges:
               1
     1  C   -0.517822
     2  C    0.359220
     3  C   -0.210267
     4  C    0.023939
     5  O   -0.288692
     6  C   -0.058982
     7  C   -0.002308
     8  C   -0.099574
     9  O   -0.418779
    10  H    0.127952
    11  H    0.135119
    12  H    0.130195
    13  H    0.105615
    14  H    0.087485
    15  H    0.074328
    16  H    0.059983
    17  H    0.129780
    18  H    0.082596
    19  H    0.280211
 Sum of Mulliken charges =   0.00000

 Dipole moment (field-independent basis, Debye):
    X=             -1.4055    Y=             -1.6581    Z=             -2.2688  Tot=              3.1420
 Quadrupole moment (field-independent basis, Debye-Ang):
   XX=            -55.7704   YY=            -50.3801   ZZ=            -53.1462
   XY=             -1.0981   XZ=             -1.7011   YZ=             -1.9340

  Exact polarizability:  90.079   4.631  75.326   1.016  -5.592  64.288
 Approx polarizability: 113.262  12.418 123.062  -1.308  -9.979 104.169

                      1                      2                      3
                      A                      A                      A
 Frequencies --     83.1381               144.6376               167.6033
 Red. masses --      3.6683                 3.5476                 1.9895
 Frc consts  --      0.0149                 0.0437                 0.0329
 IR Inten    --      0.7604                 0.9953                 2.0281

                      4                      5                      6
                      A                      A                      A
 Frequencies --    175.8545               267.8179               293.0743
 Red. masses --      1.2422                 1.7465                 2.7569
 Frc consts  --      0.0226                 0.0738                 0.1395
 IR Inten    --      1.3720                36.7734                10.3597

                      7                      8                      9
                      A                      A                      A
 Frequencies --    325.8137               416.4781               515.4740
 Red. masses --      1.5875                 3.9809                 2.8602
 Frc consts  --      0.0993                 0.4068                 0.4478
 IR Inten    --     73.4203                 3.8675                 9.5333

                     10                     11                     12
                      A                      A                      A
 Frequencies --    563.5307               597.8374               676.2550
 Red. masses --      3.6653                 3.7568                 4.3778
 Frc consts  --      0.6858                 0.7911                 1.1796
 IR Inten    --      0.8652                12.3032                 5.5071

                     13                     14                     15
                      A                      A                      A
 Frequencies --    766.8502               805.3424               823.9493
 Red. masses --      1.7692                 2.8343                 2.2415
 Frc consts  --      0.6130                 1.0831                 0.8966
 IR Inten    --      7.0315                 2.3681                15.4335

                     16                     17                     18
                      A                      A                      A
 Frequencies --    864.2202               884.1163               913.0285
 Red. masses --      3.3483                 3.6950                 2.2445
 Frc consts  --      1.4734                 1.7017                 1.1024
 IR Inten    --     33.7199                18.0130                10.6542

                     19                     20                     21
                      A                      A                      A
 Frequencies --    933.7189               999.0497              1024.8274
 Red. masses --      3.5098                 1.5996                 2.4738
 Frc consts  --      1.8029                 0.9407                 1.5308
 IR Inten    --      9.3059                 1.5680                57.5237

                     22                     23                     24
                      A                      A                      A
 Frequencies --   1046.7824              1062.6947              1065.2534
 Red. masses --      2.4393                 2.1628                 1.9765
 Frc consts  --      1.5748                 1.4391                 1.3215
 IR Inten    --     17.5607                21.5655                 0.6609

                     25                     26                     27
                      A                      A                      A
 Frequencies --   1097.3660              1150.1187              1175.2047
 Red. masses --      2.6817                 1.4417                 1.4672
 Frc consts  --      1.9026                 1.1236                 1.1939
 IR Inten    --     18.9116                 1.9223                 8.8825

                     28                     29                     30
                      A                      A                      A
 Frequencies --   1186.8271              1203.0513              1234.7655
 Red. masses --      1.2571                 1.8309                 1.3804
 Frc consts  --      1.0433                 1.5613                 1.2400
 IR Inten    --     10.1630                 1.2902                 3.7068

                     31                     32                     33
                      A                      A                      A
 Frequencies --   1248.2218              1290.5495              1297.8637
 Red. masses --      1.5144                 2.2592                 1.4032
 Frc consts  --      1.3902                 2.2170                 1.3926
 IR Inten    --     18.8152                 3.8594                 7.4318

                     34                     35                     36
                      A                      A                      A
 Frequencies --   1361.2556              1394.8060              1412.8115
 Red. masses --      1.2782                 1.3956                 1.2636
 Frc consts  --      1.3955                 1.5998                 1.4860
 IR Inten    --      8.2001                10.8409                14.6830

                     37                     38                     39
                      A                      A                      A
 Frequencies --   1415.9293              1478.7627              1485.4927
 Red. masses --      1.3269                 1.0443                 1.0596
 Frc consts  --      1.5673                 1.3454                 1.3777
 IR Inten    --     18.2360                 6.1195                 7.5287

                     40                     41                     42
                      A                      A                      A
 Frequencies --   1507.1381              1687.2713              2972.2345
 Red. masses --      1.0792                 7.0242                 1.0721
 Frc consts  --      1.4443                11.7819                 5.5801
 IR Inten    --      2.7833                 6.4717                61.5013

                     43                     44                     45
                      A                      A                      A
 Frequencies --   3015.7846              3043.6772              3061.1871
 Red. masses --      1.0381                 1.0847                 1.0984
 Frc consts  --      5.5628                 5.9204                 6.0645
 IR Inten    --     29.5396                38.6705                16.1641

                     46                     47                     48
                      A                      A                      A
 Frequencies --   3109.0331              3112.6733              3114.1857
 Red. masses --      1.0986                 1.0911                 1.0907
 Frc consts  --      6.2566                 6.2283                 6.2322
 IR Inten    --     14.2789                16.2310                40.2898

                     49                     50                     51
                      A                      A                      A
 Frequencies --   3145.2715              3238.4069              3812.5026
 Red. masses --      1.0919                 1.0987                 1.0662
 Frc consts  --      6.3641                 6.7885                 9.1307
 IR Inten    --     26.0239                 5.7188                16.0514

 - Thermochemistry -
 -------------------
 Temperature   298.150 Kelvin.  Pressure   1.00000 Atm.
 Atom     1 has atomic number  6 and mass  12.00000

 Molecular mass:   126.06808 amu.
 Principal axes and moments of inertia in atomic units:
                           1         2         3
     Eigenvalues --   465.489731757.664761803.64134
           X            0.99995   0.00747   0.00698
           Y           -0.00606   0.98292  -0.18391
           Z           -0.00824   0.18386   0.98292
 This molecule is an asymmetric top.
 Rotational symmetry number  1.
 Warning -- assumption of classical behavior for rotation
           may cause significant error
 Rotational temperatures (Kelvin)      0.18607     0.04928     0.04802
 Rotational constants (GHZ):           3.87708     1.02678     1.00061
 Zero-point vibrational energy     416717.6 (Joules/Mol)
                                   99.59789 (Kcal/Mol)
 Warning -- explicit consideration of  11 degrees of freedom as
           vibrations may cause significant error
 Vibrational temperatures:    119.62   208.10   241.14   253.02   385.33
          (Kelvin)            421.67   468.77   599.22   741.65   810.79
                              860.15   972.98  1103.33  1158.71  1185.48
                             1243.42  1272.04  1313.64  1343.41  1437.41
                             1474.50  1506.08  1528.98  1532.66  1578.86
                             1654.76  1690.86  1707.58  1730.92  1776.55
                             1795.91  1856.81  1867.33  1958.54  2006.81
                             2032.72  2037.20  2127.61  2137.29  2168.43
                             2427.60  4276.38  4339.04  4379.17  4404.36
                             4473.20  4478.44  4480.61  4525.34  4659.34
                             5485.33

 Zero-point correction=                           0.158719 (Hartree/Particle)
 Thermal correction to Energy=                    0.167247
 Thermal correction to Enthalpy=                  0.168192
 Thermal correction to Gibbs Free Energy=         0.125508
 Sum of electronic and zero-point Energies=           -422.973749
 Sum of electronic and thermal Energies=              -422.965221
 Sum of electronic and thermal Enthalpies=            -422.964277
 Sum of electronic and thermal Free Energies=         -423.006960

                     E (Thermal)             CV                S
                      KCal/Mol        Cal/Mol-Kelvin    Cal/Mol-Kelvin
 Total                  104.949             32.477             89.835
 Electronic               0.000              0.000              0.000
 Translational            0.889              2.981             40.409
 Rotational               0.889              2.981             28.780
 Vibrational            103.172             26.516             20.646
 Vibration     1          0.600              1.961              3.815
 Vibration     2          0.616              1.908              2.742
 Vibration     3          0.624              1.882              2.462
 Vibration     4          0.628              1.872              2.372
 Vibration     5          0.673              1.732              1.610
 Vibration     6          0.688              1.687              1.456
 Vibration     7          0.710              1.624              1.281
 Vibration     8          0.780              1.434              0.904
 Vibration     9          0.871              1.216              0.621
 Vibration    10          0.919              1.110              0.517
 Vibration    11          0.956              1.036              0.453

 Normal termination of Gaussian 09 at Tue Jan 28 14:46:07 2020.
