 Gaussian 09, Revision D.01,
 Gaussian 09:  ES64L-G09RevD.01 24-Apr-2013

 -----------------------------
 # b3lyp 6-31G(2df,p) opt Freq
 -----------------------------

 -----
 titel
 -----
 Symbolic Z-matrix:
 Charge =  0 Multiplicity = 1

 SCF Done:  E(RB3LYP) =  -423.167137125     A.U. after   14 cycles
 Optimization completed.
    -- Stationary point found.
 Normal termination of Gaussian 09 at Thu Jan 30 15:32:27 2020.

 ----------------------------------------------------------------------
 #N Geom=AllCheck Guess=TCheck SCRF=Check GenChk RB3LYP/6-31G(2df,p) Fr
 eq
 ----------------------------------------------------------------------

 Structure from the checkpoint file:  "/scratch/puck/g09_43e9189c-3678-4721-b4a8-fde2b927bcf6/Gau-12257.chk"
 -----
 titel
 -----
 Charge =  0 Multiplicity = 1

                         Standard orientation:
 ---------------------------------------------------------------------
 Center     Atomic      Atomic             Coordinates (Angstroms)
 Number     Number       Type             X           Y           Z
 ---------------------------------------------------------------------
      1          8           0       -2.938355   -0.718526   -0.020637
      2          6           0       -2.150675    0.393174    0.343807
      3          6           0       -0.809216    0.393391   -0.388341
      4          8           0       -0.211945   -0.864293   -0.045239
      5          6           0        1.124332   -1.037485   -0.425002
      6          6           0        2.142967   -1.007910    0.681627
      7          6           0        2.036864    0.148676   -0.305519
      8          6           0        1.388823    1.430153    0.066554
      9          6           0        0.065118    1.559035   -0.002641
     10          1           0       -2.359629   -1.485670    0.065895
     11          1           0       -2.713922    1.293825    0.076954
     12          1           0       -1.957161    0.420596    1.428478
     13          1           0       -1.012425    0.411165   -1.472776
     14          1           0        1.257773   -1.733786   -1.250471
     15          1           0        1.754291   -0.845943    1.680306
     16          1           0        3.006957   -1.660169    0.614708
     17          1           0        2.844293    0.226580   -1.028621
     18          1           0        2.021213    2.261499    0.365851
     19          1           0       -0.428268    2.500245    0.223771
 ---------------------------------------------------------------------

 SCF Done:  E(RB3LYP) =  -423.167137125     A.U. after    1 cycles

 The electronic state is 1-A.
 Alpha  occ. eigenvalues --  -19.14941 -19.12550 -10.23899 -10.23624 -10.22356
 Alpha  occ. eigenvalues --  -10.19991 -10.19166 -10.19062 -10.18657  -1.04756
 Alpha  occ. eigenvalues --   -1.00683  -0.85911  -0.79859  -0.71996  -0.63306
 Alpha  occ. eigenvalues --   -0.62594  -0.59698  -0.52807  -0.51887  -0.49633
 Alpha  occ. eigenvalues --   -0.49244  -0.47025  -0.42039  -0.41618  -0.41035
 Alpha  occ. eigenvalues --   -0.39831  -0.37125  -0.36829  -0.33641  -0.32190
 Alpha  occ. eigenvalues --   -0.28235  -0.26702  -0.25618  -0.24111
 Alpha virt. eigenvalues --    0.00663   0.08480   0.10667   0.11014   0.12365
 Alpha virt. eigenvalues --    0.12770   0.15040   0.15250   0.15637   0.16190
 Alpha virt. eigenvalues --    0.17486   0.19053   0.20260   0.22839   0.23406

 Mulliken charges:
               1
     1  O   -0.427201
     2  C   -0.059005
     3  C    0.055094
     4  O   -0.290997
     5  C    0.099555
     6  C   -0.303992
     7  C   -0.097936
     8  C   -0.097146
     9  C   -0.077373
    10  H    0.291168
    11  H    0.104888
    12  H    0.091874
    13  H    0.087509
    14  H    0.091737
    15  H    0.125156
    16  H    0.113365
    17  H    0.099520
    18  H    0.097319
    19  H    0.096465
 Sum of Mulliken charges =   0.00000

 Dipole moment (field-independent basis, Debye):
    X=              2.3738    Y=              0.7182    Z=             -0.2014  Tot=              2.4882
 Quadrupole moment (field-independent basis, Debye-Ang):
   XX=            -57.6487   YY=            -50.0450   ZZ=            -52.9082
   XY=             -3.0586   XZ=             -1.3818   YZ=              0.7610

  Exact polarizability:  95.368  -6.321  77.074   2.100   1.370  59.609
 Approx polarizability: 135.478  -7.463 111.566   4.871   0.625  91.711

                      1                      2                      3
                      A                      A                      A
 Frequencies --     81.3007               128.1196               183.7767
 Red. masses --      4.9351                 2.8762                 3.4942
 Frc consts  --      0.0192                 0.0278                 0.0695
 IR Inten    --      0.4062                 2.7622                 2.1872

                      4                      5                      6
                      A                      A                      A
 Frequencies --    230.7775               356.4017               394.9809
 Red. masses --      2.8552                 2.7499                 3.6370
 Frc consts  --      0.0896                 0.2058                 0.3343
 IR Inten    --      1.9612                 4.2206                 0.5311

                      7                      8                      9
                      A                      A                      A
 Frequencies --    435.1164               452.4603               519.9905
 Red. masses --      1.9595                 1.4103                 3.3108
 Frc consts  --      0.2186                 0.1701                 0.5274
 IR Inten    --     28.5856                92.9299                 5.5744

                     10                     11                     12
                      A                      A                      A
 Frequencies --    531.3929               593.6701               718.3880
 Red. masses --      4.7955                 3.3637                 1.5454
 Frc consts  --      0.7978                 0.6985                 0.4699
 IR Inten    --      0.9439                 3.1829                22.2963

                     13                     14                     15
                      A                      A                      A
 Frequencies --    756.9781               814.6826               827.1644
 Red. masses --      2.0678                 2.5294                 1.4509
 Frc consts  --      0.6981                 0.9891                 0.5849
 IR Inten    --     14.9142                 5.1266                15.9678

                     16                     17                     18
                      A                      A                      A
 Frequencies --    868.2974               908.5206               981.7282
 Red. masses --      4.2642                 2.2255                 1.3097
 Frc consts  --      1.8942                 1.0823                 0.7437
 IR Inten    --      5.2297                 8.0238                 2.2306

                     19                     20                     21
                      A                      A                      A
 Frequencies --    997.6629              1015.8883              1026.2043
 Red. masses --      2.3276                 2.2951                 2.4245
 Frc consts  --      1.3650                 1.3955                 1.5043
 IR Inten    --      8.3026                10.1587                19.4152

                     22                     23                     24
                      A                      A                      A
 Frequencies --   1048.3350              1085.6374              1092.5843
 Red. masses --      1.3522                 4.1119                 1.6984
 Frc consts  --      0.8756                 2.8554                 1.1945
 IR Inten    --      4.3758               119.4789                 0.8345

                     25                     26                     27
                      A                      A                      A
 Frequencies --   1104.1978              1111.0201              1126.5661
 Red. masses --      2.0899                 2.0086                 1.4133
 Frc consts  --      1.5013                 1.4608                 1.0568
 IR Inten    --     26.3100                24.3518                 1.7083

                     28                     29                     30
                      A                      A                      A
 Frequencies --   1175.4531              1193.0524              1235.6703
 Red. masses --      2.0050                 1.2187                 1.4982
 Frc consts  --      1.6322                 1.0220                 1.3478
 IR Inten    --     42.1445                 3.2980                30.3934

                     31                     32                     33
                      A                      A                      A
 Frequencies --   1239.3725              1287.1137              1331.7793
 Red. masses --      1.4095                 1.3111                 1.2099
 Frc consts  --      1.2757                 1.2798                 1.2643
 IR Inten    --     14.0059                 7.1562                 2.8644

                     34                     35                     36
                      A                      A                      A
 Frequencies --   1368.5232              1386.0740              1402.7376
 Red. masses --      1.4567                 1.2526                 1.5789
 Frc consts  --      1.6074                 1.4178                 1.8305
 IR Inten    --      4.7073                20.1594                13.6151

                     37                     38                     39
                      A                      A                      A
 Frequencies --   1423.6572              1441.6040              1473.1871
 Red. masses --      1.8565                 1.2844                 1.3959
 Frc consts  --      2.2170                 1.5727                 1.7850
 IR Inten    --      4.6581                76.3686                 7.3485

                     40                     41                     42
                      A                      A                      A
 Frequencies --   1497.6235              1710.0252              2956.8234
 Red. masses --      1.0937                 7.2878                 1.0792
 Frc consts  --      1.4452                12.5561                 5.5592
 IR Inten    --      0.6539                 5.2624                19.4758

                     43                     44                     45
                      A                      A                      A
 Frequencies --   2979.6550              3074.8127              3118.8601
 Red. masses --      1.0704                 1.0937                 1.0872
 Frc consts  --      5.5991                 6.0925                 6.2310
 IR Inten    --     70.6096                31.7871                29.5486

                     46                     47                     48
                      A                      A                      A
 Frequencies --   3135.6883              3142.3704              3155.7111
 Red. masses --      1.0571                 1.0858                 1.0840
 Frc consts  --      6.1238                 6.3172                 6.3604
 IR Inten    --     11.6786                18.2246                 8.4673

                     49                     50                     51
                      A                      A                      A
 Frequencies --   3177.6224              3232.7976              3792.2791
 Red. masses --      1.0983                 1.1174                 1.0651
 Frc consts  --      6.5338                 6.8803                 9.0252
 IR Inten    --     22.6838                 7.4354                29.8753

 - Thermochemistry -
 -------------------
 Temperature   298.150 Kelvin.  Pressure   1.00000 Atm.
 Atom     1 has atomic number  8 and mass  15.99491

 Molecular mass:   126.06808 amu.
 Principal axes and moments of inertia in atomic units:
                           1         2         3
     Eigenvalues --   527.252191471.949971838.66234
           X            0.99977  -0.02143  -0.00206
           Y            0.02145   0.99973   0.00865
           Z            0.00188  -0.00869   0.99996
 This molecule is an asymmetric top.
 Rotational symmetry number  1.
 Warning -- assumption of classical behavior for rotation
           may cause significant error
 Rotational temperatures (Kelvin)      0.16427     0.05884     0.04711
 Rotational constants (GHZ):           3.42292     1.22609     0.98155
 Zero-point vibrational energy     420632.9 (Joules/Mol)
                                  100.53368 (Kcal/Mol)
 Warning -- explicit consideration of  11 degrees of freedom as
           vibrations may cause significant error
 Vibrational temperatures:    116.97   184.34   264.41   332.04   512.78
          (Kelvin)            568.29   626.03   650.99   748.15   764.55
                              854.16  1033.60  1089.12  1172.15  1190.10
                             1249.28  1307.16  1412.49  1435.41  1461.63
                             1476.48  1508.32  1561.99  1571.98  1588.69
                             1598.51  1620.88  1691.21  1716.53  1777.85
                             1783.18  1851.87  1916.13  1969.00  1994.25
                             2018.22  2048.32  2074.14  2119.58  2154.74
                             2460.34  4254.20  4287.05  4423.96  4487.34
                             4511.55  4521.16  4540.36  4571.88  4651.27
                             5456.24

 Zero-point correction=                           0.160211 (Hartree/Particle)
 Thermal correction to Energy=                    0.168268
 Thermal correction to Enthalpy=                  0.169212
 Thermal correction to Gibbs Free Energy=         0.127475
 Sum of electronic and zero-point Energies=           -423.006926
 Sum of electronic and thermal Energies=              -422.998869
 Sum of electronic and thermal Enthalpies=            -422.997925
 Sum of electronic and thermal Free Energies=         -423.039662

                     E (Thermal)             CV                S
                      KCal/Mol        Cal/Mol-Kelvin    Cal/Mol-Kelvin
 Total                  105.590             31.511             87.843
 Electronic               0.000              0.000              0.000
 Translational            0.889              2.981             40.409
 Rotational               0.889              2.981             28.747
 Vibrational            103.812             25.550             18.687
 Vibration     1          0.600              1.962              3.859
 Vibration     2          0.611              1.925              2.974
 Vibration     3          0.631              1.862              2.290
 Vibration     4          0.652              1.794              1.873
 Vibration     5          0.732              1.562              1.138
 Vibration     6          0.762              1.481              0.981
 Vibration     7          0.796              1.394              0.842
 Vibration     8          0.811              1.355              0.788
 Vibration     9          0.875              1.206              0.610
 Vibration    10          0.886              1.181              0.584
 Vibration    11          0.951              1.045              0.461

 Optimization completed.
    -- Stationary point found.
 Normal termination of Gaussian 09 at Thu Jan 30 16:13:46 2020.
