 Gaussian 09, Revision D.01,
 Gaussian 09:  ES64L-G09RevD.01 24-Apr-2013

 -----------------------------
 # b3lyp 6-31G(2df,p) opt Freq
 -----------------------------

 -----
 titel
 -----
 Symbolic Z-matrix:
 Charge =  0 Multiplicity = 1

 SCF Done:  E(RB3LYP) =  -423.172157026     A.U. after   14 cycles
 Optimization completed.
    -- Stationary point found.
 Normal termination of Gaussian 09 at Tue Jan 28 03:10:33 2020.

 ----------------------------------------------------------------------
 #N Geom=AllCheck Guess=TCheck SCRF=Check GenChk RB3LYP/6-31G(2df,p) Fr
 eq
 ----------------------------------------------------------------------

 Structure from the checkpoint file:  "/scratch/puck/g09_cd967885-9a56-4f55-89e8-6a2abc03a39a/Gau-44872.chk"
 -----
 titel
 -----
 Charge =  0 Multiplicity = 1

                         Standard orientation:
 ---------------------------------------------------------------------
 Center     Atomic      Atomic             Coordinates (Angstroms)
 Number     Number       Type             X           Y           Z
 ---------------------------------------------------------------------
      1          8           0       -2.767943   -0.243619   -0.400030
      2          6           0       -1.604134   -0.340648    0.397260
      3          6           0       -1.102695    1.083769    0.735467
      4          6           0       -0.054699    0.954360   -0.421242
      5          6           0        1.370291    1.344895   -0.211565
      6          6           0        2.312227    0.419831   -0.039267
      7          6           0        1.973394   -1.045548    0.035321
      8          8           0        0.616108   -1.286236    0.367834
      9          6           0       -0.310261   -0.578297   -0.429221
     10          1           0       -2.960535   -1.119943   -0.750429
     11          1           0       -1.731606   -1.035027    1.237212
     12          1           0       -1.856255    1.867348    0.643543
     13          1           0       -0.630969    1.134314    1.718307
     14          1           0       -0.451640    1.412325   -1.332674
     15          1           0        1.623185    2.402496   -0.222803
     16          1           0        3.360204    0.686873    0.065195
     17          1           0        2.236754   -1.550485   -0.912137
     18          1           0        2.560071   -1.531590    0.823101
     19          1           0       -0.439270   -1.057641   -1.412272
 ---------------------------------------------------------------------

 SCF Done:  E(RB3LYP) =  -423.172157026     A.U. after    1 cycles

 The electronic state is 1-A.
 Alpha  occ. eigenvalues --  -19.14009 -19.13749 -10.23127 -10.22679 -10.22364
 Alpha  occ. eigenvalues --  -10.18639 -10.18160 -10.18069 -10.17684  -1.03725
 Alpha  occ. eigenvalues --   -1.01801  -0.83107  -0.78687  -0.69562  -0.65328
 Alpha  occ. eigenvalues --   -0.62940  -0.57021  -0.51803  -0.51289  -0.49621
 Alpha  occ. eigenvalues --   -0.48126  -0.45774  -0.43543  -0.40613  -0.39568
 Alpha  occ. eigenvalues --   -0.39422  -0.36375  -0.34581  -0.33613  -0.31370
 Alpha  occ. eigenvalues --   -0.30829  -0.25799  -0.24663  -0.24118
 Alpha virt. eigenvalues --    0.01849   0.07675   0.09031   0.11378   0.13437
 Alpha virt. eigenvalues --    0.14050   0.14838   0.15303   0.16313   0.17198
 Alpha virt. eigenvalues --    0.18331   0.18490   0.19600   0.20375   0.23446

 Mulliken charges:
               1
     1  O   -0.438501
     2  C    0.101961
     3  C   -0.250985
     4  C   -0.043068
     5  C   -0.085727
     6  C   -0.077238
     7  C   -0.119457
     8  O   -0.270091
     9  C    0.069262
    10  H    0.282638
    11  H    0.073834
    12  H    0.109525
    13  H    0.109665
    14  H    0.089495
    15  H    0.090142
    16  H    0.092445
    17  H    0.097478
    18  H    0.115856
    19  H    0.052765
 Sum of Mulliken charges =   0.00000

 Dipole moment (field-independent basis, Debye):
    X=              0.9187    Y=             -0.3677    Z=             -0.6286  Tot=              1.1723
 Quadrupole moment (field-independent basis, Debye-Ang):
   XX=            -52.0067   YY=            -51.2511   ZZ=            -53.1338
   XY=              3.0359   XZ=              0.6953   YZ=              1.8524

  Exact polarizability:  93.537  -4.758  77.296   2.013   0.904  60.300
 Approx polarizability: 125.844 -13.456 116.544   5.182  -1.614  93.588

                      1                      2                      3
                      A                      A                      A
 Frequencies --     85.0490               154.9344               220.6821
 Red. masses --      2.9836                 3.2071                 3.0997
 Frc consts  --      0.0127                 0.0454                 0.0889
 IR Inten    --      0.8163                 0.5492                 2.3897

                      4                      5                      6
                      A                      A                      A
 Frequencies --    282.3187               315.7644               359.4421
 Red. masses --      2.6347                 1.5374                 2.2364
 Frc consts  --      0.1237                 0.0903                 0.1702
 IR Inten    --     11.6347                64.6149                42.3350

                      7                      8                      9
                      A                      A                      A
 Frequencies --    427.0192               471.7942               493.4238
 Red. masses --      3.6607                 2.0370                 5.9189
 Frc consts  --      0.3933                 0.2672                 0.8490
 IR Inten    --      9.3347                 4.2379                 5.4938

                     10                     11                     12
                      A                      A                      A
 Frequencies --    569.1964               693.4280               711.4754
 Red. masses --      4.1330                 2.8705                 1.3163
 Frc consts  --      0.7889                 0.8132                 0.3926
 IR Inten    --      0.8211                 5.2320                22.7252

                     13                     14                     15
                      A                      A                      A
 Frequencies --    817.1225               854.0373               878.7353
 Red. masses --      3.7068                 2.3104                 2.5664
 Frc consts  --      1.4582                 0.9928                 1.1676
 IR Inten    --      6.7514                 2.9054                 3.1483

                     16                     17                     18
                      A                      A                      A
 Frequencies --    916.6146               938.2812               977.3375
 Red. masses --      2.9780                 2.6519                 2.4827
 Frc consts  --      1.4742                 1.3756                 1.3972
 IR Inten    --      0.5385                 5.7010                34.5478

                     19                     20                     21
                      A                      A                      A
 Frequencies --    985.1120               996.9672              1044.9107
 Red. masses --      1.8362                 1.4178                 3.5213
 Frc consts  --      1.0499                 0.8303                 2.2652
 IR Inten    --     10.4960                 0.8254                15.6795

                     22                     23                     24
                      A                      A                      A
 Frequencies --   1051.6458              1081.4584              1095.6173
 Red. masses --      1.8189                 1.7599                 2.1278
 Frc consts  --      1.1852                 1.2127                 1.5049
 IR Inten    --      7.7462                12.5401                64.3043

                     25                     26                     27
                      A                      A                      A
 Frequencies --   1119.5584              1164.4244              1195.5991
 Red. masses --      2.4943                 1.8282                 1.2555
 Frc consts  --      1.8420                 1.4604                 1.0574
 IR Inten    --     26.0336                20.6383                18.3501

                     28                     29                     30
                      A                      A                      A
 Frequencies --   1207.9377              1248.9297              1264.5562
 Red. masses --      1.5063                 1.2623                 1.2676
 Frc consts  --      1.2950                 1.1601                 1.1942
 IR Inten    --     61.4529                 4.6619                10.4786

                     31                     32                     33
                      A                      A                      A
 Frequencies --   1265.3807              1286.4965              1305.9282
 Red. masses --      1.2595                 1.4934                 1.3235
 Frc consts  --      1.1882                 1.4562                 1.3299
 IR Inten    --     11.1267                 3.6455                34.8583

                     34                     35                     36
                      A                      A                      A
 Frequencies --   1338.7684              1344.3991              1398.3988
 Red. masses --      1.6578                 1.4122                 1.3977
 Frc consts  --      1.7506                 1.5038                 1.6104
 IR Inten    --      0.7098                 9.8158                 3.2422

                     37                     38                     39
                      A                      A                      A
 Frequencies --   1412.3123              1414.3341              1469.5332
 Red. masses --      1.4771                 1.6947                 1.1194
 Frc consts  --      1.7358                 1.9973                 1.4242
 IR Inten    --      5.4059                 9.9491                 4.2820

                     40                     41                     42
                      A                      A                      A
 Frequencies --   1490.0092              1718.1609              2938.4711
 Red. masses --      1.0883                 6.7607                 1.0728
 Frc consts  --      1.4235                11.7589                 5.4577
 IR Inten    --      1.6260                 2.1032                62.7271

                     43                     44                     45
                      A                      A                      A
 Frequencies --   2976.1177              3023.8360              3056.5875
 Red. masses --      1.0851                 1.0860                 1.0871
 Frc consts  --      5.6628                 5.8506                 5.9843
 IR Inten    --     85.1152                51.6374                42.0435

                     46                     47                     48
                      A                      A                      A
 Frequencies --   3057.7009              3079.8142              3141.7834
 Red. masses --      1.0844                 1.0584                 1.1092
 Frc consts  --      5.9737                 5.9147                 6.4507
 IR Inten    --      6.6891                24.3058                16.3078

                     49                     50                     51
                      A                      A                      A
 Frequencies --   3146.8184              3174.2505              3805.3794
 Red. masses --      1.0844                 1.0970                 1.0659
 Frc consts  --      6.3270                 6.5123                 9.0946
 IR Inten    --     10.8688                27.4021                18.2317

 - Thermochemistry -
 -------------------
 Temperature   298.150 Kelvin.  Pressure   1.00000 Atm.
 Atom     1 has atomic number  8 and mass  15.99491

 Molecular mass:   126.06808 amu.
 Principal axes and moments of inertia in atomic units:
                           1         2         3
     Eigenvalues --   517.925321354.653111666.52656
           X            0.99999  -0.00165  -0.00326
           Y            0.00172   0.99974   0.02254
           Z            0.00322  -0.02254   0.99974
 This molecule is an asymmetric top.
 Rotational symmetry number  1.
 Warning -- assumption of classical behavior for rotation
           may cause significant error
 Rotational temperatures (Kelvin)      0.16723     0.06394     0.05197
 Rotational constants (GHZ):           3.48456     1.33225     1.08294
 Zero-point vibrational energy     421491.4 (Joules/Mol)
                                  100.73885 (Kcal/Mol)
 Warning -- explicit consideration of  10 degrees of freedom as
           vibrations may cause significant error
 Vibrational temperatures:    122.37   222.92   317.51   406.19   454.31
          (Kelvin)            517.16   614.38   678.81   709.93   818.95
                              997.69  1023.65  1175.66  1228.77  1264.30
                             1318.80  1349.98  1406.17  1417.35  1434.41
                             1503.39  1513.08  1555.98  1576.35  1610.79
                             1675.34  1720.20  1737.95  1796.93  1819.41
                             1820.60  1850.98  1878.94  1926.19  1934.29
                             2011.98  2032.00  2034.91  2114.33  2143.79
                             2472.05  4227.80  4281.96  4350.62  4397.74
                             4399.34  4431.16  4520.32  4527.56  4567.03
                             5475.09

 Zero-point correction=                           0.160538 (Hartree/Particle)
 Thermal correction to Energy=                    0.168367
 Thermal correction to Enthalpy=                  0.169311
 Thermal correction to Gibbs Free Energy=         0.128226
 Sum of electronic and zero-point Energies=           -423.011619
 Sum of electronic and thermal Energies=              -423.003790
 Sum of electronic and thermal Enthalpies=            -423.002846
 Sum of electronic and thermal Free Energies=         -423.043931

                     E (Thermal)             CV                S
                      KCal/Mol        Cal/Mol-Kelvin    Cal/Mol-Kelvin
 Total                  105.652             30.798             86.470
 Electronic               0.000              0.000              0.000
 Translational            0.889              2.981             40.409
 Rotational               0.889              2.981             28.549
 Vibrational            103.874             24.836             17.513
 Vibration     1          0.601              1.960              3.771
 Vibration     2          0.620              1.897              2.611
 Vibration     3          0.647              1.810              1.953
 Vibration     4          0.681              1.706              1.520
 Vibration     5          0.703              1.644              1.332
 Vibration     6          0.734              1.556              1.125
 Vibration     7          0.789              1.411              0.868
 Vibration     8          0.829              1.313              0.733
 Vibration     9          0.849              1.265              0.675
 Vibration    10          0.925              1.098              0.506

 Optimization completed.
    -- Stationary point found.
 Normal termination of Gaussian 09 at Tue Jan 28 05:11:08 2020.
