 Gaussian 09, Revision D.01,
 Gaussian 09:  ES64L-G09RevD.01 24-Apr-2013

 -----------------------------
 # b3lyp 6-31G(2df,p) opt Freq
 -----------------------------

 -----
 titel
 -----
 Symbolic Z-matrix:
 Charge =  0 Multiplicity = 1

 SCF Done:  E(RB3LYP) =  -423.153532688     A.U. after   14 cycles
 Optimization completed.
    -- Stationary point found.
 Normal termination of Gaussian 09 at Tue Jan 28 08:11:13 2020.

 ----------------------------------------------------------------------
 #N Geom=AllCheck Guess=TCheck SCRF=Check GenChk RB3LYP/6-31G(2df,p) Fr
 eq
 ----------------------------------------------------------------------

 Structure from the checkpoint file:  "/scratch/puck/g09_ec7fea44-49f5-49da-bad8-d20b05006faf/Gau-54981.chk"
 -----
 titel
 -----
 Charge =  0 Multiplicity = 1

                         Standard orientation:
 ---------------------------------------------------------------------
 Center     Atomic      Atomic             Coordinates (Angstroms)
 Number     Number       Type             X           Y           Z
 ---------------------------------------------------------------------
      1          6           0       -2.464885   -0.881468    0.404535
      2          6           0       -1.230476   -0.551304   -0.437037
      3          8           0       -1.220321    0.820172   -0.847775
      4          6           0       -0.586916    1.579015    0.174314
      5          6           0        0.528626    0.698597    0.741752
      6          6           0        1.746936    0.532977   -0.178266
      7          8           0        2.475541   -0.612819    0.272555
      8          6           0        1.336592   -0.823784   -0.567629
      9          6           0        0.087455   -0.764301    0.322533
     10          1           0       -2.508669   -1.954248    0.619057
     11          1           0       -2.452396   -0.348855    1.361269
     12          1           0       -3.372738   -0.597780   -0.134634
     13          1           0       -1.260464   -1.136772   -1.363783
     14          1           0       -0.224447    2.505504   -0.282760
     15          1           0       -1.297189    1.851529    0.969957
     16          1           0        0.757514    0.899001    1.789909
     17          1           0        2.295893    1.292568   -0.723573
     18          1           0        1.488964   -1.374328   -1.489229
     19          1           0        0.027776   -1.533826    1.094340
 ---------------------------------------------------------------------

 SCF Done:  E(RB3LYP) =  -423.153532688     A.U. after    1 cycles

 The electronic state is 1-A.
 Alpha  occ. eigenvalues --  -19.15073 -19.13672 -10.23623 -10.23590 -10.23518
 Alpha  occ. eigenvalues --  -10.22977 -10.19702 -10.19561 -10.17809  -1.07837
 Alpha  occ. eigenvalues --   -1.03449  -0.81260  -0.76989  -0.70017  -0.64932
 Alpha  occ. eigenvalues --   -0.62989  -0.58203  -0.55215  -0.51059  -0.50019
 Alpha  occ. eigenvalues --   -0.48436  -0.44501  -0.42299  -0.41852  -0.40893
 Alpha  occ. eigenvalues --   -0.39184  -0.36970  -0.35882  -0.34489  -0.32254
 Alpha  occ. eigenvalues --   -0.31236  -0.29143  -0.26686  -0.24338
 Alpha virt. eigenvalues --    0.07698   0.09015   0.11545   0.11770   0.12139
 Alpha virt. eigenvalues --    0.12530   0.13203   0.15136   0.15366   0.16112
 Alpha virt. eigenvalues --    0.17134   0.18123   0.19015   0.19431   0.21736

 Mulliken charges:
               1
     1  C   -0.405462
     2  C    0.107655
     3  O   -0.260895
     4  C   -0.108906
     5  C   -0.081552
     6  C    0.033189
     7  O   -0.252457
     8  C    0.018875
     9  C   -0.071825
    10  H    0.116179
    11  H    0.118273
    12  H    0.125148
    13  H    0.082127
    14  H    0.108343
    15  H    0.093948
    16  H    0.084413
    17  H    0.105067
    18  H    0.104560
    19  H    0.083320
 Sum of Mulliken charges =   0.00000

 Dipole moment (field-independent basis, Debye):
    X=             -0.9736    Y=              0.1205    Z=              0.2514  Tot=              1.0127
 Quadrupole moment (field-independent basis, Debye-Ang):
   XX=            -58.9093   YY=            -50.2669   ZZ=            -53.1010
   XY=              4.4304   XZ=             -3.9214   YZ=              2.6775

  Exact polarizability:  80.324   3.552  76.243  -2.585   3.216  63.946
 Approx polarizability: 107.414   2.668 115.542   1.407   4.159 100.712

                      1                      2                      3
                      A                      A                      A
 Frequencies --    124.9952               174.4538               222.1096
 Red. masses --      2.9443                 3.8333                 1.3588
 Frc consts  --      0.0271                 0.0687                 0.0395
 IR Inten    --      0.4634                 5.8262                 0.5611

                      4                      5                      6
                      A                      A                      A
 Frequencies --    250.3028               320.7456               348.9846
 Red. masses --      1.7806                 3.4467                 2.5217
 Frc consts  --      0.0657                 0.2089                 0.1809
 IR Inten    --      0.7935                 2.1877                 0.8802

                      7                      8                      9
                      A                      A                      A
 Frequencies --    452.4683               486.6948               651.0648
 Red. masses --      4.6681                 4.2709                 4.1612
 Frc consts  --      0.5631                 0.5961                 1.0393
 IR Inten    --      0.5568                13.5854                 1.3785

                     10                     11                     12
                      A                      A                      A
 Frequencies --    728.6907               820.6063               833.2975
 Red. masses --      3.5570                 1.9641                 3.3003
 Frc consts  --      1.1128                 0.7793                 1.3502
 IR Inten    --      9.8217                 7.5463                14.1285

                     13                     14                     15
                      A                      A                      A
 Frequencies --    858.0271               870.2926               875.0457
 Red. masses --      2.4852                 3.5736                 1.8867
 Frc consts  --      1.0780                 1.5947                 0.8512
 IR Inten    --      1.3341                11.9463                18.8091

                     16                     17                     18
                      A                      A                      A
 Frequencies --    884.7864               917.1908               972.8724
 Red. masses --      5.0623                 2.1311                 2.4549
 Frc consts  --      2.3349                 1.0563                 1.3690
 IR Inten    --      0.3814                 1.3297                15.8409

                     19                     20                     21
                      A                      A                      A
 Frequencies --    988.0728              1021.7168              1026.3890
 Red. masses --      2.2277                 1.5458                 1.9539
 Frc consts  --      1.2814                 0.9507                 1.2128
 IR Inten    --     24.2460                 3.9632                13.1804

                     22                     23                     24
                      A                      A                      A
 Frequencies --   1051.5001              1079.2826              1103.6127
 Red. masses --      1.5867                 2.1361                 1.6839
 Frc consts  --      1.0336                 1.4660                 1.2084
 IR Inten    --      2.6914                36.6383                 1.6557

                     25                     26                     27
                      A                      A                      A
 Frequencies --   1128.6216              1143.0565              1174.6483
 Red. masses --      2.4817                 2.5876                 1.9996
 Frc consts  --      1.8625                 1.9920                 1.6255
 IR Inten    --     25.0052                31.3558                 5.5208

                     28                     29                     30
                      A                      A                      A
 Frequencies --   1219.2193              1221.6028              1241.9365
 Red. masses --      1.3207                 1.3595                 1.2336
 Frc consts  --      1.1567                 1.1953                 1.1211
 IR Inten    --      3.5488                 2.7997                 5.9699

                     31                     32                     33
                      A                      A                      A
 Frequencies --   1257.3449              1294.2223              1318.8014
 Red. masses --      1.3977                 1.4529                 1.7636
 Frc consts  --      1.3019                 1.4339                 1.8072
 IR Inten    --      0.5006                 2.6890                 8.3859

                     34                     35                     36
                      A                      A                      A
 Frequencies --   1333.7982              1371.5983              1389.2178
 Red. masses --      1.5153                 1.6947                 2.1403
 Frc consts  --      1.5882                 1.8784                 2.4337
 IR Inten    --      5.8927                27.9801                 7.2025

                     37                     38                     39
                      A                      A                      A
 Frequencies --   1399.8880              1404.7465              1489.1763
 Red. masses --      1.4423                 1.2890                 1.0560
 Frc consts  --      1.6653                 1.4987                 1.3798
 IR Inten    --      0.4239                10.0345                 2.5593

                     40                     41                     42
                      A                      A                      A
 Frequencies --   1496.1746              1519.4298              2984.1912
 Red. masses --      1.0503                 1.0868                 1.0702
 Frc consts  --      1.3853                 1.4782                 5.6150
 IR Inten    --      2.5562                 0.6790                60.8211

                     43                     44                     45
                      A                      A                      A
 Frequencies --   3036.1720              3037.2479              3071.9289
 Red. masses --      1.0839                 1.0369                 1.0931
 Frc consts  --      5.8868                 5.6356                 6.0775
 IR Inten    --     23.7969                17.3699                33.7464

                     46                     47                     48
                      A                      A                      A
 Frequencies --   3092.7758              3102.7305              3106.4941
 Red. masses --      1.0866                 1.0890                 1.1003
 Frc consts  --      6.1238                 6.1769                 6.2558
 IR Inten    --     13.2423                33.0129                28.3991

                     49                     50                     51
                      A                      A                      A
 Frequencies --   3119.7798              3174.2493              3189.6002
 Red. masses --      1.1019                 1.0867                 1.1013
 Frc consts  --      6.3187                 6.4515                 6.6015
 IR Inten    --     23.3121                17.9449                18.5580

 - Thermochemistry -
 -------------------
 Temperature   298.150 Kelvin.  Pressure   1.00000 Atm.
 Atom     1 has atomic number  6 and mass  12.00000

 Molecular mass:   126.06808 amu.
 Principal axes and moments of inertia in atomic units:
                           1         2         3
     Eigenvalues --   526.975971269.702411499.96560
           X            0.99901   0.03817  -0.02284
           Y           -0.03750   0.99888   0.02891
           Z            0.02391  -0.02802   0.99932
 This molecule is an asymmetric top.
 Rotational symmetry number  1.
 Warning -- assumption of classical behavior for rotation
           may cause significant error
 Rotational temperatures (Kelvin)      0.16436     0.06822     0.05774
 Rotational constants (GHZ):           3.42471     1.42139     1.20319
 Zero-point vibrational energy     420977.0 (Joules/Mol)
                                  100.61591 (Kcal/Mol)
 Warning -- explicit consideration of   8 degrees of freedom as
           vibrations may cause significant error
 Vibrational temperatures:    179.84   251.00   319.57   360.13   461.48
          (Kelvin)            502.11   651.00   700.24   936.74  1048.42
                             1180.67  1198.93  1234.51  1252.16  1258.99
                             1273.01  1319.63  1399.74  1421.61  1470.02
                             1476.74  1512.87  1552.85  1587.85  1623.83
                             1644.60  1690.05  1754.18  1757.61  1786.87
                             1809.04  1862.09  1897.46  1919.04  1973.42
                             1998.77  2014.12  2021.11  2142.59  2152.66
                             2186.12  4293.58  4368.37  4369.92  4419.81
                             4449.81  4464.13  4469.55  4488.66  4567.03
                             4589.12

 Zero-point correction=                           0.160342 (Hartree/Particle)
 Thermal correction to Energy=                    0.167824
 Thermal correction to Enthalpy=                  0.168768
 Thermal correction to Gibbs Free Energy=         0.128536
 Sum of electronic and zero-point Energies=           -422.993191
 Sum of electronic and thermal Energies=              -422.985709
 Sum of electronic and thermal Enthalpies=            -422.984764
 Sum of electronic and thermal Free Energies=         -423.024996

                     E (Thermal)             CV                S
                      KCal/Mol        Cal/Mol-Kelvin    Cal/Mol-Kelvin
 Total                  105.311             29.671             84.675
 Electronic               0.000              0.000              0.000
 Translational            0.889              2.981             40.409
 Rotational               0.889              2.981             28.397
 Vibrational            103.534             23.710             15.869
 Vibration     1          0.610              1.928              3.022
 Vibration     2          0.627              1.874              2.387
 Vibration     3          0.648              1.807              1.942
 Vibration     4          0.663              1.762              1.728
 Vibration     5          0.706              1.634              1.306
 Vibration     6          0.726              1.577              1.171
 Vibration     7          0.811              1.355              0.788
 Vibration     8          0.843              1.280              0.692

 Optimization completed.
    -- Stationary point found.
 Normal termination of Gaussian 09 at Tue Jan 28 08:59:40 2020.
