 Gaussian 09, Revision D.01,
 Gaussian 09:  ES64L-G09RevD.01 24-Apr-2013

 -----------------------------
 # b3lyp 6-31G(2df,p) opt Freq
 -----------------------------

 -----
 titel
 -----
 Symbolic Z-matrix:
 Charge =  0 Multiplicity = 1

 SCF Done:  E(RB3LYP) =  -423.160923519     A.U. after   14 cycles
 Optimization completed.
    -- Stationary point found.
 Normal termination of Gaussian 09 at Tue Jan 28 00:43:30 2020.

 ----------------------------------------------------------------------
 #N Geom=AllCheck Guess=TCheck SCRF=Check GenChk RB3LYP/6-31G(2df,p) Fr
 eq
 ----------------------------------------------------------------------

 Structure from the checkpoint file:  "/scratch/puck/g09_643c120d-c1a5-4628-8f94-af41aba8b829/Gau-36887.chk"
 -----
 titel
 -----
 Charge =  0 Multiplicity = 1

                         Standard orientation:
 ---------------------------------------------------------------------
 Center     Atomic      Atomic             Coordinates (Angstroms)
 Number     Number       Type             X           Y           Z
 ---------------------------------------------------------------------
      1          8           0       -2.493698   -0.722196   -0.073690
      2          6           0       -1.123287   -0.392636   -0.289264
      3          6           0       -0.322532   -1.622058    0.074249
      4          6           0        1.002841   -1.694116    0.176525
      5          6           0        2.016942   -0.602178   -0.047397
      6          8           0        1.508574    0.627011   -0.545439
      7          6           0        0.708559    1.295710    0.383138
      8          6           0       -0.400296    2.138354   -0.166019
      9          6           0       -0.709383    0.824243    0.530612
     10          1           0       -3.017115    0.045910   -0.323750
     11          1           0       -0.958415   -0.171029   -1.355017
     12          1           0       -0.923689   -2.511536    0.241748
     13          1           0        1.452727   -2.649375    0.443928
     14          1           0        2.578467   -0.428095    0.888473
     15          1           0        2.753068   -0.937319   -0.788915
     16          1           0        1.244176    1.644481    1.267496
     17          1           0       -0.631443    3.072454    0.333652
     18          1           0       -0.499403    2.161342   -1.246636
     19          1           0       -1.154455    0.850740    1.520993
 ---------------------------------------------------------------------

 SCF Done:  E(RB3LYP) =  -423.160923519     A.U. after    1 cycles

 The electronic state is 1-A.
 Alpha  occ. eigenvalues --  -19.14652 -19.13263 -10.23487 -10.23485 -10.23464
 Alpha  occ. eigenvalues --  -10.18831 -10.18796 -10.18228 -10.17809  -1.04301
 Alpha  occ. eigenvalues --   -1.01535  -0.85504  -0.79159  -0.70786  -0.66674
 Alpha  occ. eigenvalues --   -0.60244  -0.57092  -0.55434  -0.50990  -0.49487
 Alpha  occ. eigenvalues --   -0.47642  -0.47024  -0.44108  -0.41691  -0.39902
 Alpha  occ. eigenvalues --   -0.38494  -0.37753  -0.35649  -0.32903  -0.31602
 Alpha  occ. eigenvalues --   -0.28861  -0.27568  -0.24177  -0.23923
 Alpha virt. eigenvalues --    0.01850   0.08192   0.08985   0.10939   0.12273
 Alpha virt. eigenvalues --    0.13068   0.13838   0.15390   0.16363   0.17508
 Alpha virt. eigenvalues --    0.18272   0.18826   0.20332   0.21847   0.22872

 Mulliken charges:
               1
     1  O   -0.445032
     2  C    0.062081
     3  C   -0.062064
     4  C   -0.057270
     5  C   -0.133379
     6  O   -0.247244
     7  C    0.118039
     8  C   -0.349822
     9  C   -0.082466
    10  H    0.281521
    11  H    0.087560
    12  H    0.102639
    13  H    0.090500
    14  H    0.099216
    15  H    0.119145
    16  H    0.084536
    17  H    0.114618
    18  H    0.124189
    19  H    0.093234
 Sum of Mulliken charges =   0.00000

 Dipole moment (field-independent basis, Debye):
    X=              0.2345    Y=              0.8466    Z=              0.5298  Tot=              1.0259
 Quadrupole moment (field-independent basis, Debye-Ang):
   XX=            -51.8669   YY=            -51.9297   ZZ=            -53.1513
   XY=             -6.4898   XZ=              2.9732   YZ=              1.0236

  Exact polarizability:  89.764  -5.369  82.211   2.345  -1.428  57.868
 Approx polarizability: 134.155  -4.738 109.739   2.501  -4.218  91.642

                      1                      2                      3
                      A                      A                      A
 Frequencies --    106.0945               204.7775               260.3799
 Red. masses --      3.2133                 2.6080                 3.5899
 Frc consts  --      0.0213                 0.0644                 0.1434
 IR Inten    --      1.1487                 5.6886                 1.1927

                      4                      5                      6
                      A                      A                      A
 Frequencies --    286.8124               310.1673               363.4027
 Red. masses --      2.8404                 1.2732                 4.2576
 Frc consts  --      0.1377                 0.0722                 0.3313
 IR Inten    --      8.0010                79.8592                17.3497

                      7                      8                      9
                      A                      A                      A
 Frequencies --    389.7032               397.3243               446.6237
 Red. masses --      2.4269                 5.1498                 3.3132
 Frc consts  --      0.2172                 0.4790                 0.3894
 IR Inten    --      7.1120                 4.0193                 2.1239

                     10                     11                     12
                      A                      A                      A
 Frequencies --    529.1745               652.2351               699.3048
 Red. masses --      2.5866                 2.2485                 2.2957
 Frc consts  --      0.4267                 0.5636                 0.6614
 IR Inten    --      7.9419                10.2753                 7.0122

                     13                     14                     15
                      A                      A                      A
 Frequencies --    769.0406               796.2241               842.7885
 Red. masses --      2.6466                 1.8875                 1.8226
 Frc consts  --      0.9222                 0.7050                 0.7628
 IR Inten    --      6.8686                12.3097                 8.3631

                     16                     17                     18
                      A                      A                      A
 Frequencies --    868.4810               899.4466               957.9655
 Red. masses --      2.7518                 2.6261                 2.7822
 Frc consts  --      1.2229                 1.2517                 1.5043
 IR Inten    --      0.3123                 0.6732                13.8339

                     19                     20                     21
                      A                      A                      A
 Frequencies --    996.9584              1007.0145              1031.4887
 Red. masses --      1.2224                 2.4367                 1.7121
 Frc consts  --      0.7158                 1.4559                 1.0733
 IR Inten    --      1.4384                 9.1878                 9.6962

                     22                     23                     24
                      A                      A                      A
 Frequencies --   1061.4265              1068.6499              1083.8161
 Red. masses --      1.9149                 1.9630                 3.0480
 Frc consts  --      1.2711                 1.3208                 2.1095
 IR Inten    --      5.7149                44.0808                55.1448

                     25                     26                     27
                      A                      A                      A
 Frequencies --   1107.4172              1130.3221              1139.9839
 Red. masses --      2.8678                 1.2696                 1.9897
 Frc consts  --      2.0721                 0.9557                 1.5235
 IR Inten    --     45.9308                 1.2291                36.5178

                     28                     29                     30
                      A                      A                      A
 Frequencies --   1174.1967              1215.0801              1232.8662
 Red. masses --      1.9218                 1.1857                 1.4215
 Frc consts  --      1.5612                 1.0314                 1.2730
 IR Inten    --     21.5597                 6.6958                52.4008

                     31                     32                     33
                      A                      A                      A
 Frequencies --   1257.6183              1298.5931              1308.7626
 Red. masses --      1.1199                 1.2553                 1.3970
 Frc consts  --      1.0436                 1.2473                 1.4098
 IR Inten    --     54.4013                10.8597                10.0011

                     34                     35                     36
                      A                      A                      A
 Frequencies --   1362.0053              1388.4639              1401.7584
 Red. masses --      1.2417                 1.4036                 1.7005
 Frc consts  --      1.3571                 1.5943                 1.9687
 IR Inten    --      3.6844                26.2306                11.9392

                     37                     38                     39
                      A                      A                      A
 Frequencies --   1419.9783              1428.1140              1476.2259
 Red. masses --      1.4199                 1.5344                 1.2372
 Frc consts  --      1.6869                 1.8438                 1.5885
 IR Inten    --     17.7003                 4.7968                 5.4132

                     40                     41                     42
                      A                      A                      A
 Frequencies --   1486.7658              1736.1796              2942.9021
 Red. masses --      1.2776                 7.5328                 1.0720
 Frc consts  --      1.6639                13.3782                 5.4703
 IR Inten    --     16.5549                 1.3420                57.1519

                     43                     44                     45
                      A                      A                      A
 Frequencies --   2971.2171              3042.6493              3086.5620
 Red. masses --      1.0821                 1.0876                 1.0872
 Frc consts  --      5.6284                 5.9324                 6.1026
 IR Inten    --     30.8354                31.2997                35.4014

                     46                     47                     48
                      A                      A                      A
 Frequencies --   3130.9849              3135.1255              3154.2312
 Red. masses --      1.0545                 1.0851                 1.0897
 Frc consts  --      6.0906                 6.2838                 6.3876
 IR Inten    --     11.6364                12.8698                10.4142

                     49                     50                     51
                      A                      A                      A
 Frequencies --   3173.4633              3220.6351              3819.2175
 Red. masses --      1.0931                 1.1167                 1.0661
 Frc consts  --      6.4861                 6.8242                 9.1618
 IR Inten    --     14.2366                 8.7203                18.1399

 - Thermochemistry -
 -------------------
 Temperature   298.150 Kelvin.  Pressure   1.00000 Atm.
 Atom     1 has atomic number  8 and mass  15.99491

 Molecular mass:   126.06808 amu.
 Principal axes and moments of inertia in atomic units:
                           1         2         3
     Eigenvalues --   793.996741000.000561643.97121
           X            0.99226  -0.12356   0.01270
           Y            0.12355   0.99234   0.00229
           Z           -0.01289  -0.00070   0.99992
 This molecule is an asymmetric top.
 Rotational symmetry number  1.
 Warning -- assumption of classical behavior for rotation
           may cause significant error
 Rotational temperatures (Kelvin)      0.10909     0.08661     0.05269
 Rotational constants (GHZ):           2.27298     1.80474     1.09779
 Zero-point vibrational energy     420311.6 (Joules/Mol)
                                  100.45689 (Kcal/Mol)
 Warning -- explicit consideration of  10 degrees of freedom as
           vibrations may cause significant error
 Vibrational temperatures:    152.65   294.63   374.63   412.66   446.26
          (Kelvin)            522.85   560.70   571.66   642.59   761.36
                              938.42  1006.14  1106.48  1145.59  1212.58
                             1249.55  1294.10  1378.30  1434.40  1448.87
                             1484.08  1527.15  1537.55  1559.37  1593.32
                             1626.28  1640.18  1689.41  1748.23  1773.82
                             1809.43  1868.38  1883.02  1959.62  1997.69
                             2016.82  2043.03  2054.73  2123.96  2139.12
                             2497.97  4234.17  4274.91  4377.69  4440.87
                             4504.78  4510.74  4538.23  4565.90  4633.77
                             5495.00

 Zero-point correction=                           0.160088 (Hartree/Particle)
 Thermal correction to Energy=                    0.167992
 Thermal correction to Enthalpy=                  0.168936
 Thermal correction to Gibbs Free Energy=         0.127997
 Sum of electronic and zero-point Energies=           -423.000835
 Sum of electronic and thermal Energies=              -422.992931
 Sum of electronic and thermal Enthalpies=            -422.991987
 Sum of electronic and thermal Free Energies=         -423.032926

                     E (Thermal)             CV                S
                      KCal/Mol        Cal/Mol-Kelvin    Cal/Mol-Kelvin
 Total                  105.417             31.649             86.163
 Electronic               0.000              0.000              0.000
 Translational            0.889              2.981             40.409
 Rotational               0.889              2.981             28.658
 Vibrational            103.639             25.688             17.096
 Vibration     1          0.605              1.944              3.339
 Vibration     2          0.640              1.833              2.090
 Vibration     3          0.668              1.745              1.659
 Vibration     4          0.684              1.698              1.493
 Vibration     5          0.699              1.654              1.361
 Vibration     6          0.737              1.548              1.108
 Vibration     7          0.758              1.492              1.001
 Vibration     8          0.764              1.476              0.973
 Vibration     9          0.806              1.368              0.806
 Vibration    10          0.884              1.185              0.589

 Normal termination of Gaussian 09 at Tue Jan 28 02:54:26 2020.
