 Gaussian 09, Revision D.01,
 Gaussian 09:  ES64L-G09RevD.01 24-Apr-2013

 -----------------------------
 # b3lyp 6-31G(2df,p) opt Freq
 -----------------------------

 -----
 titel
 -----
 Symbolic Z-matrix:
 Charge =  0 Multiplicity = 1

 SCF Done:  E(RB3LYP) =  -423.167200397     A.U. after   14 cycles
 Optimization completed.
    -- Stationary point found.
 Normal termination of Gaussian 09 at Mon Jan 27 12:58:29 2020.

 ----------------------------------------------------------------------
 #N Geom=AllCheck Guess=TCheck SCRF=Check GenChk RB3LYP/6-31G(2df,p) Fr
 eq
 ----------------------------------------------------------------------

 Structure from the checkpoint file:  "/scratch/puck/g09_55cc072f-7f1b-4a41-a4ea-35f44f97c665/Gau-20529.chk"
 -----
 titel
 -----
 Charge =  0 Multiplicity = 1

                         Standard orientation:
 ---------------------------------------------------------------------
 Center     Atomic      Atomic             Coordinates (Angstroms)
 Number     Number       Type             X           Y           Z
 ---------------------------------------------------------------------
      1          8           0       -1.619628    1.834749    0.096624
      2          6           0       -1.584549    0.653307   -0.093858
      3          6           0       -2.624841   -0.476063   -0.036373
      4          6           0       -1.433929   -1.479633    0.050557
      5          6           0       -0.428397   -0.341010   -0.326081
      6          6           0        0.840359   -0.128948    0.476939
      7          6           0        1.740030    1.047125    0.027797
      8          8           0        2.811566    0.149577   -0.333927
      9          6           0        2.065880   -0.999731    0.109016
     10          1           0       -3.334289   -0.436036    0.793613
     11          1           0       -3.189553   -0.551051   -0.971524
     12          1           0       -1.275618   -1.845049    1.068283
     13          1           0       -1.470607   -2.331963   -0.628316
     14          1           0       -0.191675   -0.371755   -1.398466
     15          1           0        0.609896   -0.120662    1.545775
     16          1           0        1.372846    1.622359   -0.829980
     17          1           0        2.035674    1.744150    0.820633
     18          1           0        1.906566   -1.725785   -0.699412
     19          1           0        2.553940   -1.509090    0.949838
 ---------------------------------------------------------------------

 SCF Done:  E(RB3LYP) =  -423.167200397     A.U. after    1 cycles

 The electronic state is 1-A.
 Alpha  occ. eigenvalues --  -19.14252 -19.13015 -10.27333 -10.23239 -10.22862
 Alpha  occ. eigenvalues --  -10.20314 -10.20227 -10.20199 -10.19933  -1.05075
 Alpha  occ. eigenvalues --   -1.03575  -0.85599  -0.76349  -0.69141  -0.66665
 Alpha  occ. eigenvalues --   -0.63582  -0.56225  -0.54169  -0.49946  -0.48795
 Alpha  occ. eigenvalues --   -0.46678  -0.45518  -0.44405  -0.42596  -0.40330
 Alpha  occ. eigenvalues --   -0.39551  -0.38098  -0.36362  -0.35479  -0.34118
 Alpha  occ. eigenvalues --   -0.32399  -0.29925  -0.24981  -0.24127
 Alpha virt. eigenvalues --   -0.02524   0.07811   0.08745   0.09919   0.10322
 Alpha virt. eigenvalues --    0.10444   0.14314   0.15032   0.15938   0.16471
 Alpha virt. eigenvalues --    0.16751   0.17612   0.18438   0.19389   0.20647

 Mulliken charges:
               1
     1  O   -0.298024
     2  C    0.391097
     3  C   -0.336225
     4  C   -0.263385
     5  C   -0.105982
     6  C   -0.039871
     7  C   -0.079506
     8  O   -0.272548
     9  C   -0.088148
    10  H    0.131934
    11  H    0.135245
    12  H    0.114717
    13  H    0.112807
    14  H    0.105533
    15  H    0.079732
    16  H    0.110736
    17  H    0.105768
    18  H    0.096750
    19  H    0.099367
 Sum of Mulliken charges =   0.00000

 Dipole moment (field-independent basis, Debye):
    X=             -1.5091    Y=             -2.7630    Z=              0.2978  Tot=              3.1623
 Quadrupole moment (field-independent basis, Debye-Ang):
   XX=            -59.5009   YY=            -56.4676   ZZ=            -50.7649
   XY=              3.7142   XZ=              3.0106   YZ=             -0.2128

  Exact polarizability:  85.289   0.609  79.891   0.890   0.896  61.876
 Approx polarizability: 107.632  -0.589 121.808  -0.802   2.538  96.884

                      1                      2                      3
                      A                      A                      A
 Frequencies --     23.4425                55.6245                82.1415
 Red. masses --      3.7455                 4.1319                 2.5127
 Frc consts  --      0.0012                 0.0075                 0.0100
 IR Inten    --      4.5285                 2.3494                 2.1688

                      4                      5                      6
                      A                      A                      A
 Frequencies --    119.2959               243.7885               296.3228
 Red. masses --      3.2387                 2.8485                 2.9441
 Frc consts  --      0.0272                 0.0997                 0.1523
 IR Inten    --      1.7149                 1.4303                 0.1950

                      7                      8                      9
                      A                      A                      A
 Frequencies --    364.8928               445.2700               557.4579
 Red. masses --      3.5301                 2.3011                 2.9550
 Frc consts  --      0.2769                 0.2688                 0.5411
 IR Inten    --      1.3726                 2.1281                 2.0932

                     10                     11                     12
                      A                      A                      A
 Frequencies --    676.2628               703.2566               763.8293
 Red. masses --      2.6506                 1.9573                 1.6990
 Frc consts  --      0.7142                 0.5703                 0.5840
 IR Inten    --      2.2308                 1.2901                 1.8058

                     13                     14                     15
                      A                      A                      A
 Frequencies --    834.1461               880.3569               897.2339
 Red. masses --      4.9159                 1.4326                 2.2052
 Frc consts  --      2.0153                 0.6542                 1.0459
 IR Inten    --      8.9208                 0.9524                 3.9133

                     16                     17                     18
                      A                      A                      A
 Frequencies --    923.1412               949.9904               980.1547
 Red. masses --      2.9787                 3.0993                 1.4755
 Frc consts  --      1.4956                 1.6480                 0.8352
 IR Inten    --      2.2010                17.5525                 1.7126

                     19                     20                     21
                      A                      A                      A
 Frequencies --    990.0750              1017.4504              1042.9966
 Red. masses --      1.5367                 3.9195                10.3918
 Frc consts  --      0.8875                 2.3906                 6.6605
 IR Inten    --     10.9368                26.4846                79.8054

                     22                     23                     24
                      A                      A                      A
 Frequencies --   1072.0273              1088.2764              1102.0759
 Red. masses --      3.5471                 2.4910                 2.4826
 Frc consts  --      2.4018                 1.7382                 1.7765
 IR Inten    --     20.2914                33.6516                11.1376

                     25                     26                     27
                      A                      A                      A
 Frequencies --   1151.5043              1162.1752              1190.4875
 Red. masses --      1.2504                 1.0773                 1.5046
 Frc consts  --      0.9768                 0.8573                 1.2564
 IR Inten    --      1.3521                 0.1486                 2.5434

                     28                     29                     30
                      A                      A                      A
 Frequencies --   1203.9769              1231.2963              1239.7185
 Red. masses --      1.5288                 1.3166                 1.4921
 Frc consts  --      1.3057                 1.1761                 1.3511
 IR Inten    --      2.4098                 3.5841                 1.1242

                     31                     32                     33
                      A                      A                      A
 Frequencies --   1253.1646              1260.0272              1288.5408
 Red. masses --      1.4155                 1.4254                 1.5047
 Frc consts  --      1.3097                 1.3333                 1.4720
 IR Inten    --      1.6952                 9.0116                 2.2232

                     34                     35                     36
                      A                      A                      A
 Frequencies --   1309.3854              1371.8130              1397.3971
 Red. masses --      1.2726                 1.3995                 1.6785
 Frc consts  --      1.2855                 1.5517                 1.9311
 IR Inten    --      0.6418                14.9457                 2.4968

                     37                     38                     39
                      A                      A                      A
 Frequencies --   1442.2018              1492.4376              1511.3445
 Red. masses --      1.1035                 1.1004                 1.0786
 Frc consts  --      1.3523                 1.4441                 1.4516
 IR Inten    --      5.6999                 1.1070                 1.0424

                     40                     41                     42
                      A                      A                      A
 Frequencies --   1536.8131              1884.3742              3001.0563
 Red. masses --      1.1084                12.7651                 1.0542
 Frc consts  --      1.5424                26.7059                 5.5939
 IR Inten    --      0.9921               227.4707                92.1874

                     43                     44                     45
                      A                      A                      A
 Frequencies --   3019.2191              3025.8851              3041.3452
 Red. masses --      1.0758                 1.0626                 1.1089
 Frc consts  --      5.7779                 5.7325                 6.0433
 IR Inten    --      8.7990                24.0196                37.9300

                     46                     47                     48
                      A                      A                      A
 Frequencies --   3058.9792              3061.6802              3073.5026
 Red. masses --      1.0605                 1.1023                 1.0686
 Frc consts  --      5.8469                 6.0878                 5.9475
 IR Inten    --     10.4490                 5.0604                19.5574

                     49                     50                     51
                      A                      A                      A
 Frequencies --   3077.7025              3114.5474              3135.7410
 Red. masses --      1.0892                 1.1033                 1.1067
 Frc consts  --      6.0788                 6.3060                 6.4113
 IR Inten    --     66.4228                 5.3970                22.2133

 - Thermochemistry -
 -------------------
 Temperature   298.150 Kelvin.  Pressure   1.00000 Atm.
 Atom     1 has atomic number  8 and mass  15.99491

 Molecular mass:   126.06808 amu.
 Principal axes and moments of inertia in atomic units:
                           1         2         3
     Eigenvalues --   541.821281652.716952076.62764
           X            0.99968   0.02443   0.00654
           Y           -0.02442   0.99970  -0.00085
           Z           -0.00656   0.00069   0.99998
 This molecule is an asymmetric top.
 Rotational symmetry number  1.
 Warning -- assumption of classical behavior for rotation
           may cause significant error
 Rotational temperatures (Kelvin)      0.15986     0.05241     0.04171
 Rotational constants (GHZ):           3.33088     1.09198     0.86907
 Zero-point vibrational energy     416574.5 (Joules/Mol)
                                   99.56371 (Kcal/Mol)
 Warning -- explicit consideration of   9 degrees of freedom as
           vibrations may cause significant error
 Vibrational temperatures:     33.73    80.03   118.18   171.64   350.76
          (Kelvin)            426.34   525.00   640.64   802.06   972.99
                             1011.83  1098.98  1200.15  1266.64  1290.92
                             1328.19  1366.82  1410.22  1424.50  1463.88
                             1500.64  1542.41  1565.79  1585.64  1656.76
                             1672.11  1712.84  1732.25  1771.56  1783.68
                             1803.02  1812.90  1853.92  1883.91  1973.73
                             2010.54  2075.00  2147.28  2174.48  2211.13
                             2711.19  4317.85  4343.98  4353.57  4375.81
                             4401.18  4405.07  4422.08  4428.12  4481.13
                             4511.63

 Zero-point correction=                           0.158665 (Hartree/Particle)
 Thermal correction to Energy=                    0.167409
 Thermal correction to Enthalpy=                  0.168353
 Thermal correction to Gibbs Free Energy=         0.122947
 Sum of electronic and zero-point Energies=           -423.008536
 Sum of electronic and thermal Energies=              -422.999792
 Sum of electronic and thermal Enthalpies=            -422.998847
 Sum of electronic and thermal Free Energies=         -423.044253

                     E (Thermal)             CV                S
                      KCal/Mol        Cal/Mol-Kelvin    Cal/Mol-Kelvin
 Total                  105.051             31.041             95.565
 Electronic               0.000              0.000              0.000
 Translational            0.889              2.981             40.409
 Rotational               0.889              2.981             29.010
 Vibrational            103.273             25.079             26.146
 Vibration     1          0.593              1.985              6.319
 Vibration     2          0.596              1.975              4.607
 Vibration     3          0.600              1.961              3.839
 Vibration     4          0.609              1.933              3.112
 Vibration     5          0.659              1.773              1.775
 Vibration     6          0.690              1.681              1.438
 Vibration     7          0.738              1.545              1.101
 Vibration     8          0.805              1.371              0.810
 Vibration     9          0.913              1.123              0.529

 Normal termination of Gaussian 09 at Mon Jan 27 13:41:38 2020.
