 Gaussian 09, Revision D.01,
 Gaussian 09:  ES64L-G09RevD.01 24-Apr-2013

 -----------------------------
 # b3lyp 6-31G(2df,p) opt Freq
 -----------------------------

 -----
 titel
 -----
 Symbolic Z-matrix:
 Charge =  0 Multiplicity = 1

 SCF Done:  E(RB3LYP) =  -423.161052839     A.U. after   13 cycles
 Optimization completed.
    -- Stationary point found.
 Normal termination of Gaussian 09 at Mon Jan 27 18:49:04 2020.

 ----------------------------------------------------------------------
 #N Geom=AllCheck Guess=TCheck SCRF=Check GenChk RB3LYP/6-31G(2df,p) Fr
 eq
 ----------------------------------------------------------------------

 Structure from the checkpoint file:  "/scratch/puck/g09_6c8145fc-ab98-40bf-8bb8-f494e090d21b/Gau-64336.chk"
 -----
 titel
 -----
 Charge =  0 Multiplicity = 1

                         Standard orientation:
 ---------------------------------------------------------------------
 Center     Atomic      Atomic             Coordinates (Angstroms)
 Number     Number       Type             X           Y           Z
 ---------------------------------------------------------------------
      1          8           0        0.523907    1.904961   -0.667856
      2          6           0        0.450619    0.673145    0.007555
      3          6           0        1.769662    0.317133    0.733810
      4          6           0        1.681790   -1.129912    0.174592
      5          6           0        0.542466   -0.677381   -0.785716
      6          8           0       -0.685467   -1.386057   -0.690910
      7          6           0       -1.429558   -0.830143    0.369731
      8          6           0       -2.132982    0.461333    0.062333
      9          6           0       -0.813917    0.460655    0.828278
     10          1           0       -0.370006    2.166594   -0.913098
     11          1           0        2.595588    0.887366    0.303609
     12          1           0        1.782714    0.440800    1.819295
     13          1           0        2.582965   -1.521469   -0.300157
     14          1           0        1.320841   -1.861192    0.900826
     15          1           0        0.828945   -0.596037   -1.836067
     16          1           0       -1.861277   -1.564013    1.041660
     17          1           0       -2.146438    0.765799   -0.980285
     18          1           0       -3.025997    0.719526    0.621203
     19          1           0       -0.823342    0.762410    1.869644
 ---------------------------------------------------------------------

 SCF Done:  E(RB3LYP) =  -423.161052839     A.U. after    1 cycles

 The electronic state is 1-A.
 Alpha  occ. eigenvalues --  -19.14070 -19.13722 -10.23903 -10.23729 -10.22329
 Alpha  occ. eigenvalues --  -10.19701 -10.19445 -10.17915 -10.17768  -1.04630
 Alpha  occ. eigenvalues --   -1.01881  -0.85184  -0.82658  -0.66972  -0.66281
 Alpha  occ. eigenvalues --   -0.60961  -0.58293  -0.54857  -0.53238  -0.50603
 Alpha  occ. eigenvalues --   -0.46978  -0.45422  -0.41438  -0.40571  -0.40328
 Alpha  occ. eigenvalues --   -0.38097  -0.37775  -0.34327  -0.33819  -0.32562
 Alpha  occ. eigenvalues --   -0.30358  -0.29160  -0.25308  -0.23247
 Alpha virt. eigenvalues --    0.07569   0.08332   0.09583   0.10561   0.11773
 Alpha virt. eigenvalues --    0.14145   0.14892   0.16282   0.16789   0.17580
 Alpha virt. eigenvalues --    0.18321   0.19198   0.19536   0.21890   0.22916

 Mulliken charges:
               1
     1  O   -0.485111
     2  C    0.397598
     3  C   -0.284404
     4  C   -0.247358
     5  C    0.052308
     6  O   -0.270547
     7  C    0.110064
     8  C   -0.342013
     9  C   -0.154200
    10  H    0.277376
    11  H    0.116675
    12  H    0.098004
    13  H    0.105584
    14  H    0.108862
    15  H    0.085627
    16  H    0.100761
    17  H    0.117016
    18  H    0.117546
    19  H    0.096209
 Sum of Mulliken charges =   0.00000

 Dipole moment (field-independent basis, Debye):
    X=             -0.8528    Y=              0.3552    Z=              1.1117  Tot=              1.4455
 Quadrupole moment (field-independent basis, Debye-Ang):
   XX=            -50.7817   YY=            -56.9443   ZZ=            -51.4708
   XY=             -4.3408   XZ=             -1.2312   YZ=             -1.8219

  Exact polarizability:  84.431  -3.268  70.038  -0.669  -1.237  66.031
 Approx polarizability: 113.124  -1.054 106.072   0.063  -1.012 101.355

                      1                      2                      3
                      A                      A                      A
 Frequencies --     96.2957               190.1530               255.4312
 Red. masses --      2.6106                 2.4903                 3.1331
 Frc consts  --      0.0143                 0.0531                 0.1204
 IR Inten    --      2.5236                 4.9858                11.0779

                      4                      5                      6
                      A                      A                      A
 Frequencies --    280.8361               352.5449               393.0072
 Red. masses --      1.2330                 3.1816                 2.7983
 Frc consts  --      0.0573                 0.2330                 0.2547
 IR Inten    --     49.5434                 8.2117                 9.6065

                      7                      8                      9
                      A                      A                      A
 Frequencies --    430.4941               469.8373               599.2541
 Red. masses --      3.2372                 3.0630                 4.2114
 Frc consts  --      0.3535                 0.3984                 0.8911
 IR Inten    --      6.0409                 2.9820                 4.3282

                     10                     11                     12
                      A                      A                      A
 Frequencies --    637.9596               707.1598               741.5650
 Red. masses --      2.4971                 4.7114                 1.5253
 Frc consts  --      0.5988                 1.3881                 0.4942
 IR Inten    --      1.5606                 3.9610                 0.7838

                     13                     14                     15
                      A                      A                      A
 Frequencies --    791.4101               803.7306               834.0462
 Red. masses --      2.2358                 1.6068                 1.7184
 Frc consts  --      0.8251                 0.6115                 0.7043
 IR Inten    --     14.4710                 9.5936                 1.4760

                     16                     17                     18
                      A                      A                      A
 Frequencies --    888.0168               932.0810               944.4460
 Red. masses --      2.3301                 2.1455                 2.8355
 Frc consts  --      1.0826                 1.0982                 1.4902
 IR Inten    --      3.4067                 7.1699                 4.9384

                     19                     20                     21
                      A                      A                      A
 Frequencies --    978.2994               986.4810              1008.4375
 Red. masses --      2.0439                 2.4219                 2.6741
 Frc consts  --      1.1525                 1.3886                 1.6022
 IR Inten    --      1.7945                 9.3982                 4.2863

                     22                     23                     24
                      A                      A                      A
 Frequencies --   1046.6580              1062.7857              1077.8450
 Red. masses --      1.4524                 1.9912                 2.1093
 Frc consts  --      0.9375                 1.3251                 1.4438
 IR Inten    --     28.8693                34.4797                33.6721

                     25                     26                     27
                      A                      A                      A
 Frequencies --   1104.5140              1111.6909              1127.4989
 Red. masses --      1.3533                 2.0994                 1.8621
 Frc consts  --      0.9727                 1.5287                 1.3947
 IR Inten    --     19.2116                30.7678                27.6186

                     28                     29                     30
                      A                      A                      A
 Frequencies --   1155.3889              1176.3087              1199.3950
 Red. masses --      2.7999                 1.9373                 1.6728
 Frc consts  --      2.2022                 1.5794                 1.4178
 IR Inten    --     51.9544                21.6200                22.3369

                     31                     32                     33
                      A                      A                      A
 Frequencies --   1227.5039              1245.3456              1256.7913
 Red. masses --      1.3243                 1.6548                 1.4702
 Frc consts  --      1.1757                 1.5121                 1.3682
 IR Inten    --      9.7657                 2.0121                 1.7884

                     34                     35                     36
                      A                      A                      A
 Frequencies --   1278.6978              1314.5946              1344.3707
 Red. masses --      1.5114                 1.4662                 1.6375
 Frc consts  --      1.4560                 1.4928                 1.7436
 IR Inten    --     46.5848                 7.9061                19.2396

                     37                     38                     39
                      A                      A                      A
 Frequencies --   1375.0617              1392.0249              1470.8458
 Red. masses --      1.9386                 1.6103                 1.2452
 Frc consts  --      2.1597                 1.8385                 1.5872
 IR Inten    --     53.9396                28.3334                 5.6223

                     40                     41                     42
                      A                      A                      A
 Frequencies --   1471.1309              1489.0516              3066.3855
 Red. masses --      1.0904                 1.1301                 1.0586
 Frc consts  --      1.3904                 1.4763                 5.8646
 IR Inten    --      2.3947                 6.5373                31.6115

                     43                     44                     45
                      A                      A                      A
 Frequencies --   3075.9242              3096.2946              3118.0226
 Red. masses --      1.0598                 1.0893                 1.1077
 Frc consts  --      5.9075                 6.1528                 6.3452
 IR Inten    --     24.4285                20.8738                 2.6068

                     46                     47                     48
                      A                      A                      A
 Frequencies --   3120.9322              3135.9464              3163.5621
 Red. masses --      1.0543                 1.1070                 1.0891
 Frc consts  --      6.0502                 6.4142                 6.4222
 IR Inten    --      9.5162                35.9156                16.2322

                     49                     50                     51
                      A                      A                      A
 Frequencies --   3172.7018              3212.0340              3807.4931
 Red. masses --      1.0949                 1.1155                 1.0655
 Frc consts  --      6.4937                 6.7809                 9.1005
 IR Inten    --     12.7446                11.5558                12.7105

 - Thermochemistry -
 -------------------
 Temperature   298.150 Kelvin.  Pressure   1.00000 Atm.
 Atom     1 has atomic number  8 and mass  15.99491

 Molecular mass:   126.06808 amu.
 Principal axes and moments of inertia in atomic units:
                           1         2         3
     Eigenvalues --   709.09501 956.137991283.84682
           X            0.99611  -0.08812   0.00079
           Y            0.08812   0.99597  -0.01658
           Z            0.00068   0.01659   0.99986
 This molecule is an asymmetric top.
 Rotational symmetry number  1.
 Warning -- assumption of classical behavior for rotation
           may cause significant error
 Rotational temperatures (Kelvin)      0.12215     0.09059     0.06746
 Rotational constants (GHZ):           2.54513     1.88753     1.40573
 Zero-point vibrational energy     419998.6 (Joules/Mol)
                                  100.38208 (Kcal/Mol)
 Warning -- explicit consideration of   9 degrees of freedom as
           vibrations may cause significant error
 Vibrational temperatures:    138.55   273.59   367.51   404.06   507.23
          (Kelvin)            565.45   619.38   675.99   862.19   917.88
                             1017.44  1066.95  1138.66  1156.39  1200.00
                             1277.66  1341.05  1358.85  1407.55  1419.32
                             1450.91  1505.91  1529.11  1550.78  1589.15
                             1599.47  1622.22  1662.34  1692.44  1725.66
                             1766.10  1791.77  1808.24  1839.76  1891.41
                             1934.25  1978.40  2002.81  2116.22  2116.63
                             2142.41  4411.84  4425.56  4454.87  4486.13
                             4490.32  4511.92  4551.65  4564.80  4621.39
                             5478.13

 Zero-point correction=                           0.159969 (Hartree/Particle)
 Thermal correction to Energy=                    0.167565
 Thermal correction to Enthalpy=                  0.168509
 Thermal correction to Gibbs Free Energy=         0.128196
 Sum of electronic and zero-point Energies=           -423.001084
 Sum of electronic and thermal Energies=              -422.993488
 Sum of electronic and thermal Enthalpies=            -422.992544
 Sum of electronic and thermal Free Energies=         -423.032857

                     E (Thermal)             CV                S
                      KCal/Mol        Cal/Mol-Kelvin    Cal/Mol-Kelvin
 Total                  105.148             30.882             84.845
 Electronic               0.000              0.000              0.000
 Translational            0.889              2.981             40.409
 Rotational               0.889              2.981             28.256
 Vibrational            103.371             24.920             16.181
 Vibration     1          0.603              1.952              3.528
 Vibration     2          0.633              1.853              2.226
 Vibration     3          0.666              1.754              1.693
 Vibration     4          0.681              1.709              1.529
 Vibration     5          0.729              1.570              1.155
 Vibration     6          0.760              1.485              0.989
 Vibration     7          0.792              1.404              0.857
 Vibration     8          0.827              1.317              0.738
 Vibration     9          0.957              1.033              0.451

 Optimization completed.
    -- Stationary point found.
 Normal termination of Gaussian 09 at Mon Jan 27 19:34:40 2020.
