 Gaussian 09, Revision D.01,
 Gaussian 09:  ES64L-G09RevD.01 24-Apr-2013

 -----------------------------
 # b3lyp 6-31G(2df,p) opt Freq
 -----------------------------

 -----
 titel
 -----
 Symbolic Z-matrix:
 Charge =  0 Multiplicity = 1

 SCF Done:  E(RB3LYP) =  -423.164116350     A.U. after   14 cycles
 Optimization completed.
    -- Stationary point found.
 Normal termination of Gaussian 09 at Mon Jan 27 16:30:28 2020.

 ----------------------------------------------------------------------
 #N Geom=AllCheck Guess=TCheck SCRF=Check GenChk RB3LYP/6-31G(2df,p) Fr
 eq
 ----------------------------------------------------------------------

 Structure from the checkpoint file:  "/scratch/puck/g09_7f5388f1-007c-4383-9c24-dab4daa67d42/Gau-166500.chk"
 -----
 titel
 -----
 Charge =  0 Multiplicity = 1

                         Standard orientation:
 ---------------------------------------------------------------------
 Center     Atomic      Atomic             Coordinates (Angstroms)
 Number     Number       Type             X           Y           Z
 ---------------------------------------------------------------------
      1          6           0        1.221270    1.608532   -0.000015
      2          6           0        0.793425    0.146176   -0.000077
      3          6           0       -0.281434   -0.209587   -1.094201
      4          6           0       -1.344432   -0.137203   -0.000006
      5          6           0       -2.619512    0.580688    0.000065
      6          8           0       -2.558150   -0.855132   -0.000015
      7          6           0       -0.281404   -0.209636    1.094199
      8          6           0        1.973123   -0.794017   -0.000046
      9          8           0        3.129926   -0.460380    0.000073
     10          1           0        1.827874    1.834977   -0.881298
     11          1           0        0.348986    2.269185   -0.000589
     12          1           0        1.826857    1.835213    0.881909
     13          1           0       -0.355959    0.476380   -1.940977
     14          1           0       -0.170418   -1.232499   -1.469784
     15          1           0       -2.989530    1.030372    0.920709
     16          1           0       -2.989573    1.030472   -0.920513
     17          1           0       -0.355876    0.476387    1.940923
     18          1           0       -0.170335   -1.232551    1.469729
     19          1           0        1.687545   -1.873553   -0.000086
 ---------------------------------------------------------------------

 SCF Done:  E(RB3LYP) =  -423.164116350     A.U. after    1 cycles

 The electronic state is 1-A.
 Alpha  occ. eigenvalues --  -19.15834 -19.14303 -10.27098 -10.25267 -10.24063
 Alpha  occ. eigenvalues --  -10.21429 -10.20121 -10.20120 -10.18378  -1.08061
 Alpha  occ. eigenvalues --   -1.05000  -0.86671  -0.73230  -0.68791  -0.67658
 Alpha  occ. eigenvalues --   -0.65663  -0.56426  -0.54060  -0.50864  -0.49452
 Alpha  occ. eigenvalues --   -0.48313  -0.45540  -0.43804  -0.41757  -0.41103
 Alpha  occ. eigenvalues --   -0.40432  -0.38161  -0.37882  -0.35810  -0.33601
 Alpha  occ. eigenvalues --   -0.32277  -0.30336  -0.27151  -0.25377
 Alpha virt. eigenvalues --   -0.02575   0.06758   0.08379   0.09650   0.11383
 Alpha virt. eigenvalues --    0.12446   0.13881   0.14036   0.14992   0.15690
 Alpha virt. eigenvalues --    0.15697   0.16647   0.17437   0.20367   0.21010

 Mulliken charges:
               1
     1  C   -0.454217
     2  C    0.224108
     3  C   -0.369915
     4  C    0.484223
     5  C   -0.268149
     6  O   -0.270799
     7  C   -0.369907
     8  C    0.121954
     9  O   -0.254221
    10  H    0.131807
    11  H    0.112388
    12  H    0.131786
    13  H    0.117088
    14  H    0.118793
    15  H    0.119344
    16  H    0.119343
    17  H    0.117094
    18  H    0.118797
    19  H    0.070483
 Sum of Mulliken charges =   0.00000

 Dipole moment (field-independent basis, Debye):
    X=             -1.6362    Y=              1.3684    Z=             -0.0001  Tot=              2.1330
 Quadrupole moment (field-independent basis, Debye-Ang):
   XX=            -67.3621   YY=            -52.4716   ZZ=            -50.7755
   XY=             -4.3713   XZ=             -0.0009   YZ=              0.0001

  Exact polarizability:  93.821  -3.266  71.128   0.000   0.000  65.414
 Approx polarizability: 131.181   0.309 107.078   0.000   0.001  97.639

                      1                      2                      3
                      A                      A                      A
 Frequencies --     63.4673                80.3846               198.6802
 Red. masses --      4.0633                 4.6314                 1.0538
 Frc consts  --      0.0096                 0.0176                 0.0245
 IR Inten    --      2.7381                 4.7965                 0.0080

                      4                      5                      6
                      A                      A                      A
 Frequencies --    244.5903               253.9540               308.9659
 Red. masses --      2.4860                 3.6231                 3.4990
 Frc consts  --      0.0876                 0.1377                 0.1968
 IR Inten    --      3.7837                 6.0632                 4.3843

                      7                      8                      9
                      A                      A                      A
 Frequencies --    311.1866               348.2880               394.0643
 Red. masses --      2.8911                 1.8796                 2.5839
 Frc consts  --      0.1650                 0.1343                 0.2364
 IR Inten    --      0.6990                 0.5375                 1.5500

                     10                     11                     12
                      A                      A                      A
 Frequencies --    420.6783               438.9135               626.1868
 Red. masses --      3.1661                 2.3051                 4.0087
 Frc consts  --      0.3301                 0.2616                 0.9261
 IR Inten    --      1.9371                 1.6621                 7.4119

                     13                     14                     15
                      A                      A                      A
 Frequencies --    750.4112               813.6377               840.7550
 Red. masses --      3.1312                 3.2674                 1.9212
 Frc consts  --      1.0389                 1.2744                 0.8001
 IR Inten    --      9.8434                18.4306                 0.3425

                     16                     17                     18
                      A                      A                      A
 Frequencies --    865.7298               872.4822               903.0924
 Red. masses --      1.7802                 5.0796                 1.4290
 Frc consts  --      0.7861                 2.2782                 0.6866
 IR Inten    --      0.1721                28.5884                 1.3567

                     19                     20                     21
                      A                      A                      A
 Frequencies --    941.3786               947.6063               981.9575
 Red. masses --      2.2817                 2.0535                 2.7060
 Frc consts  --      1.1914                 1.0864                 1.5373
 IR Inten    --     27.0853                12.5907                26.6450

                     22                     23                     24
                      A                      A                      A
 Frequencies --   1025.3730              1074.3479              1125.6205
 Red. masses --      1.4209                 1.2604                 1.2826
 Frc consts  --      0.8802                 0.8572                 0.9574
 IR Inten    --      0.0838                 0.0719                 1.9898

                     25                     26                     27
                      A                      A                      A
 Frequencies --   1141.3792              1153.2564              1160.5133
 Red. masses --      1.7569                 1.8132                 1.5092
 Frc consts  --      1.3485                 1.4209                 1.1976
 IR Inten    --      7.7093                 0.0873                 8.4291

                     28                     29                     30
                      A                      A                      A
 Frequencies --   1199.8478              1203.2729              1236.8230
 Red. masses --      2.1912                 2.2056                 1.7651
 Frc consts  --      1.8586                 1.8815                 1.5909
 IR Inten    --      9.0746                 3.7037                 1.4642

                     31                     32                     33
                      A                      A                      A
 Frequencies --   1263.9414              1322.3264              1409.0676
 Red. masses --      1.7461                 2.6320                 1.2126
 Frc consts  --      1.6435                 2.7116                 1.4185
 IR Inten    --      0.0203                 3.9474                 1.1288

                     34                     35                     36
                      A                      A                      A
 Frequencies --   1428.1938              1438.4032              1461.6082
 Red. masses --      1.3291                 1.7643                 1.0894
 Frc consts  --      1.5973                 2.1507                 1.3712
 IR Inten    --     13.9192                23.0592                 7.7479

                     37                     38                     39
                      A                      A                      A
 Frequencies --   1485.1506              1486.4668              1493.2687
 Red. masses --      1.1323                 1.0467                 1.0791
 Frc consts  --      1.4714                 1.3626                 1.4177
 IR Inten    --      0.0168                 1.6904                 7.3091

                     40                     41                     42
                      A                      A                      A
 Frequencies --   1538.1134              1827.0062              2845.7279
 Red. masses --      1.6878                10.8982                 1.0820
 Frc consts  --      2.3526                21.4331                 5.1626
 IR Inten    --     12.6722               207.4712               102.8113

                     43                     44                     45
                      A                      A                      A
 Frequencies --   3042.0276              3046.8571              3051.7576
 Red. masses --      1.0356                 1.0589                 1.0608
 Frc consts  --      5.6462                 5.7915                 5.8207
 IR Inten    --     17.1140                25.4860                 5.2180

                     46                     47                     48
                      A                      A                      A
 Frequencies --   3079.9169              3112.2064              3112.3779
 Red. masses --      1.0503                 1.1047                 1.1052
 Frc consts  --      5.8701                 6.3042                 6.3077
 IR Inten    --     23.0501                14.4621                 7.2933

                     49                     50                     51
                      A                      A                      A
 Frequencies --   3114.7028              3119.1632              3167.7111
 Red. masses --      1.1031                 1.1016                 1.1196
 Frc consts  --      6.3052                 6.3144                 6.6192
 IR Inten    --     20.5343                16.9988                20.4723

 - Thermochemistry -
 -------------------
 Temperature   298.150 Kelvin.  Pressure   1.00000 Atm.
 Atom     1 has atomic number  6 and mass  12.00000

 Molecular mass:   126.06808 amu.
 Principal axes and moments of inertia in atomic units:
                           1         2         3
     Eigenvalues --   443.674751826.503891956.23058
           X            0.99999  -0.00458   0.00000
           Y            0.00458   0.99999   0.00001
           Z            0.00000  -0.00001   1.00000
 This molecule is an asymmetric top.
 Rotational symmetry number  1.
 Warning -- assumption of classical behavior for rotation
           may cause significant error
 Rotational temperatures (Kelvin)      0.19522     0.04742     0.04428
 Rotational constants (GHZ):           4.06771     0.98809     0.92256
 Zero-point vibrational energy     411352.9 (Joules/Mol)
                                   98.31571 (Kcal/Mol)
 Warning -- explicit consideration of  11 degrees of freedom as
           vibrations may cause significant error
 Vibrational temperatures:     91.32   115.66   285.86   351.91   365.38
          (Kelvin)            444.53   447.73   501.11   566.97   605.26
                              631.50   900.94  1079.67  1170.64  1209.66
                             1245.59  1255.31  1299.35  1354.43  1363.39
                             1412.82  1475.28  1545.75  1619.51  1642.19
                             1659.28  1669.72  1726.31  1731.24  1779.51
                             1818.53  1902.53  2027.33  2054.85  2069.54
                             2102.93  2136.80  2138.69  2148.48  2213.00
                             2628.65  4094.36  4376.79  4383.74  4390.79
                             4431.31  4477.77  4478.01  4481.36  4487.77
                             4557.62

 Zero-point correction=                           0.156676 (Hartree/Particle)
 Thermal correction to Energy=                    0.165633
 Thermal correction to Enthalpy=                  0.166577
 Thermal correction to Gibbs Free Energy=         0.122782
 Sum of electronic and zero-point Energies=           -423.007440
 Sum of electronic and thermal Energies=              -422.998483
 Sum of electronic and thermal Enthalpies=            -422.997539
 Sum of electronic and thermal Free Energies=         -423.041335

                     E (Thermal)             CV                S
                      KCal/Mol        Cal/Mol-Kelvin    Cal/Mol-Kelvin
 Total                  103.936             33.461             92.175
 Electronic               0.000              0.000              0.000
 Translational            0.889              2.981             40.409
 Rotational               0.889              2.981             28.851
 Vibrational            102.159             27.500             22.915
 Vibration     1          0.597              1.972              4.346
 Vibration     2          0.600              1.962              3.881
 Vibration     3          0.637              1.842              2.145
 Vibration     4          0.660              1.772              1.769
 Vibration     5          0.665              1.756              1.703
 Vibration     6          0.698              1.657              1.368
 Vibration     7          0.700              1.652              1.356
 Vibration     8          0.726              1.579              1.174
 Vibration     9          0.761              1.483              0.985
 Vibration    10          0.783              1.425              0.890
 Vibration    11          0.799              1.385              0.830

 Optimization completed.
    -- Stationary point found.
 Normal termination of Gaussian 09 at Mon Jan 27 17:14:29 2020.
