 Gaussian 09, Revision D.01,
 Gaussian 09:  ES64L-G09RevD.01 24-Apr-2013

 -----------------------------
 # b3lyp 6-31G(2df,p) opt Freq
 -----------------------------

 -----
 titel
 -----
 Symbolic Z-matrix:
 Charge =  0 Multiplicity = 1

 SCF Done:  E(RB3LYP) =  -423.156255903     A.U. after   14 cycles
 Optimization completed.
    -- Stationary point found.
 Normal termination of Gaussian 09 at Tue Jan 28 14:10:50 2020.

 ----------------------------------------------------------------------
 #N Geom=AllCheck Guess=TCheck SCRF=Check GenChk RB3LYP/6-31G(2df,p) Fr
 eq
 ----------------------------------------------------------------------

 Structure from the checkpoint file:  "/scratch/puck/g09_133d89c8-8c19-4bbb-889b-442e9a481c40/Gau-32298.chk"
 -----
 titel
 -----
 Charge =  0 Multiplicity = 1

                         Standard orientation:
 ---------------------------------------------------------------------
 Center     Atomic      Atomic             Coordinates (Angstroms)
 Number     Number       Type             X           Y           Z
 ---------------------------------------------------------------------
      1          6           0       -2.649849   -0.078251    0.212758
      2          8           0       -1.500000   -0.882815    0.344811
      3          6           0       -0.425259   -0.535635   -0.503718
      4          6           0        0.611364   -1.642234   -0.436461
      5          6           0        1.822319   -1.187273   -0.119222
      6          6           0        1.767929    0.289161    0.114982
      7          8           0        0.910442    0.655516    1.220953
      8          6           0        0.381630    0.728667   -0.108299
      9          6           0        0.000683    2.095983   -0.610899
     10          1           0       -2.967059    0.009813   -0.838665
     11          1           0       -3.446557   -0.565307    0.780752
     12          1           0       -2.504279    0.932535    0.617967
     13          1           0       -0.801819   -0.408876   -1.535917
     14          1           0        0.327618   -2.677629   -0.582306
     15          1           0        2.720215   -1.781394   -0.001818
     16          1           0        2.627030    0.936202   -0.039254
     17          1           0       -0.130890    2.087213   -1.698169
     18          1           0       -0.937275    2.439087   -0.163013
     19          1           0        0.776574    2.824224   -0.360534
 ---------------------------------------------------------------------

 SCF Done:  E(RB3LYP) =  -423.156255903     A.U. after    1 cycles

 The electronic state is 1-A.
 Alpha  occ. eigenvalues --  -19.14353 -19.14077 -10.23877 -10.23578 -10.23354
 Alpha  occ. eigenvalues --  -10.22442 -10.18877 -10.18700 -10.18583  -1.06692
 Alpha  occ. eigenvalues --   -1.03096  -0.81646  -0.75048  -0.71531  -0.65353
 Alpha  occ. eigenvalues --   -0.64401  -0.56289  -0.55306  -0.51008  -0.48918
 Alpha  occ. eigenvalues --   -0.46220  -0.44648  -0.43186  -0.42011  -0.41718
 Alpha  occ. eigenvalues --   -0.39344  -0.38027  -0.37296  -0.35714  -0.32183
 Alpha  occ. eigenvalues --   -0.30321  -0.27391  -0.25052  -0.24009
 Alpha virt. eigenvalues --   -0.00646   0.08128   0.10626   0.11617   0.12489
 Alpha virt. eigenvalues --    0.13562   0.14449   0.15221   0.15756   0.16777
 Alpha virt. eigenvalues --    0.17484   0.17654   0.19420   0.20453   0.21578

 Mulliken charges:
               1
     1  C   -0.234942
     2  O   -0.241883
     3  C    0.040043
     4  C   -0.113162
     5  C   -0.082653
     6  C   -0.065480
     7  O   -0.290570
     8  C    0.380468
     9  C   -0.497833
    10  H    0.100204
    11  H    0.129569
    12  H    0.114976
    13  H    0.065418
    14  H    0.111165
    15  H    0.107489
    16  H    0.093689
    17  H    0.121977
    18  H    0.131285
    19  H    0.130242
 Sum of Mulliken charges =   0.00000

 Dipole moment (field-independent basis, Debye):
    X=             -0.0571    Y=              0.6154    Z=             -2.3208  Tot=              2.4017
 Quadrupole moment (field-independent basis, Debye-Ang):
   XX=            -46.8293   YY=            -51.5561   ZZ=            -56.7221
   XY=             -1.9428   XZ=             -0.5981   YZ=             -0.3866

  Exact polarizability:  92.396  -1.673  78.211   3.026   1.243  57.762
 Approx polarizability: 131.943   2.347 107.502   7.451   4.554  96.825

                      1                      2                      3
                      A                      A                      A
 Frequencies --     50.2471               119.1142               168.0619
 Red. masses --      2.6664                 2.1564                 1.1303
 Frc consts  --      0.0040                 0.0180                 0.0188
 IR Inten    --      2.8335                 0.3701                 0.4499

                      4                      5                      6
                      A                      A                      A
 Frequencies --    214.2348               242.4282               272.9640
 Red. masses --      1.9930                 2.0286                 2.6950
 Frc consts  --      0.0539                 0.0702                 0.1183
 IR Inten    --      1.1857                 2.0375                 2.6299

                      7                      8                      9
                      A                      A                      A
 Frequencies --    303.8058               358.9167               453.7409
 Red. masses --      2.7368                 3.4969                 3.4699
 Frc consts  --      0.1488                 0.2654                 0.4209
 IR Inten    --      0.5619                 1.2897                 3.7826

                     10                     11                     12
                      A                      A                      A
 Frequencies --    513.9453               571.5390               614.6861
 Red. masses --      2.9599                 4.6645                 3.9735
 Frc consts  --      0.4606                 0.8977                 0.8846
 IR Inten    --      0.3622                16.5346                 2.5883

                     13                     14                     15
                      A                      A                      A
 Frequencies --    713.8091               759.6445               824.2944
 Red. masses --      5.9212                 1.7255                 4.1332
 Frc consts  --      1.7776                 0.5867                 1.6546
 IR Inten    --      3.9786                10.9173                11.0787

                     16                     17                     18
                      A                      A                      A
 Frequencies --    876.9967               898.4777               950.0064
 Red. masses --      2.5893                 3.2131                 1.5315
 Frc consts  --      1.1734                 1.5282                 0.8144
 IR Inten    --     12.4401                33.0240                 3.2367

                     19                     20                     21
                      A                      A                      A
 Frequencies --    966.4103               996.4578              1009.7449
 Red. masses --      1.7274                 3.2961                 1.8268
 Frc consts  --      0.9505                 1.9283                 1.0974
 IR Inten    --      6.9793                20.9293                 7.0057

                     22                     23                     24
                      A                      A                      A
 Frequencies --   1029.8169              1063.9881              1108.6558
 Red. masses --      2.0635                 2.0635                 1.6734
 Frc consts  --      1.2893                 1.3764                 1.2118
 IR Inten    --      9.8506                 0.8278                10.8499

                     25                     26                     27
                      A                      A                      A
 Frequencies --   1136.8981              1159.7892              1178.0444
 Red. masses --      1.4208                 2.8822                 1.3149
 Frc consts  --      1.0820                 2.2842                 1.0751
 IR Inten    --     26.1056               106.9406                 3.6790

                     28                     29                     30
                      A                      A                      A
 Frequencies --   1218.3896              1227.4325              1276.3778
 Red. masses --      1.6664                 2.1158                 1.4401
 Frc consts  --      1.4575                 1.8781                 1.3823
 IR Inten    --     28.5185                32.9756                 2.9230

                     31                     32                     33
                      A                      A                      A
 Frequencies --   1309.4545              1350.4429              1374.4786
 Red. masses --      1.8193                 1.3863                 1.6127
 Frc consts  --      1.8380                 1.4896                 1.7950
 IR Inten    --      3.2976                 8.3334                32.5318

                     34                     35                     36
                      A                      A                      A
 Frequencies --   1409.7152              1450.3077              1475.5828
 Red. masses --      1.2561                 3.0783                 1.1143
 Frc consts  --      1.4708                 3.8149                 1.4295
 IR Inten    --      4.0601                11.4995                 3.2598

                     37                     38                     39
                      A                      A                      A
 Frequencies --   1480.1700              1494.0502              1496.8150
 Red. masses --      1.0982                 1.1268                 1.0878
 Frc consts  --      1.4177                 1.4819                 1.4360
 IR Inten    --      4.4546                 3.9235                 5.0753

                     40                     41                     42
                      A                      A                      A
 Frequencies --   1510.7130              1677.4300              2926.7934
 Red. masses --      1.0486                 6.5472                 1.0803
 Frc consts  --      1.4100                10.8541                 5.4522
 IR Inten    --      7.7357                 0.3323                44.7650

                     43                     44                     45
                      A                      A                      A
 Frequencies --   2976.5259              3034.2659              3039.1285
 Red. masses --      1.0413                 1.0798                 1.0516
 Frc consts  --      5.4357                 5.8571                 5.7226
 IR Inten    --     58.5156                33.3187                35.8305

                     46                     47                     48
                      A                      A                      A
 Frequencies --   3102.3776              3111.1419              3118.7397
 Red. masses --      1.1000                 1.0971                 1.1013
 Frc consts  --      6.2379                 6.2566                 6.3114
 IR Inten    --     25.8178                30.4330                11.7893

                     49                     50                     51
                      A                      A                      A
 Frequencies --   3153.6361              3198.4434              3222.5826
 Red. masses --      1.0905                 1.0856                 1.1055
 Frc consts  --      6.3897                 6.5432                 6.7640
 IR Inten    --     26.5219                 5.8025                15.5663

 - Thermochemistry -
 -------------------
 Temperature   298.150 Kelvin.  Pressure   1.00000 Atm.
 Atom     1 has atomic number  6 and mass  12.00000

 Molecular mass:   126.06808 amu.
 Principal axes and moments of inertia in atomic units:
                           1         2         3
     Eigenvalues --   739.258511096.293581522.14044
           X            0.99927  -0.03824  -0.00227
           Y            0.03817   0.99900  -0.02313
           Z            0.00315   0.02303   0.99973
 This molecule is an asymmetric top.
 Rotational symmetry number  1.
 Warning -- assumption of classical behavior for rotation
           may cause significant error
 Rotational temperatures (Kelvin)      0.11716     0.07901     0.05690
 Rotational constants (GHZ):           2.44129     1.64622     1.18566
 Zero-point vibrational energy     413858.3 (Joules/Mol)
                                   98.91452 (Kcal/Mol)
 Warning -- explicit consideration of  12 degrees of freedom as
           vibrations may cause significant error
 Vibrational temperatures:     72.29   171.38   241.80   308.24   348.80
          (Kelvin)            392.73   437.11   516.40   652.83   739.45
                              822.32   884.40  1027.01  1092.96  1185.97
                             1261.80  1292.71  1366.85  1390.45  1433.68
                             1452.80  1481.67  1530.84  1595.11  1635.74
                             1668.68  1694.94  1752.99  1766.00  1836.42
                             1884.01  1942.98  1977.57  2028.26  2086.67
                             2123.03  2129.63  2149.60  2153.58  2173.58
                             2413.44  4211.00  4282.55  4365.63  4372.62
                             4463.62  4476.23  4487.17  4537.37  4601.84
                             4636.57

 Zero-point correction=                           0.157630 (Hartree/Particle)
 Thermal correction to Energy=                    0.166469
 Thermal correction to Enthalpy=                  0.167413
 Thermal correction to Gibbs Free Energy=         0.123856
 Sum of electronic and zero-point Energies=           -422.998626
 Sum of electronic and thermal Energies=              -422.989787
 Sum of electronic and thermal Enthalpies=            -422.988843
 Sum of electronic and thermal Free Energies=         -423.032400

                     E (Thermal)             CV                S
                      KCal/Mol        Cal/Mol-Kelvin    Cal/Mol-Kelvin
 Total                  104.461             32.904             91.674
 Electronic               0.000              0.000              0.000
 Translational            0.889              2.981             40.409
 Rotational               0.889              2.981             28.602
 Vibrational            102.683             26.943             22.663
 Vibration     1          0.595              1.977              4.808
 Vibration     2          0.609              1.933              3.115
 Vibration     3          0.625              1.882              2.457
 Vibration     4          0.644              1.819              2.007
 Vibration     5          0.659              1.775              1.785
 Vibration     6          0.676              1.723              1.577
 Vibration     7          0.695              1.666              1.396
 Vibration     8          0.734              1.557              1.127
 Vibration     9          0.812              1.353              0.785
 Vibration    10          0.869              1.219              0.624
 Vibration    11          0.928              1.093              0.501
 Vibration    12          0.974              1.001              0.425

 Normal termination of Gaussian 09 at Tue Jan 28 14:56:07 2020.
