 Gaussian 09, Revision D.01,
 Gaussian 09:  ES64L-G09RevD.01 24-Apr-2013

 ----------------------------------------------------
 # b3lyp 6-31G(2df,p) opt(MaxCycles=100,CalcAll) Freq
 ----------------------------------------------------

 -----
 titel
 -----
 Symbolic Z-matrix:
 Charge =  0 Multiplicity = 1

 SCF Done:  E(RB3LYP) =  -423.127195242     A.U. after   13 cycles
 SCF Done:  E(RB3LYP) =  -423.127195260     A.U. after    6 cycles
 Optimization completed.
    -- Stationary point found.
 Normal termination of Gaussian 09 at Fri Jan 31 17:58:08 2020.

 ----------------------------------------------------------------------
 #N Geom=AllCheck Guess=TCheck SCRF=Check GenChk RB3LYP/6-31G(2df,p) Fr
 eq
 ----------------------------------------------------------------------

 Structure from the checkpoint file:  "/scratch/puck/g09_dd1e4905-9904-44a4-8411-fd9384c1be9a/Gau-177111.chk"
 -----
 titel
 -----
 Charge =  0 Multiplicity = 1

                         Standard orientation:
 ---------------------------------------------------------------------
 Center     Atomic      Atomic             Coordinates (Angstroms)
 Number     Number       Type             X           Y           Z
 ---------------------------------------------------------------------
      1          6           0       -2.745743   -0.211386   -0.430543
      2          8           0       -1.635599   -0.580187    0.363523
      3          6           0       -0.421581   -0.550986   -0.310866
      4          6           0        0.756621   -1.182628    0.497922
      5          8           0        0.822468    0.044558    1.279485
      6          6           0        0.527209    0.697255   -0.002319
      7          6           0        0.055833    2.117379    0.105352
      8          6           0        1.740756    0.289473   -0.845185
      9          6           0        1.898212   -0.995130   -0.506236
     10          1           0       -2.845370   -0.862412   -1.312035
     11          1           0       -3.635760   -0.320997    0.193029
     12          1           0       -2.682150    0.830540   -0.774682
     13          1           0       -0.529410   -0.846006   -1.363223
     14          1           0        0.656281   -2.095797    1.081717
     15          1           0       -0.127481    2.543306   -0.886357
     16          1           0       -0.867210    2.164323    0.689028
     17          1           0        0.810271    2.730656    0.608332
     18          1           0        2.267244    0.900327   -1.564784
     19          1           0        2.590780   -1.742775   -0.863836
 ---------------------------------------------------------------------

 SCF Done:  E(RB3LYP) =  -423.127195260     A.U. after    1 cycles

 The electronic state is 1-A.
 Alpha  occ. eigenvalues --  -19.14771 -19.12124 -10.23963 -10.23797 -10.23498
 Alpha  occ. eigenvalues --  -10.23008 -10.18437 -10.18307 -10.17957  -1.05861
 Alpha  occ. eigenvalues --   -1.02437  -0.80312  -0.75090  -0.72556  -0.65767
 Alpha  occ. eigenvalues --   -0.64250  -0.55125  -0.54124  -0.50123  -0.49256
 Alpha  occ. eigenvalues --   -0.46886  -0.46258  -0.42999  -0.42135  -0.41012
 Alpha  occ. eigenvalues --   -0.38084  -0.37761  -0.35069  -0.34705  -0.33974
 Alpha  occ. eigenvalues --   -0.30704  -0.25876  -0.24304  -0.23469
 Alpha virt. eigenvalues --    0.00381   0.08619   0.10629   0.12132   0.12431
 Alpha virt. eigenvalues --    0.13840   0.14317   0.15098   0.16023   0.16463
 Alpha virt. eigenvalues --    0.17638   0.17919   0.18155   0.19094   0.21928

 Mulliken charges:
               1
     1  C   -0.247457
     2  O   -0.250957
     3  C    0.148801
     4  C   -0.036888
     5  O   -0.314822
     6  C    0.335020
     7  C   -0.522450
     8  C   -0.128236
     9  C   -0.092187
    10  H    0.109982
    11  H    0.132810
    12  H    0.110874
    13  H    0.064368
    14  H    0.082759
    15  H    0.117173
    16  H    0.138084
    17  H    0.135469
    18  H    0.107234
    19  H    0.110423
 Sum of Mulliken charges =   0.00000

 Dipole moment (field-independent basis, Debye):
    X=             -0.7185    Y=              0.0820    Z=             -2.6199  Tot=              2.7179
 Quadrupole moment (field-independent basis, Debye-Ang):
   XX=            -50.0438   YY=            -49.2596   ZZ=            -55.9204
   XY=             -1.5793   XZ=             -0.6313   YZ=             -0.6661

  Exact polarizability:  85.222  -3.389  81.181  -3.762  -2.620  63.119
 Approx polarizability: 111.739  -4.097 124.865  -5.002  -7.276 102.720

                      1                      2                      3
                      A                      A                      A
 Frequencies --     81.2808               151.8393               181.5318
 Red. masses --      2.4943                 1.3976                 2.2218
 Frc consts  --      0.0097                 0.0190                 0.0431
 IR Inten    --      3.1064                 0.0692                 0.6089

                      4                      5                      6
                      A                      A                      A
 Frequencies --    207.4013               215.5597               306.7422
 Red. masses --      1.0973                 2.6103                 2.6151
 Frc consts  --      0.0278                 0.0715                 0.1450
 IR Inten    --      0.2732                 2.0487                 3.6930

                      7                      8                      9
                      A                      A                      A
 Frequencies --    363.5301               393.2763               477.0662
 Red. masses --      3.3884                 3.8881                 3.3491
 Frc consts  --      0.2638                 0.3543                 0.4491
 IR Inten    --      5.0511                 0.0921                 4.0921

                     10                     11                     12
                      A                      A                      A
 Frequencies --    548.4761               639.2521               648.0682
 Red. masses --      2.9530                 2.9671                 4.0603
 Frc consts  --      0.5234                 0.7144                 1.0047
 IR Inten    --      3.2403                 4.1439                 3.8102

                     13                     14                     15
                      A                      A                      A
 Frequencies --    718.2878               740.3108               820.9450
 Red. masses --      1.9782                 4.3020                 2.9320
 Frc consts  --      0.6013                 1.3892                 1.1643
 IR Inten    --     35.6228                 2.8250                17.5502

                     16                     17                     18
                      A                      A                      A
 Frequencies --    872.7251               884.8410               901.7076
 Red. masses --      1.9888                 2.6755                 1.6555
 Frc consts  --      0.8925                 1.2342                 0.7930
 IR Inten    --      3.1511                 9.4258                11.4028

                     19                     20                     21
                      A                      A                      A
 Frequencies --    914.0012               944.4686              1018.1781
 Red. masses --      2.2702                 4.2842                 2.9715
 Frc consts  --      1.1174                 2.2516                 1.8150
 IR Inten    --     18.2218                13.7152                 9.3409

                     22                     23                     24
                      A                      A                      A
 Frequencies --   1026.9161              1068.4557              1110.3430
 Red. masses --      3.1556                 1.4486                 1.8449
 Frc consts  --      1.9607                 0.9743                 1.3401
 IR Inten    --     16.8677                 5.0033                 8.9326

                     25                     26                     27
                      A                      A                      A
 Frequencies --   1145.4413              1153.4784              1182.3256
 Red. masses --      1.9453                 2.6150                 1.3012
 Frc consts  --      1.5038                 2.0499                 1.0717
 IR Inten    --     40.8131               141.3920                 9.9005

                     28                     29                     30
                      A                      A                      A
 Frequencies --   1192.2153              1206.7598              1235.8106
 Red. masses --      1.4642                 1.6281                 1.9367
 Frc consts  --      1.2262                 1.3969                 1.7427
 IR Inten    --      7.2328                13.7325               100.2818

                     31                     32                     33
                      A                      A                      A
 Frequencies --   1263.6341              1296.6499              1340.0208
 Red. masses --      1.5917                 1.7774                 2.3747
 Frc consts  --      1.4974                 1.7606                 2.5124
 IR Inten    --     11.4131                 4.9099                17.0857

                     34                     35                     36
                      A                      A                      A
 Frequencies --   1387.1385              1412.6652              1475.7652
 Red. masses --      1.2759                 1.5809                 1.0505
 Frc consts  --      1.4465                 1.8588                 1.3480
 IR Inten    --     40.7174                13.3817                 4.4666

                     37                     38                     39
                      A                      A                      A
 Frequencies --   1483.3131              1490.5905              1496.9708
 Red. masses --      1.1154                 1.0830                 1.0470
 Frc consts  --      1.4460                 1.4177                 1.3823
 IR Inten    --      3.2361                 2.3672                 5.5531

                     40                     41                     42
                      A                      A                      A
 Frequencies --   1509.2319              1606.2485              2983.9948
 Red. masses --      1.0638                 6.0803                 1.0375
 Frc consts  --      1.4277                 9.2427                 5.4427
 IR Inten    --      6.2781                 0.6111                49.6813

                     43                     44                     45
                      A                      A                      A
 Frequencies --   3018.7328              3036.5004              3039.9238
 Red. masses --      1.0844                 1.0952                 1.0423
 Frc consts  --      5.8225                 5.9499                 5.6752
 IR Inten    --     59.2215                28.7875                33.5812

                     46                     47                     48
                      A                      A                      A
 Frequencies --   3108.3378              3121.0027              3122.1890
 Red. masses --      1.1009                 1.0977                 1.1007
 Frc consts  --      6.2669                 6.2998                 6.3220
 IR Inten    --     14.1055                36.6306                 1.6267

                     49                     50                     51
                      A                      A                      A
 Frequencies --   3144.8615              3224.0791              3252.1054
 Red. masses --      1.0918                 1.0871                 1.1104
 Frc consts  --      6.3621                 6.6578                 6.9194
 IR Inten    --     32.0658                 3.2512                 7.3525

 - Thermochemistry -
 -------------------
 Temperature   298.150 Kelvin.  Pressure   1.00000 Atm.
 Atom     1 has atomic number  6 and mass  12.00000

 Molecular mass:   126.06808 amu.
 Principal axes and moments of inertia in atomic units:
                           1         2         3
     Eigenvalues --   659.600301197.586791453.01371
           X            0.99990  -0.01388   0.00404
           Y            0.01387   0.99990   0.00262
           Z           -0.00407  -0.00257   0.99999
 This molecule is an asymmetric top.
 Rotational symmetry number  1.
 Warning -- assumption of classical behavior for rotation
           may cause significant error
 Rotational temperatures (Kelvin)      0.13131     0.07232     0.05961
 Rotational constants (GHZ):           2.73611     1.50698     1.24207
 Zero-point vibrational energy     413699.7 (Joules/Mol)
                                   98.87660 (Kcal/Mol)
 Warning -- explicit consideration of  10 degrees of freedom as
           vibrations may cause significant error
 Vibrational temperatures:    116.94   218.46   261.18   298.40   310.14
          (Kelvin)            441.33   523.04   565.84   686.39   789.13
                              919.74   932.42  1033.45  1065.14  1181.16
                             1255.66  1273.09  1297.35  1315.04  1358.88
                             1464.93  1477.50  1537.27  1597.53  1648.03
                             1659.60  1701.10  1715.33  1736.26  1778.05
                             1818.09  1865.59  1927.99  1995.78  2032.51
                             2123.29  2134.15  2144.62  2153.80  2171.45
                             2311.03  4293.30  4343.28  4368.84  4373.77
                             4472.20  4490.42  4492.13  4524.75  4638.72
                             4679.05

 Zero-point correction=                           0.157570 (Hartree/Particle)
 Thermal correction to Energy=                    0.166119
 Thermal correction to Enthalpy=                  0.167063
 Thermal correction to Gibbs Free Energy=         0.124535
 Sum of electronic and zero-point Energies=           -422.969625
 Sum of electronic and thermal Energies=              -422.961077
 Sum of electronic and thermal Enthalpies=            -422.960132
 Sum of electronic and thermal Free Energies=         -423.002660

                     E (Thermal)             CV                S
                      KCal/Mol        Cal/Mol-Kelvin    Cal/Mol-Kelvin
 Total                  104.241             32.674             89.507
 Electronic               0.000              0.000              0.000
 Translational            0.889              2.981             40.409
 Rotational               0.889              2.981             28.531
 Vibrational            102.464             26.712             20.568
 Vibration     1          0.600              1.962              3.860
 Vibration     2          0.619              1.901              2.649
 Vibration     3          0.630              1.865              2.313
 Vibration     4          0.641              1.829              2.066
 Vibration     5          0.645              1.817              1.996
 Vibration     6          0.697              1.661              1.380
 Vibration     7          0.737              1.547              1.107
 Vibration     8          0.760              1.485              0.988
 Vibration     9          0.834              1.301              0.718
 Vibration    10          0.904              1.143              0.547

 Optimization completed.
    -- Stationary point found.
 Normal termination of Gaussian 09 at Fri Jan 31 18:33:35 2020.
