 Gaussian 09, Revision D.01,
 Gaussian 09:  ES64L-G09RevD.01 24-Apr-2013

 -----------------------------
 # b3lyp 6-31G(2df,p) opt Freq
 -----------------------------

 -----
 titel
 -----
 Symbolic Z-matrix:
 Charge =  0 Multiplicity = 1

 SCF Done:  E(RB3LYP) =  -423.176068240     A.U. after   14 cycles
 Optimization completed.
    -- Stationary point found.
 Normal termination of Gaussian 09 at Tue Jan 28 02:15:30 2020.

 ----------------------------------------------------------------------
 #N Geom=AllCheck Guess=TCheck SCRF=Check GenChk RB3LYP/6-31G(2df,p) Fr
 eq
 ----------------------------------------------------------------------

 Structure from the checkpoint file:  "/scratch/puck/g09_fb9715ff-795c-401e-8660-5a0324d633aa/Gau-112167.chk"
 -----
 titel
 -----
 Charge =  0 Multiplicity = 1

                         Standard orientation:
 ---------------------------------------------------------------------
 Center     Atomic      Atomic             Coordinates (Angstroms)
 Number     Number       Type             X           Y           Z
 ---------------------------------------------------------------------
      1          6           0       -3.409839   -0.711911   -0.337958
      2          6           0       -2.220540   -0.146264    0.393388
      3          8           0       -1.850715    1.202457    0.076582
      4          6           0       -0.943211    0.150761   -0.270699
      5          6           0        0.377274    0.134494    0.443749
      6          6           0        1.288245   -1.113261    0.200808
      7          6           0        2.445646   -0.144307   -0.098534
      8          8           0        3.629515   -0.276491   -0.198655
      9          6           0        1.499614    1.066473   -0.122284
     10          1           0       -3.448793   -1.800890   -0.226591
     11          1           0       -4.340698   -0.299363    0.064724
     12          1           0       -3.361938   -0.469640   -1.403034
     13          1           0       -2.182311   -0.365967    1.462539
     14          1           0       -0.882795   -0.040213   -1.346369
     15          1           0        0.216955    0.315238    1.509174
     16          1           0        1.438290   -1.811659    1.027413
     17          1           0        1.006092   -1.687020   -0.690218
     18          1           0        1.799852    1.930927    0.474163
     19          1           0        1.301812    1.404942   -1.146039
 ---------------------------------------------------------------------

 SCF Done:  E(RB3LYP) =  -423.176068240     A.U. after    1 cycles

 The electronic state is 1-A.
 Alpha  occ. eigenvalues --  -19.15100 -19.13907 -10.27357 -10.24284 -10.24172
 Alpha  occ. eigenvalues --  -10.20821 -10.19906 -10.19597 -10.18886  -1.07211
 Alpha  occ. eigenvalues --   -1.04824  -0.85484  -0.75021  -0.69928  -0.68763
 Alpha  occ. eigenvalues --   -0.60959  -0.59139  -0.53354  -0.50390  -0.48862
 Alpha  occ. eigenvalues --   -0.46208  -0.44678  -0.43655  -0.42096  -0.40978
 Alpha  occ. eigenvalues --   -0.40015  -0.38453  -0.37750  -0.36006  -0.34672
 Alpha  occ. eigenvalues --   -0.34160  -0.29238  -0.26998  -0.24506
 Alpha virt. eigenvalues --   -0.02208   0.08661   0.09434   0.09799   0.10476
 Alpha virt. eigenvalues --    0.11730   0.12676   0.14407   0.15381   0.15692
 Alpha virt. eigenvalues --    0.16684   0.17416   0.17643   0.19893   0.20018

 Mulliken charges:
               1
     1  C   -0.418608
     2  C    0.069990
     3  O   -0.264396
     4  C    0.053699
     5  C   -0.008700
     6  C   -0.368746
     7  C    0.402419
     8  O   -0.284854
     9  C   -0.358251
    10  H    0.123134
    11  H    0.132389
    12  H    0.127873
    13  H    0.088170
    14  H    0.084100
    15  H    0.088288
    16  H    0.132586
    17  H    0.130564
    18  H    0.136235
    19  H    0.134108
 Sum of Mulliken charges =   0.00000

 Dipole moment (field-independent basis, Debye):
    X=             -2.4485    Y=             -1.4043    Z=              0.2493  Tot=              2.8336
 Quadrupole moment (field-independent basis, Debye-Ang):
   XX=            -66.5051   YY=            -54.2989   ZZ=            -50.1149
   XY=              5.5863   XZ=              1.0210   YZ=             -0.3512

  Exact polarizability:  99.417   2.902  69.934  -2.170  -1.272  63.003
 Approx polarizability: 127.798  -0.180 107.073  -5.686  -1.753  97.475

                      1                      2                      3
                      A                      A                      A
 Frequencies --     46.8218                61.0626               127.7820
 Red. masses --      4.4873                 3.8454                 2.9443
 Frc consts  --      0.0058                 0.0084                 0.0283
 IR Inten    --      5.3801                 3.0736                 0.9332

                      4                      5                      6
                      A                      A                      A
 Frequencies --    197.7430               212.7810               310.6394
 Red. masses --      1.3054                 1.8273                 4.2239
 Frc consts  --      0.0301                 0.0487                 0.2401
 IR Inten    --      0.0520                 0.9369                 2.4026

                      7                      8                      9
                      A                      A                      A
 Frequencies --    333.0741               407.6074               418.6713
 Red. masses --      3.8827                 2.7734                 1.7743
 Frc consts  --      0.2538                 0.2715                 0.1832
 IR Inten    --      2.7900                 1.2332                 0.3889

                     10                     11                     12
                      A                      A                      A
 Frequencies --    457.5654               518.6331               659.0836
 Red. masses --      4.1366                 2.9729                 1.4786
 Frc consts  --      0.5103                 0.4711                 0.3784
 IR Inten    --      4.4709                 5.3145                 0.3639

                     13                     14                     15
                      A                      A                      A
 Frequencies --    684.8581               766.2704               802.0520
 Red. masses --      3.8416                 2.4696                 3.1789
 Frc consts  --      1.0616                 0.8544                 1.2048
 IR Inten    --      4.8197                 4.9696                17.6143

                     16                     17                     18
                      A                      A                      A
 Frequencies --    880.2259               922.6985               928.1877
 Red. masses --      2.7034                 2.8245                 2.0240
 Frc consts  --      1.2341                 1.4168                 1.0274
 IR Inten    --     16.9697                 3.4631                 6.1026

                     19                     20                     21
                      A                      A                      A
 Frequencies --    975.4015               994.2034              1021.2235
 Red. masses --      2.8335                 1.5046                 1.7523
 Frc consts  --      1.5883                 0.8762                 1.0767
 IR Inten    --     14.4028                 8.1800                18.4317

                     22                     23                     24
                      A                      A                      A
 Frequencies --   1045.9487              1083.2424              1111.7767
 Red. masses --      1.7986                 2.3857                 2.6467
 Frc consts  --      1.1593                 1.6494                 1.9275
 IR Inten    --      7.7832                32.8913                23.5605

                     25                     26                     27
                      A                      A                      A
 Frequencies --   1144.9407              1164.9829              1172.7891
 Red. masses --      2.0141                 1.5536                 1.6119
 Frc consts  --      1.5556                 1.2423                 1.3062
 IR Inten    --      7.1589                 6.4319                 3.1581

                     28                     29                     30
                      A                      A                      A
 Frequencies --   1193.2598              1214.3291              1234.2636
 Red. masses --      1.4003                 1.7763                 1.5249
 Frc consts  --      1.1747                 1.5433                 1.3687
 IR Inten    --      3.0735                 0.6044                 0.6192

                     31                     32                     33
                      A                      A                      A
 Frequencies --   1253.6418              1284.2657              1314.8595
 Red. masses --      1.3587                 1.4546                 1.2911
 Frc consts  --      1.2581                 1.4135                 1.3152
 IR Inten    --      4.5649                 5.1393                18.5776

                     34                     35                     36
                      A                      A                      A
 Frequencies --   1387.7327              1413.8686              1425.4083
 Red. masses --      1.2793                 1.2895                 1.0880
 Frc consts  --      1.4516                 1.5188                 1.3024
 IR Inten    --      3.5364                 5.0529                15.5155

                     37                     38                     39
                      A                      A                      A
 Frequencies --   1445.9137              1476.9151              1492.2582
 Red. masses --      1.1205                 1.1751                 1.1083
 Frc consts  --      1.3802                 1.5102                 1.4542
 IR Inten    --      3.4297                 2.8426                 8.0442

                     40                     41                     42
                      A                      A                      A
 Frequencies --   1514.6492              1897.8318              3036.7069
 Red. masses --      2.0869                12.6246                 1.0357
 Frc consts  --      2.8208                26.7907                 5.6272
 IR Inten    --      8.7342               311.0592                19.3793

                     43                     44                     45
                      A                      A                      A
 Frequencies --   3044.5244              3050.7196              3062.6505
 Red. masses --      1.0618                 1.0641                 1.0857
 Frc consts  --      5.7988                 5.8351                 6.0000
 IR Inten    --      6.9493                 4.4221                12.8898

                     46                     47                     48
                      A                      A                      A
 Frequencies --   3081.3764              3087.7045              3102.0852
 Red. masses --      1.0871                 1.0869                 1.1008
 Frc consts  --      6.0817                 6.1053                 6.2410
 IR Inten    --      4.5293                32.4657                17.5140

                     49                     50                     51
                      A                      A                      A
 Frequencies --   3114.6568              3117.8438              3123.3742
 Red. masses --      1.1006                 1.1011                 1.1012
 Frc consts  --      6.2909                 6.3062                 6.3297
 IR Inten    --      8.2884                12.3273                30.5954

 - Thermochemistry -
 -------------------
 Temperature   298.150 Kelvin.  Pressure   1.00000 Atm.
 Atom     1 has atomic number  6 and mass  12.00000

 Molecular mass:   126.06808 amu.
 Principal axes and moments of inertia in atomic units:
                           1         2         3
     Eigenvalues --   338.463372393.912992594.07829
           X            0.99980   0.01928   0.00573
           Y           -0.01925   0.99980  -0.00491
           Z           -0.00582   0.00480   0.99997
 This molecule is an asymmetric top.
 Rotational symmetry number  1.
 Rotational temperatures (Kelvin)      0.25590     0.03618     0.03339
 Rotational constants (GHZ):           5.33216     0.75389     0.69572
 Zero-point vibrational energy     411641.6 (Joules/Mol)
                                   98.38471 (Kcal/Mol)
 Warning -- explicit consideration of  11 degrees of freedom as
           vibrations may cause significant error
 Vibrational temperatures:     67.37    87.86   183.85   284.51   306.14
          (Kelvin)            446.94   479.22   586.46   602.37   658.33
                              746.20   948.27   985.36  1102.49  1153.97
                             1266.45  1327.56  1335.45  1403.38  1430.44
                             1469.31  1504.88  1558.54  1599.60  1647.31
                             1676.15  1687.38  1716.83  1747.15  1775.83
                             1803.71  1847.77  1891.79  1996.64  2034.24
                             2050.84  2080.34  2124.95  2147.02  2179.24
                             2730.55  4369.14  4380.39  4389.30  4406.47
                             4433.41  4442.51  4463.20  4481.29  4485.88
                             4493.83

 Zero-point correction=                           0.156786 (Hartree/Particle)
 Thermal correction to Energy=                    0.165861
 Thermal correction to Enthalpy=                  0.166805
 Thermal correction to Gibbs Free Energy=         0.121972
 Sum of electronic and zero-point Energies=           -423.019282
 Sum of electronic and thermal Energies=              -423.010208
 Sum of electronic and thermal Enthalpies=            -423.009263
 Sum of electronic and thermal Free Energies=         -423.054096

                     E (Thermal)             CV                S
                      KCal/Mol        Cal/Mol-Kelvin    Cal/Mol-Kelvin
 Total                  104.079             33.224             94.359
 Electronic               0.000              0.000              0.000
 Translational            0.889              2.981             40.409
 Rotational               0.889              2.981             29.132
 Vibrational            102.302             27.262             24.819
 Vibration     1          0.595              1.979              4.947
 Vibration     2          0.597              1.973              4.423
 Vibration     3          0.611              1.925              2.979
 Vibration     4          0.637              1.843              2.154
 Vibration     5          0.644              1.821              2.020
 Vibration     6          0.699              1.653              1.359
 Vibration     7          0.715              1.609              1.245
 Vibration     8          0.772              1.454              0.935
 Vibration     9          0.782              1.430              0.896
 Vibration    10          0.816              1.344              0.773
 Vibration    11          0.874              1.209              0.613

 Normal termination of Gaussian 09 at Tue Jan 28 02:53:11 2020.
