 Gaussian 09, Revision D.01,
 Gaussian 09:  ES64L-G09RevD.01 24-Apr-2013

 -----------------------------
 # b3lyp 6-31G(2df,p) opt Freq
 -----------------------------

 -----
 titel
 -----
 Symbolic Z-matrix:
 Charge =  0 Multiplicity = 1

 SCF Done:  E(RB3LYP) =  -423.168241117     A.U. after   14 cycles
 Optimization completed.
    -- Stationary point found.
 Normal termination of Gaussian 09 at Tue Jan 28 14:12:37 2020.

 ----------------------------------------------------------------------
 #N Geom=AllCheck Guess=TCheck SCRF=Check GenChk RB3LYP/6-31G(2df,p) Fr
 eq
 ----------------------------------------------------------------------

 Structure from the checkpoint file:  "/scratch/puck/g09_027f750a-cf58-49f1-9a46-8d5463b0881b/Gau-44151.chk"
 -----
 titel
 -----
 Charge =  0 Multiplicity = 1

                         Standard orientation:
 ---------------------------------------------------------------------
 Center     Atomic      Atomic             Coordinates (Angstroms)
 Number     Number       Type             X           Y           Z
 ---------------------------------------------------------------------
      1          8           0        3.429012    0.133700    0.204255
      2          6           0        2.058541    0.437100    0.408792
      3          6           0        1.242488   -0.524029   -0.451885
      4          6           0       -0.238737   -0.270570   -0.366137
      5          8           0       -1.099082   -1.395273   -0.685448
      6          6           0       -1.162345   -0.847968    0.633535
      7          6           0       -2.313320    0.126439    0.853514
      8          6           0       -2.005292    1.239202   -0.129726
      9          6           0       -0.857893    1.032461   -0.779741
     10          1           0        3.954022    0.738061    0.736793
     11          1           0        1.773716    0.319413    1.466693
     12          1           0        1.832492    1.477935    0.127013
     13          1           0        1.576449   -0.428210   -1.492513
     14          1           0        1.448712   -1.553548   -0.145379
     15          1           0       -0.836603   -1.513292    1.429618
     16          1           0       -3.285105   -0.342231    0.656043
     17          1           0       -2.338186    0.488070    1.889705
     18          1           0       -2.680225    2.071671   -0.294289
     19          1           0       -0.425363    1.678913   -1.534250
 ---------------------------------------------------------------------

 SCF Done:  E(RB3LYP) =  -423.168241117     A.U. after    1 cycles

 The electronic state is 1-A.
 Alpha  occ. eigenvalues --  -19.14028 -19.13564 -10.23683 -10.23058 -10.23040
 Alpha  occ. eigenvalues --  -10.19218 -10.18980 -10.18326 -10.18309  -1.06221
 Alpha  occ. eigenvalues --   -1.01690  -0.81854  -0.77348  -0.70984  -0.65324
 Alpha  occ. eigenvalues --   -0.61796  -0.56887  -0.54256  -0.52459  -0.48647
 Alpha  occ. eigenvalues --   -0.46768  -0.44709  -0.42650  -0.41524  -0.40239
 Alpha  occ. eigenvalues --   -0.38087  -0.37272  -0.36285  -0.35406  -0.32884
 Alpha  occ. eigenvalues --   -0.29734  -0.26975  -0.25526  -0.24400
 Alpha virt. eigenvalues --    0.00200   0.07567   0.10126   0.10867   0.12208
 Alpha virt. eigenvalues --    0.13512   0.14230   0.15406   0.15965   0.17018
 Alpha virt. eigenvalues --    0.17110   0.18873   0.19166   0.19978   0.21387

 Mulliken charges:
               1
     1  O   -0.416232
     2  C   -0.073098
     3  C   -0.295785
     4  C    0.395646
     5  O   -0.307504
     6  C   -0.029278
     7  C   -0.291635
     8  C   -0.076363
     9  C   -0.133203
    10  H    0.286566
    11  H    0.087575
    12  H    0.090403
    13  H    0.114059
    14  H    0.119283
    15  H    0.091773
    16  H    0.126347
    17  H    0.110900
    18  H    0.101404
    19  H    0.099142
 Sum of Mulliken charges =   0.00000

 Dipole moment (field-independent basis, Debye):
    X=              0.0475    Y=              2.2831    Z=              2.0623  Tot=              3.0770
 Quadrupole moment (field-independent basis, Debye-Ang):
   XX=            -51.4628   YY=            -53.6088   ZZ=            -51.6827
   XY=              1.7649   XZ=              0.6349   YZ=             -2.1910

  Exact polarizability:  91.676  -3.259  69.786  -8.919  -3.612  66.713
 Approx polarizability: 124.196  -3.229 105.807 -17.885  -1.342 106.893

                      1                      2                      3
                      A                      A                      A
 Frequencies --     82.0346                85.3747               113.9666
 Red. masses --      3.2791                 2.3630                 3.8428
 Frc consts  --      0.0130                 0.0101                 0.0294
 IR Inten    --      0.1029                 6.4111                 0.4878

                      4                      5                      6
                      A                      A                      A
 Frequencies --    261.6238               266.4575               316.6731
 Red. masses --      1.1850                 1.9129                 4.4069
 Frc consts  --      0.0478                 0.0800                 0.2604
 IR Inten    --     76.8096                26.5368                 5.9285

                      7                      8                      9
                      A                      A                      A
 Frequencies --    337.8630               366.6321               469.1677
 Red. masses --      2.7179                 3.6935                 3.8498
 Frc consts  --      0.1828                 0.2925                 0.4993
 IR Inten    --      0.7923                 3.7549                14.4918

                     10                     11                     12
                      A                      A                      A
 Frequencies --    535.0894               650.8873               728.7546
 Red. masses --      2.6369                 4.1677                 1.7880
 Frc consts  --      0.4448                 1.0403                 0.5595
 IR Inten    --     12.2145                 9.2281                 7.5370

                     13                     14                     15
                      A                      A                      A
 Frequencies --    766.4813               788.0683               805.6776
 Red. masses --      3.4853                 2.0982                 1.6068
 Frc consts  --      1.2064                 0.7678                 0.6145
 IR Inten    --      9.7623                 8.5989                 1.4953

                     16                     17                     18
                      A                      A                      A
 Frequencies --    865.0526               919.9030               930.0495
 Red. masses --      3.8565                 3.5094                 2.1838
 Frc consts  --      1.7003                 1.7497                 1.1130
 IR Inten    --     29.1315                16.1417                18.9477

                     19                     20                     21
                      A                      A                      A
 Frequencies --    951.5660               962.2284               994.7482
 Red. masses --      1.6932                 1.5527                 1.5823
 Frc consts  --      0.9033                 0.8470                 0.9225
 IR Inten    --      0.4442                 1.7201                 4.0897

                     22                     23                     24
                      A                      A                      A
 Frequencies --   1021.2213              1053.6887              1078.8889
 Red. masses --      2.4937                 1.6867                 3.2975
 Frc consts  --      1.5323                 1.1034                 2.2615
 IR Inten    --     24.3080                 1.4053                43.6892

                     25                     26                     27
                      A                      A                      A
 Frequencies --   1092.4350              1140.0706              1184.9826
 Red. masses --      2.0038                 1.2756                 1.2160
 Frc consts  --      1.4090                 0.9769                 1.0060
 IR Inten    --     41.1449                 2.9389                 3.3903

                     28                     29                     30
                      A                      A                      A
 Frequencies --   1201.7828              1241.9749              1254.3755
 Red. masses --      1.5785                 1.2100                 1.6437
 Frc consts  --      1.3432                 1.0997                 1.5238
 IR Inten    --      5.0192                30.3253                12.0490

                     31                     32                     33
                      A                      A                      A
 Frequencies --   1292.6842              1302.5743              1312.7933
 Red. masses --      1.3185                 1.6264                 1.2199
 Frc consts  --      1.2981                 1.6259                 1.2387
 IR Inten    --      4.9483                13.9923                 0.3938

                     34                     35                     36
                      A                      A                      A
 Frequencies --   1340.5182              1369.6401              1443.8806
 Red. masses --      1.5800                 2.0033                 3.0920
 Frc consts  --      1.6728                 2.2141                 3.7980
 IR Inten    --     14.3965                 8.4796                 9.6957

                     37                     38                     39
                      A                      A                      A
 Frequencies --   1458.8352              1463.1458              1493.3235
 Red. masses --      1.1573                 1.4873                 1.0878
 Frc consts  --      1.4512                 1.8760                 1.4293
 IR Inten    --      6.4039                 8.4254                 2.3765

                     40                     41                     42
                      A                      A                      A
 Frequencies --   1528.1638              1665.4865              2966.6533
 Red. masses --      1.0855                 6.3746                 1.0544
 Frc consts  --      1.4935                10.4181                 5.4676
 IR Inten    --      2.8395                 7.5866                52.2519

                     43                     44                     45
                      A                      A                      A
 Frequencies --   2992.4609              3026.4300              3039.4029
 Red. masses --      1.1057                 1.0612                 1.0639
 Frc consts  --      5.8339                 5.7270                 5.7908
 IR Inten    --     45.8933                27.3748                25.0767

                     46                     47                     48
                      A                      A                      A
 Frequencies --   3062.4039              3097.2962              3141.2715
 Red. masses --      1.0999                 1.0988                 1.0908
 Frc consts  --      6.0773                 6.2106                 6.3419
 IR Inten    --     13.0422                16.8447                25.7869

                     49                     50                     51
                      A                      A                      A
 Frequencies --   3188.0894              3213.1397              3831.2624
 Red. masses --      1.0850                 1.1041                 1.0664
 Frc consts  --      6.4975                 6.7163                 9.2225
 IR Inten    --      6.3740                15.4414                22.0634

 - Thermochemistry -
 -------------------
 Temperature   298.150 Kelvin.  Pressure   1.00000 Atm.
 Atom     1 has atomic number  8 and mass  15.99491

 Molecular mass:   126.06808 amu.
 Principal axes and moments of inertia in atomic units:
                           1         2         3
     Eigenvalues --   506.824851839.328721998.84235
           X            0.99996  -0.00502  -0.00716
           Y            0.00461   0.99844  -0.05568
           Z            0.00742   0.05565   0.99842
 This molecule is an asymmetric top.
 Rotational symmetry number  1.
 Warning -- assumption of classical behavior for rotation
           may cause significant error
 Rotational temperatures (Kelvin)      0.17089     0.04709     0.04333
 Rotational constants (GHZ):           3.56088     0.98120     0.90289
 Zero-point vibrational energy     416881.7 (Joules/Mol)
                                   99.63711 (Kcal/Mol)
 Warning -- explicit consideration of  10 degrees of freedom as
           vibrations may cause significant error
 Vibrational temperatures:    118.03   122.84   163.97   376.42   383.37
          (Kelvin)            455.62   486.11   527.50   675.03   769.87
                              936.48  1048.51  1102.79  1133.85  1159.19
                             1244.62  1323.53  1338.13  1369.09  1384.43
                             1431.22  1469.31  1516.02  1552.28  1571.77
                             1640.31  1704.92  1729.10  1786.92  1804.76
                             1859.88  1874.11  1888.81  1928.70  1970.60
                             2077.42  2098.94  2105.14  2148.56  2198.68
                             2396.26  4268.35  4305.48  4354.35  4373.02
                             4406.11  4456.31  4519.58  4586.94  4622.99
                             5512.33

 Zero-point correction=                           0.158782 (Hartree/Particle)
 Thermal correction to Energy=                    0.167403
 Thermal correction to Enthalpy=                  0.168347
 Thermal correction to Gibbs Free Energy=         0.125024
 Sum of electronic and zero-point Energies=           -423.009459
 Sum of electronic and thermal Energies=              -423.000838
 Sum of electronic and thermal Enthalpies=            -422.999894
 Sum of electronic and thermal Free Energies=         -423.043217

                     E (Thermal)             CV                S
                      KCal/Mol        Cal/Mol-Kelvin    Cal/Mol-Kelvin
 Total                  105.047             32.428             91.181
 Electronic               0.000              0.000              0.000
 Translational            0.889              2.981             40.409
 Rotational               0.889              2.981             29.012
 Vibrational            103.269             26.466             21.761
 Vibration     1          0.600              1.961              3.842
 Vibration     2          0.601              1.959              3.763
 Vibration     3          0.607              1.938              3.200
 Vibration     4          0.669              1.743              1.651
 Vibration     5          0.672              1.735              1.619
 Vibration     6          0.704              1.642              1.327
 Vibration     7          0.718              1.600              1.222
 Vibration     8          0.740              1.541              1.094
 Vibration     9          0.826              1.318              0.740
 Vibration    10          0.890              1.172              0.576

 Optimization completed.
    -- Stationary point found.
 Normal termination of Gaussian 09 at Tue Jan 28 14:57:55 2020.
