 Gaussian 09, Revision D.01,
 Gaussian 09:  ES64L-G09RevD.01 24-Apr-2013

 -----------------------------
 # b3lyp 6-31G(2df,p) opt Freq
 -----------------------------

 -----
 titel
 -----
 Symbolic Z-matrix:
 Charge =  0 Multiplicity = 1

 SCF Done:  E(RB3LYP) =  -423.194708896     A.U. after   14 cycles
 Optimization completed.
    -- Stationary point found.
 Normal termination of Gaussian 09 at Mon Jan 27 12:28:58 2020.

 ----------------------------------------------------------------------
 #N Geom=AllCheck Guess=TCheck SCRF=Check GenChk RB3LYP/6-31G(2df,p) Fr
 eq
 ----------------------------------------------------------------------

 Structure from the checkpoint file:  "/scratch/puck/g09_32a6fb06-1f0d-4beb-8b10-edd64369d3b7/Gau-134099.chk"
 -----
 titel
 -----
 Charge =  0 Multiplicity = 1

                         Standard orientation:
 ---------------------------------------------------------------------
 Center     Atomic      Atomic             Coordinates (Angstroms)
 Number     Number       Type             X           Y           Z
 ---------------------------------------------------------------------
      1          6           0        1.690674   -1.029024    0.219091
      2          8           0        2.307268    0.163641   -0.266065
      3          6           0        1.286943    1.102397   -0.567439
      4          6           0        0.213708    0.858315    0.510957
      5          6           0       -1.163726    1.390927    0.244657
      6          6           0       -2.172943    0.582938   -0.070773
      7          6           0       -1.971282   -0.897696   -0.238412
      8          8           0       -0.611375   -1.258146   -0.385957
      9          6           0        0.240635   -0.679788    0.595296
     10          1           0        1.677132   -1.811051   -0.550978
     11          1           0        2.272550   -1.384842    1.075501
     12          1           0        1.728483    2.102170   -0.539584
     13          1           0        0.860118    0.928222   -1.566958
     14          1           0        0.593977    1.266932    1.456357
     15          1           0       -1.320166    2.462151    0.341179
     16          1           0       -3.180627    0.962405   -0.216295
     17          1           0       -2.430351   -1.440699    0.609124
     18          1           0       -2.472856   -1.252090   -1.146264
     19          1           0       -0.039450   -1.045572    1.593829
 ---------------------------------------------------------------------

 SCF Done:  E(RB3LYP) =  -423.194708896     A.U. after    1 cycles

 The electronic state is 1-A.
 Alpha  occ. eigenvalues --  -19.14282 -19.13161 -10.23471 -10.23377 -10.22244
 Alpha  occ. eigenvalues --  -10.22124 -10.19180 -10.18809 -10.18686  -1.04429
 Alpha  occ. eigenvalues --   -1.02274  -0.80845  -0.77767  -0.72767  -0.66143
 Alpha  occ. eigenvalues --   -0.61581  -0.59508  -0.53025  -0.50519  -0.49271
 Alpha  occ. eigenvalues --   -0.48563  -0.45217  -0.44071  -0.43136  -0.39965
 Alpha  occ. eigenvalues --   -0.39097  -0.37717  -0.36911  -0.34764  -0.32263
 Alpha  occ. eigenvalues --   -0.30438  -0.25617  -0.25396  -0.24302
 Alpha virt. eigenvalues --    0.01385   0.08267   0.10806   0.12005   0.13409
 Alpha virt. eigenvalues --    0.14179   0.14428   0.14878   0.15961   0.17188
 Alpha virt. eigenvalues --    0.17644   0.19042   0.19238   0.20188   0.22297

 Mulliken charges:
               1
     1  C   -0.092024
     2  O   -0.257938
     3  C   -0.086038
     4  C   -0.055386
     5  C   -0.094086
     6  C   -0.071274
     7  C   -0.122796
     8  O   -0.266682
     9  C    0.069926
    10  H    0.111016
    11  H    0.103114
    12  H    0.105471
    13  H    0.097495
    14  H    0.085193
    15  H    0.093041
    16  H    0.095440
    17  H    0.098062
    18  H    0.119658
    19  H    0.067806
 Sum of Mulliken charges =   0.00000

 Dipole moment (field-independent basis, Debye):
    X=             -1.8672    Y=              0.5599    Z=              1.0253  Tot=              2.2026
 Quadrupole moment (field-independent basis, Debye-Ang):
   XX=            -54.6379   YY=            -51.3993   ZZ=            -52.9928
   XY=             -0.3916   XZ=              1.9024   YZ=             -1.0779

  Exact polarizability:  89.660   3.509  78.781   4.712  -0.022  60.549
 Approx polarizability: 124.800  11.722 115.275   8.261   3.524  94.593

                      1                      2                      3
                      A                      A                      A
 Frequencies --     82.2579               182.3544               205.3313
 Red. masses --      2.9510                 3.4496                 2.4561
 Frc consts  --      0.0118                 0.0676                 0.0610
 IR Inten    --      1.7527                 1.5334                 5.7213

                      4                      5                      6
                      A                      A                      A
 Frequencies --    275.3888               350.6639               448.8318
 Red. masses --      2.3046                 3.2238                 2.8088
 Frc consts  --      0.1030                 0.2336                 0.3334
 IR Inten    --      1.8450                 1.7590                 0.5862

                      7                      8                      9
                      A                      A                      A
 Frequencies --    472.7110               543.8518               624.1481
 Red. masses --      4.8391                 4.5231                 3.1474
 Frc consts  --      0.6371                 0.7882                 0.7224
 IR Inten    --      1.1968                 1.1592                 3.5614

                     10                     11                     12
                      A                      A                      A
 Frequencies --    715.0770               737.5996               821.6133
 Red. masses --      1.3791                 3.7801                 3.0345
 Frc consts  --      0.4155                 1.2117                 1.2069
 IR Inten    --     33.4738                 2.6998                10.8155

                     13                     14                     15
                      A                      A                      A
 Frequencies --    846.3316               885.7929               924.9298
 Red. masses --      3.9507                 2.5300                 2.9802
 Frc consts  --      1.6673                 1.1696                 1.5021
 IR Inten    --      9.0528                 9.1896                 0.5562

                     16                     17                     18
                      A                      A                      A
 Frequencies --    944.2540               994.8251               996.5546
 Red. masses --      3.7845                 1.2576                 1.6389
 Frc consts  --      1.9881                 0.7333                 0.9590
 IR Inten    --     28.7600                 5.3803                13.4021

                     19                     20                     21
                      A                      A                      A
 Frequencies --   1019.6800              1041.2433              1063.6707
 Red. masses --      1.9173                 2.0324                 2.2492
 Frc consts  --      1.1745                 1.2983                 1.4993
 IR Inten    --      8.7768                 2.5271                 9.7050

                     22                     23                     24
                      A                      A                      A
 Frequencies --   1083.3501              1106.2909              1121.1594
 Red. masses --      3.5099                 4.1437                 2.7682
 Frc consts  --      2.4271                 2.9880                 2.0501
 IR Inten    --     11.3039                49.9280                78.3695

                     25                     26                     27
                      A                      A                      A
 Frequencies --   1132.1817              1205.9629              1230.7290
 Red. masses --      2.5498                 1.2428                 1.2143
 Frc consts  --      1.9257                 1.0649                 1.0837
 IR Inten    --     34.6463                17.7228                 7.1501

                     28                     29                     30
                      A                      A                      A
 Frequencies --   1247.3827              1266.8625              1288.1709
 Red. masses --      1.2025                 1.1763                 1.3941
 Frc consts  --      1.1024                 1.1123                 1.3629
 IR Inten    --      6.6707                10.1017                 2.4629

                     31                     32                     33
                      A                      A                      A
 Frequencies --   1304.6158              1330.4526              1354.4264
 Red. masses --      1.3241                 1.5184                 1.2330
 Frc consts  --      1.3278                 1.5836                 1.3327
 IR Inten    --      1.5076                 4.8720                 2.9407

                     34                     35                     36
                      A                      A                      A
 Frequencies --   1371.9655              1396.2452              1409.2429
 Red. masses --      1.2882                 1.4533                 1.5408
 Frc consts  --      1.4286                 1.6693                 1.8029
 IR Inten    --      2.6293                 4.2123                 9.4506

                     37                     38                     39
                      A                      A                      A
 Frequencies --   1417.7236              1485.9102              1505.0955
 Red. masses --      1.5197                 1.0908                 1.0810
 Frc consts  --      1.7997                 1.4190                 1.4428
 IR Inten    --      2.3715                 2.0418                 0.7855

                     40                     41                     42
                      A                      A                      A
 Frequencies --   1519.2734              1722.5730              2931.1525
 Red. masses --      1.0957                 6.7754                 1.0728
 Frc consts  --      1.4901                11.8452                 5.4305
 IR Inten    --      2.3555                 1.4137                65.5390

                     43                     44                     45
                      A                      A                      A
 Frequencies --   2989.7751              2994.5126              3023.4204
 Red. masses --      1.0699                 1.0825                 1.0616
 Frc consts  --      5.6349                 5.7194                 5.7178
 IR Inten    --     63.1443                13.8770                45.1816

                     46                     47                     48
                      A                      A                      A
 Frequencies --   3025.3219              3056.5168              3075.0619
 Red. masses --      1.0823                 1.0868                 1.1044
 Frc consts  --      5.8362                 5.9822                 6.1527
 IR Inten    --     38.5112                27.7152                37.9462

                     49                     50                     51
                      A                      A                      A
 Frequencies --   3092.6850              3152.3195              3176.5307
 Red. masses --      1.0965                 1.0839                 1.0977
 Frc consts  --      6.1792                 6.3462                 6.5260
 IR Inten    --     36.7164                 7.7543                26.9217

 - Thermochemistry -
 -------------------
 Temperature   298.150 Kelvin.  Pressure   1.00000 Atm.
 Atom     1 has atomic number  6 and mass  12.00000

 Molecular mass:   126.06808 amu.
 Principal axes and moments of inertia in atomic units:
                           1         2         3
     Eigenvalues --   556.934471177.858881537.99675
           X            0.99998  -0.00373   0.00586
           Y            0.00383   0.99985  -0.01680
           Z           -0.00580   0.01682   0.99984
 This molecule is an asymmetric top.
 Rotational symmetry number  1.
 Warning -- assumption of classical behavior for rotation
           may cause significant error
 Rotational temperatures (Kelvin)      0.15552     0.07353     0.05632
 Rotational constants (GHZ):           3.24049     1.53222     1.17344
 Zero-point vibrational energy     425834.8 (Joules/Mol)
                                  101.77696 (Kcal/Mol)
 Warning -- explicit consideration of   8 degrees of freedom as
           vibrations may cause significant error
 Vibrational temperatures:    118.35   262.37   295.43   396.22   504.53
          (Kelvin)            645.77   680.12   782.48   898.01  1028.83
                             1061.24  1182.12  1217.68  1274.46  1330.77
                             1358.57  1431.33  1433.82  1467.09  1498.11
                             1530.38  1558.70  1591.70  1613.10  1628.95
                             1735.11  1770.74  1794.70  1822.73  1853.39
                             1877.05  1914.22  1948.71  1973.95  2008.88
                             2027.58  2039.79  2137.89  2165.49  2185.89
                             2478.40  4217.27  4301.61  4308.43  4350.02
                             4352.76  4397.64  4424.32  4449.68  4535.48
                             4570.31

 Zero-point correction=                           0.162192 (Hartree/Particle)
 Thermal correction to Energy=                    0.169504
 Thermal correction to Enthalpy=                  0.170449
 Thermal correction to Gibbs Free Energy=         0.130258
 Sum of electronic and zero-point Energies=           -423.032517
 Sum of electronic and thermal Energies=              -423.025205
 Sum of electronic and thermal Enthalpies=            -423.024260
 Sum of electronic and thermal Free Energies=         -423.064451

                     E (Thermal)             CV                S
                      KCal/Mol        Cal/Mol-Kelvin    Cal/Mol-Kelvin
 Total                  106.366             28.722             84.588
 Electronic               0.000              0.000              0.000
 Translational            0.889              2.981             40.409
 Rotational               0.889              2.981             28.402
 Vibrational            104.588             22.760             15.777
 Vibration     1          0.600              1.961              3.836
 Vibration     2          0.630              1.864              2.304
 Vibration     3          0.640              1.832              2.085
 Vibration     4          0.677              1.719              1.562
 Vibration     5          0.728              1.574              1.163
 Vibration     6          0.808              1.363              0.799
 Vibration     7          0.830              1.311              0.730
 Vibration     8          0.899              1.153              0.557

 Optimization completed.
    -- Stationary point found.
 Normal termination of Gaussian 09 at Mon Jan 27 13:30:36 2020.
