 Gaussian 09, Revision D.01,
 Gaussian 09:  ES64L-G09RevD.01 24-Apr-2013

 -----------------------------
 # b3lyp 6-31G(2df,p) opt Freq
 -----------------------------

 -----
 titel
 -----
 Symbolic Z-matrix:
 Charge =  0 Multiplicity = 1

 SCF Done:  E(RB3LYP) =  -423.150642413     A.U. after   13 cycles
 Optimization completed.
    -- Stationary point found.
 Normal termination of Gaussian 09 at Wed Jan 29 10:22:00 2020.

 ----------------------------------------------------------------------
 #N Geom=AllCheck Guess=TCheck SCRF=Check GenChk RB3LYP/6-31G(2df,p) Fr
 eq
 ----------------------------------------------------------------------

 Structure from the checkpoint file:  "/scratch/puck/g09_481e2059-893e-4dc6-a41c-0381860c089f/Gau-153450.chk"
 -----
 titel
 -----
 Charge =  0 Multiplicity = 1

                         Standard orientation:
 ---------------------------------------------------------------------
 Center     Atomic      Atomic             Coordinates (Angstroms)
 Number     Number       Type             X           Y           Z
 ---------------------------------------------------------------------
      1          6           0        2.630664    0.171956   -0.412276
      2          6           0        1.184875    0.007223   -0.078466
      3          8           0        0.457444   -0.984648   -0.815838
      4          6           0       -0.392803   -1.251086    0.344210
      5          6           0       -1.826650   -0.804018    0.077962
      6          6           0       -1.799417    0.554927   -0.634030
      7          8           0       -0.951148    1.516830   -0.008069
      8          6           0        0.260557    1.052538    0.507160
      9          6           0        0.402771   -0.268196    1.209573
     10          1           0        3.167108   -0.776713   -0.307733
     11          1           0        2.745360    0.515965   -1.446443
     12          1           0        3.096729    0.911985    0.244573
     13          1           0       -0.310106   -2.300548    0.639302
     14          1           0       -2.355718   -1.521468   -0.558948
     15          1           0       -2.362935   -0.745624    1.032597
     16          1           0       -1.478377    0.403488   -1.671113
     17          1           0       -2.795125    1.007629   -0.644285
     18          1           0        0.783972    1.880389    0.977187
     19          1           0        0.698733   -0.412616    2.241320
 ---------------------------------------------------------------------

 SCF Done:  E(RB3LYP) =  -423.150642413     A.U. after    1 cycles

 The electronic state is 1-A.
 Alpha  occ. eigenvalues --  -19.13893 -19.13546 -10.24168 -10.23928 -10.23373
 Alpha  occ. eigenvalues --  -10.22406 -10.18639 -10.18415 -10.18396  -1.05884
 Alpha  occ. eigenvalues --   -1.02000  -0.82834  -0.78033  -0.73393  -0.66597
 Alpha  occ. eigenvalues --   -0.63554  -0.55023  -0.53390  -0.51387  -0.48357
 Alpha  occ. eigenvalues --   -0.46768  -0.45271  -0.42764  -0.41342  -0.40725
 Alpha  occ. eigenvalues --   -0.39972  -0.37948  -0.36898  -0.34828  -0.32246
 Alpha  occ. eigenvalues --   -0.31334  -0.28722  -0.24760  -0.21210
 Alpha virt. eigenvalues --    0.07469   0.09293   0.10802   0.12265   0.13287
 Alpha virt. eigenvalues --    0.13426   0.14277   0.15519   0.17070   0.17240
 Alpha virt. eigenvalues --    0.18142   0.18747   0.20009   0.21048   0.21923

 Mulliken charges:
               1
     1  C   -0.495405
     2  C    0.408067
     3  O   -0.338356
     4  C    0.089932
     5  C   -0.243722
     6  C   -0.055521
     7  O   -0.276297
     8  C    0.069362
     9  C   -0.252177
    10  H    0.127891
    11  H    0.135153
    12  H    0.124325
    13  H    0.081633
    14  H    0.106115
    15  H    0.108078
    16  H    0.113649
    17  H    0.101752
    18  H    0.104393
    19  H    0.091127
 Sum of Mulliken charges =   0.00000

 Dipole moment (field-independent basis, Debye):
    X=              0.2481    Y=             -0.7009    Z=              1.2081  Tot=              1.4185
 Quadrupole moment (field-independent basis, Debye-Ang):
   XX=            -48.7309   YY=            -55.1144   ZZ=            -52.9152
   XY=              3.5631   XZ=              1.5931   YZ=             -1.4744

  Exact polarizability:  86.354   3.183  70.288   0.311  -1.005  66.503
 Approx polarizability: 110.786   2.350 107.019  -2.193   0.802 105.335

                      1                      2                      3
                      A                      A                      A
 Frequencies --    163.0987               196.9568               237.0570
 Red. masses --      2.8487                 1.1141                 2.7126
 Frc consts  --      0.0446                 0.0255                 0.0898
 IR Inten    --      4.0451                 0.1257                 2.2693

                      4                      5                      6
                      A                      A                      A
 Frequencies --    266.9166               281.1576               386.2619
 Red. masses --      3.0486                 2.1284                 3.1287
 Frc consts  --      0.1280                 0.0991                 0.2750
 IR Inten    --      2.9336                 1.1511                 2.4548

                      7                      8                      9
                      A                      A                      A
 Frequencies --    439.4212               533.2674               615.5984
 Red. masses --      5.4707                 3.0782                 3.3600
 Frc consts  --      0.6224                 0.5157                 0.7502
 IR Inten    --      2.0354                 1.0471                 2.2514

                     10                     11                     12
                      A                      A                      A
 Frequencies --    654.3117               693.3268               758.5370
 Red. masses --      4.0230                 2.8824                 4.1883
 Frc consts  --      1.0148                 0.8163                 1.4199
 IR Inten    --     13.8809                 8.4903                12.2203

                     13                     14                     15
                      A                      A                      A
 Frequencies --    786.5426               844.9429               889.7498
 Red. masses --      2.0474                 3.1227                 2.2942
 Frc consts  --      0.7463                 1.3135                 1.0701
 IR Inten    --      1.0950                13.0422                22.5156

                     16                     17                     18
                      A                      A                      A
 Frequencies --    911.0370               922.6718               949.3756
 Red. masses --      2.8311                 1.8208                 2.4159
 Frc consts  --      1.3844                 0.9133                 1.2829
 IR Inten    --      7.9472                 1.7656                33.8885

                     19                     20                     21
                      A                      A                      A
 Frequencies --    979.4618              1010.7983              1018.1686
 Red. masses --      1.8080                 2.8728                 1.5528
 Frc consts  --      1.0219                 1.7294                 0.9484
 IR Inten    --      3.0788                 3.0409                 8.4730

                     22                     23                     24
                      A                      A                      A
 Frequencies --   1057.4473              1087.7483              1099.7068
 Red. masses --      2.0328                 1.7317                 1.8739
 Frc consts  --      1.3392                 1.2072                 1.3352
 IR Inten    --     19.3766                13.9544                18.5274

                     25                     26                     27
                      A                      A                      A
 Frequencies --   1117.7769              1146.4200              1199.2844
 Red. masses --      2.1466                 3.0522                 1.6727
 Frc consts  --      1.5802                 2.3634                 1.4175
 IR Inten    --     18.6016                63.0914                22.7748

                     28                     29                     30
                      A                      A                      A
 Frequencies --   1224.9452              1263.2777              1282.2458
 Red. masses --      1.8100                 2.0197                 1.5333
 Frc consts  --      1.6001                 1.8990                 1.4854
 IR Inten    --     80.2118                 0.7370                44.8929

                     31                     32                     33
                      A                      A                      A
 Frequencies --   1313.8824              1329.9650              1342.7006
 Red. masses --      1.5869                 1.5739                 1.3287
 Frc consts  --      1.6140                 1.6402                 1.4113
 IR Inten    --      9.9308                 5.2349                 2.9132

                     34                     35                     36
                      A                      A                      A
 Frequencies --   1370.8935              1408.5714              1420.6554
 Red. masses --      1.4810                 1.2584                 1.3952
 Frc consts  --      1.6399                 1.4711                 1.6591
 IR Inten    --      2.3496                11.9255                 3.4832

                     37                     38                     39
                      A                      A                      A
 Frequencies --   1469.1048              1472.8340              1473.5638
 Red. masses --      2.0881                 1.1081                 1.0477
 Frc consts  --      2.6553                 1.4162                 1.3403
 IR Inten    --     12.7588                 3.4462                 3.9668

                     40                     41                     42
                      A                      A                      A
 Frequencies --   1498.4283              1506.3038              3031.7887
 Red. masses --      1.1238                 1.1649                 1.0364
 Frc consts  --      1.4866                 1.5573                 5.6129
 IR Inten    --      2.9126                 5.3949                28.7857

                     43                     44                     45
                      A                      A                      A
 Frequencies --   3033.9050              3035.0655              3067.9957
 Red. masses --      1.0592                 1.0626                 1.0887
 Frc consts  --      5.7444                 5.7673                 6.0375
 IR Inten    --     32.0918                22.0295                50.1530

                     46                     47                     48
                      A                      A                      A
 Frequencies --   3079.4831              3090.7017              3096.1300
 Red. masses --      1.0986                 1.1061                 1.1009
 Frc consts  --      6.1385                 6.2255                 6.2178
 IR Inten    --     34.2881                36.2517                16.7033

                     49                     50                     51
                      A                      A                      A
 Frequencies --   3114.8488              3157.2533              3182.6829
 Red. masses --      1.1006                 1.0880                 1.0948
 Frc consts  --      6.2917                 6.3899                 6.5338
 IR Inten    --     14.1870                15.4086                15.0246

 - Thermochemistry -
 -------------------
 Temperature   298.150 Kelvin.  Pressure   1.00000 Atm.
 Atom     1 has atomic number  6 and mass  12.00000

 Molecular mass:   126.06808 amu.
 Principal axes and moments of inertia in atomic units:
                           1         2         3
     Eigenvalues --   588.255881086.589231296.54316
           X            0.99919   0.04005   0.00452
           Y           -0.03987   0.99860  -0.03465
           Z           -0.00590   0.03445   0.99939
 This molecule is an asymmetric top.
 Rotational symmetry number  1.
 Warning -- assumption of classical behavior for rotation
           may cause significant error
 Rotational temperatures (Kelvin)      0.14724     0.07971     0.06680
 Rotational constants (GHZ):           3.06795     1.66092     1.39196
 Zero-point vibrational energy     421769.0 (Joules/Mol)
                                  100.80521 (Kcal/Mol)
 Warning -- explicit consideration of   9 degrees of freedom as
           vibrations may cause significant error
 Vibrational temperatures:    234.66   283.38   341.07   384.03   404.52
          (Kelvin)            555.74   632.23   767.25   885.71   941.41
                              997.54  1091.36  1131.66  1215.68  1280.15
                             1310.78  1327.52  1365.94  1409.23  1454.31
                             1464.92  1521.43  1565.03  1582.23  1608.23
                             1649.44  1725.50  1762.42  1817.57  1844.86
                             1890.38  1913.52  1931.84  1972.41  2026.62
                             2044.00  2113.71  2119.08  2120.13  2155.90
                             2167.23  4362.06  4365.11  4366.78  4414.16
                             4430.68  4446.82  4454.63  4481.57  4542.58
                             4579.17

 Zero-point correction=                           0.160643 (Hartree/Particle)
 Thermal correction to Energy=                    0.168082
 Thermal correction to Enthalpy=                  0.169027
 Thermal correction to Gibbs Free Energy=         0.129182
 Sum of electronic and zero-point Energies=           -422.989999
 Sum of electronic and thermal Energies=              -422.982560
 Sum of electronic and thermal Enthalpies=            -422.981616
 Sum of electronic and thermal Free Energies=         -423.021461

                     E (Thermal)             CV                S
                      KCal/Mol        Cal/Mol-Kelvin    Cal/Mol-Kelvin
 Total                  105.473             29.978             83.861
 Electronic               0.000              0.000              0.000
 Translational            0.889              2.981             40.409
 Rotational               0.889              2.981             28.207
 Vibrational            103.696             24.017             15.245
 Vibration     1          0.623              1.888              2.514
 Vibration     2          0.636              1.844              2.161
 Vibration     3          0.656              1.784              1.825
 Vibration     4          0.672              1.734              1.616
 Vibration     5          0.681              1.708              1.527
 Vibration     6          0.755              1.500              1.015
 Vibration     7          0.799              1.384              0.828
 Vibration     8          0.888              1.176              0.580
 Vibration     9          0.975              0.999              0.424

 Normal termination of Gaussian 09 at Wed Jan 29 11:07:01 2020.
