 Gaussian 09, Revision D.01,
 Gaussian 09:  ES64L-G09RevD.01 24-Apr-2013

 -----------------------------
 # b3lyp 6-31G(2df,p) opt Freq
 -----------------------------

 -----
 titel
 -----
 Symbolic Z-matrix:
 Charge =  0 Multiplicity = 1

 SCF Done:  E(RB3LYP) =  -423.127846114     A.U. after   14 cycles
 Optimization completed.
    -- Stationary point found.
 Normal termination of Gaussian 09 at Mon Jan 27 14:17:00 2020.

 ----------------------------------------------------------------------
 #N Geom=AllCheck Guess=TCheck SCRF=Check GenChk RB3LYP/6-31G(2df,p) Fr
 eq
 ----------------------------------------------------------------------

 Structure from the checkpoint file:  "/scratch/puck/g09_67566511-07d8-48eb-ab7f-fc846f313d44/Gau-157902.chk"
 -----
 titel
 -----
 Charge =  0 Multiplicity = 1

                         Standard orientation:
 ---------------------------------------------------------------------
 Center     Atomic      Atomic             Coordinates (Angstroms)
 Number     Number       Type             X           Y           Z
 ---------------------------------------------------------------------
      1          6           0       -0.776985    1.256992    1.331393
      2          6           0       -0.495550    0.495836    0.024859
      3          8           0       -0.305013    1.405526   -1.058601
      4          6           0       -1.604424   -0.431745   -0.273605
      5          6           0       -2.506484   -1.191584   -0.510969
      6          6           0        0.799428   -0.323677    0.152528
      7          8           0        0.733379   -1.277031    1.176390
      8          6           0        2.127332    0.339623   -0.016213
      9          6           0        1.624412   -0.641329   -1.062901
     10          1           0       -1.730877    1.789845    1.269026
     11          1           0       -0.816070    0.563486    2.173279
     12          1           0        0.025723    1.979343    1.500403
     13          1           0       -1.135494    1.871961   -1.198822
     14          1           0       -3.307853   -1.853896   -0.729985
     15          1           0        0.082855   -1.938151    0.907902
     16          1           0        2.142630    1.389771   -0.280633
     17          1           0        2.914960    0.009592    0.651144
     18          1           0        1.308017   -0.241117   -2.017744
     19          1           0        2.082806   -1.623491   -1.087420
 ---------------------------------------------------------------------

 SCF Done:  E(RB3LYP) =  -423.127846114     A.U. after    1 cycles

 The electronic state is 1-A.
 Alpha  occ. eigenvalues --  -19.14924 -19.14141 -10.26561 -10.23768 -10.18898
 Alpha  occ. eigenvalues --  -10.18527 -10.17794 -10.17749 -10.17503  -1.03924
 Alpha  occ. eigenvalues --   -1.02417  -0.84094  -0.78600  -0.73216  -0.65526
 Alpha  occ. eigenvalues --   -0.60223  -0.57500  -0.55978  -0.51350  -0.49870
 Alpha  occ. eigenvalues --   -0.48225  -0.44644  -0.43431  -0.41194  -0.39531
 Alpha  occ. eigenvalues --   -0.36690  -0.36242  -0.35296  -0.32514  -0.30180
 Alpha  occ. eigenvalues --   -0.28531  -0.27696  -0.27114  -0.25183
 Alpha virt. eigenvalues --    0.02825   0.04709   0.07945   0.10144   0.11680
 Alpha virt. eigenvalues --    0.12083   0.13357   0.14456   0.15322   0.16839
 Alpha virt. eigenvalues --    0.18224   0.18407   0.21667   0.23028   0.23625

 Mulliken charges:
               1
     1  C   -0.416729
     2  C    0.112176
     3  O   -0.454342
     4  C    0.306603
     5  C   -0.488369
     6  C    0.426088
     7  O   -0.478020
     8  C   -0.315968
     9  C   -0.325728
    10  H    0.107607
    11  H    0.141260
    12  H    0.127381
    13  H    0.286170
    14  H    0.201878
    15  H    0.284021
    16  H    0.127486
    17  H    0.119250
    18  H    0.130021
    19  H    0.109215
 Sum of Mulliken charges =   0.00000

 Dipole moment (field-independent basis, Debye):
    X=             -1.8150    Y=              0.0566    Z=             -0.3998  Tot=              1.8594
 Quadrupole moment (field-independent basis, Debye-Ang):
   XX=            -49.4905   YY=            -48.0500   ZZ=            -56.0371
   XY=              1.0160   XZ=              0.9647   YZ=              1.1991

  Exact polarizability:  88.932   9.694  76.352   2.148   3.591  66.068
 Approx polarizability: 125.142  22.299 116.206   5.873   2.947  97.909

                      1                      2                      3
                      A                      A                      A
 Frequencies --     76.9979               124.8772               185.4600
 Red. masses --      4.1671                 3.7271                 3.0977
 Frc consts  --      0.0146                 0.0342                 0.0628
 IR Inten    --      2.9892                 2.4864                 1.5906

                      4                      5                      6
                      A                      A                      A
 Frequencies --    225.9611               233.2294               242.3156
 Red. masses --      1.1755                 1.3306                 1.9710
 Frc consts  --      0.0354                 0.0426                 0.0682
 IR Inten    --     78.8260                 0.6002                13.9203

                      7                      8                      9
                      A                      A                      A
 Frequencies --    275.0317               331.3995               368.5822
 Red. masses --      2.6167                 2.2316                 3.0866
 Frc consts  --      0.1166                 0.1444                 0.2471
 IR Inten    --      5.0858                 7.7539                 9.1647

                     10                     11                     12
                      A                      A                      A
 Frequencies --    386.4640               402.5510               447.4014
 Red. masses --      1.3010                 3.3967                 5.6604
 Frc consts  --      0.1145                 0.3243                 0.6676
 IR Inten    --     86.0989                10.9792                19.3314

                     13                     14                     15
                      A                      A                      A
 Frequencies --    495.1133               536.5231               587.6765
 Red. masses --      3.3886                 4.4843                 5.7683
 Frc consts  --      0.4894                 0.7605                 1.1737
 IR Inten    --     22.6758                 3.9305                 7.8017

                     16                     17                     18
                      A                      A                      A
 Frequencies --    625.7499               656.4632               670.9971
 Red. masses --      1.2437                 3.9621                 1.2531
 Frc consts  --      0.2869                 1.0060                 0.3324
 IR Inten    --     45.0041                 3.5202                35.8229

                     19                     20                     21
                      A                      A                      A
 Frequencies --    778.7639               823.4921               908.3354
 Red. masses --      1.0647                 2.6681                 1.5048
 Frc consts  --      0.3804                 1.0660                 0.7315
 IR Inten    --      1.8502                14.4255                 2.7282

                     22                     23                     24
                      A                      A                      A
 Frequencies --    922.1274               944.7109               963.0875
 Red. masses --      1.9418                 1.8353                 2.9513
 Frc consts  --      0.9728                 0.9651                 1.6128
 IR Inten    --      2.2107                25.3304                 7.4650

                     25                     26                     27
                      A                      A                      A
 Frequencies --    996.2506              1052.1500              1083.6491
 Red. masses --      2.5967                 1.4105                 1.4313
 Frc consts  --      1.5185                 0.9200                 0.9903
 IR Inten    --     11.8912                21.7364                 3.0637

                     28                     29                     30
                      A                      A                      A
 Frequencies --   1091.4404              1131.8885              1185.5629
 Red. masses --      1.6793                 4.8730                 2.1843
 Frc consts  --      1.1787                 3.6784                 1.8089
 IR Inten    --     33.9983                79.6711                35.3887

                     31                     32                     33
                      A                      A                      A
 Frequencies --   1197.7212              1259.1825              1283.4127
 Red. masses --      1.4941                 1.8167                 2.5954
 Frc consts  --      1.2628                 1.6971                 2.5188
 IR Inten    --      9.4729                69.6004                55.0344

                     34                     35                     36
                      A                      A                      A
 Frequencies --   1352.0079              1394.5774              1407.9193
 Red. masses --      1.5422                 1.2633                 1.5461
 Frc consts  --      1.6609                 1.4476                 1.8057
 IR Inten    --     19.1002                11.5284                32.5589

                     37                     38                     39
                      A                      A                      A
 Frequencies --   1441.6314              1481.9843              1491.2555
 Red. masses --      1.0944                 1.0555                 1.1423
 Frc consts  --      1.3401                 1.3658                 1.4968
 IR Inten    --      3.5592                 3.6620                 2.7876

                     40                     41                     42
                      A                      A                      A
 Frequencies --   1499.5716              2221.8317              3045.5302
 Red. masses --      1.5251                 5.9045                 1.0355
 Frc consts  --      2.0206                17.1735                 5.6590
 IR Inten    --     12.1101                 0.4883                16.5574

                     43                     44                     45
                      A                      A                      A
 Frequencies --   3120.6488              3144.1380              3145.3933
 Red. masses --      1.1013                 1.0523                 1.0999
 Frc consts  --      6.3188                 6.1288                 6.4111
 IR Inten    --     19.5327                 9.5028                10.1437

                     46                     47                     48
                      A                      A                      A
 Frequencies --   3146.4262              3234.1570              3246.6789
 Red. masses --      1.0571                 1.1185                 1.1162
 Frc consts  --      6.1657                 6.8927                 6.9320
 IR Inten    --      4.6101                 0.0360                 5.9185

                     49                     50                     51
                      A                      A                      A
 Frequencies --   3497.5621              3770.4270              3820.7516
 Red. masses --      1.1618                 1.0655                 1.0665
 Frc consts  --      8.3735                 8.9242                 9.1729
 IR Inten    --     66.3473                19.0980                26.5538

 - Thermochemistry -
 -------------------
 Temperature   298.150 Kelvin.  Pressure   1.00000 Atm.
 Atom     1 has atomic number  6 and mass  12.00000

 Molecular mass:   126.06808 amu.
 Principal axes and moments of inertia in atomic units:
                           1         2         3
     Eigenvalues --   806.133381253.522361377.98153
           X            0.99974   0.00216  -0.02276
           Y            0.00161   0.98641   0.16429
           Z            0.02280  -0.16428   0.98615
 This molecule is an asymmetric top.
 Rotational symmetry number  1.
 Warning -- assumption of classical behavior for rotation
           may cause significant error
 Rotational temperatures (Kelvin)      0.10744     0.06910     0.06286
 Rotational constants (GHZ):           2.23876     1.43974     1.30970
 Zero-point vibrational energy     406473.5 (Joules/Mol)
                                   97.14950 (Kcal/Mol)
 Warning -- explicit consideration of  15 degrees of freedom as
           vibrations may cause significant error
 Vibrational temperatures:    110.78   179.67   266.84   325.11   335.56
          (Kelvin)            348.64   395.71   476.81   530.31   556.03
                              579.18   643.71   712.36   771.94   845.53
                              900.31   944.50   965.41  1120.47  1184.82
                             1306.89  1326.73  1359.23  1385.67  1433.38
                             1513.81  1559.13  1570.34  1628.53  1705.76
                             1723.25  1811.68  1846.54  1945.24  2006.48
                             2025.68  2074.18  2132.24  2145.58  2157.55
                             3196.72  4381.83  4489.91  4523.71  4525.51
                             4527.00  4653.22  4671.24  5032.21  5424.80
                             5497.20

 Zero-point correction=                           0.154818 (Hartree/Particle)
 Thermal correction to Energy=                    0.164892
 Thermal correction to Enthalpy=                  0.165836
 Thermal correction to Gibbs Free Energy=         0.120717
 Sum of electronic and zero-point Energies=           -422.973029
 Sum of electronic and thermal Energies=              -422.962954
 Sum of electronic and thermal Enthalpies=            -422.962010
 Sum of electronic and thermal Free Energies=         -423.007129

                     E (Thermal)             CV                S
                      KCal/Mol        Cal/Mol-Kelvin    Cal/Mol-Kelvin
 Total                  103.471             38.618             94.961
 Electronic               0.000              0.000              0.000
 Translational            0.889              2.981             40.409
 Rotational               0.889              2.981             28.723
 Vibrational            101.694             32.657             25.830
 Vibration     1          0.599              1.965              3.966
 Vibration     2          0.610              1.928              3.023
 Vibration     3          0.632              1.860              2.273
 Vibration     4          0.650              1.801              1.911
 Vibration     5          0.654              1.790              1.854
 Vibration     6          0.659              1.775              1.786
 Vibration     7          0.677              1.720              1.564
 Vibration     8          0.714              1.613              1.253
 Vibration     9          0.741              1.537              1.086
 Vibration    10          0.755              1.499              1.014
 Vibration    11          0.768              1.465              0.953
 Vibration    12          0.807              1.367              0.804
 Vibration    13          0.851              1.261              0.670
 Vibration    14          0.892              1.169              0.573
 Vibration    15          0.945              1.058              0.471

 Optimization completed.
    -- Stationary point found.
 Normal termination of Gaussian 09 at Mon Jan 27 15:03:14 2020.
