 Gaussian 09, Revision D.01,
 Gaussian 09:  ES64L-G09RevD.01 24-Apr-2013

 -----------------------------
 # b3lyp 6-31G(2df,p) opt Freq
 -----------------------------

 -----
 titel
 -----
 Symbolic Z-matrix:
 Charge =  0 Multiplicity = 1

 SCF Done:  E(RB3LYP) =  -423.144908941     A.U. after   13 cycles
 SCF Done:  E(RB3LYP) =  -423.144909619     A.U. after    7 cycles
 SCF Done:  E(RB3LYP) =  -423.144909880     A.U. after    6 cycles
 SCF Done:  E(RB3LYP) =  -423.144909971     A.U. after    6 cycles
 Optimization completed.
    -- Stationary point found.
 Normal termination of Gaussian 09 at Mon Jan 27 12:27:19 2020.

 ----------------------------------------------------------------------
 #N Geom=AllCheck Guess=TCheck SCRF=Check GenChk RB3LYP/6-31G(2df,p) Fr
 eq
 ----------------------------------------------------------------------

 Structure from the checkpoint file:  "/scratch/puck/g09_fad29e39-2163-412e-a942-22c464d5f511/Gau-45082.chk"
 -----
 titel
 -----
 Charge =  0 Multiplicity = 1

                         Standard orientation:
 ---------------------------------------------------------------------
 Center     Atomic      Atomic             Coordinates (Angstroms)
 Number     Number       Type             X           Y           Z
 ---------------------------------------------------------------------
      1          6           0       -2.599443   -0.584895    0.031307
      2          6           0       -1.176013   -1.108866   -0.335907
      3          6           0       -0.634533    0.287927   -0.029307
      4          6           0       -2.048276    0.873111    0.087876
      5          6           0        0.610977    0.939865   -0.569940
      6          8           0        1.558613    0.051499   -1.128329
      7          6           0        2.306988   -0.435594   -0.028498
      8          8           0        1.435392   -0.468592    1.089494
      9          6           0        0.528203    0.593760    0.885151
     10          1           0       -3.385404   -0.770484   -0.703346
     11          1           0       -2.944496   -0.943407    1.003594
     12          1           0       -0.774975   -1.914454    0.282561
     13          1           0       -1.067282   -1.387884   -1.387298
     14          1           0       -2.265734    1.442371    0.996272
     15          1           0       -2.335575    1.479568   -0.776821
     16          1           0        0.620682    1.948645   -0.971815
     17          1           0        2.647596   -1.450993   -0.247825
     18          1           0        3.165295    0.227629    0.176082
     19          1           0        0.460437    1.313911    1.695189
 ---------------------------------------------------------------------

 SCF Done:  E(RB3LYP) =  -423.144909971     A.U. after    1 cycles

 The electronic state is 1-A.
 Alpha  occ. eigenvalues --  -19.15129 -19.15069 -10.27621 -10.23464 -10.23368
 Alpha  occ. eigenvalues --  -10.19366 -10.18520 -10.18213 -10.17807  -1.09385
 Alpha  occ. eigenvalues --   -0.99633  -0.86723  -0.79626  -0.67162  -0.66024
 Alpha  occ. eigenvalues --   -0.61061  -0.60783  -0.54452  -0.50943  -0.49630
 Alpha  occ. eigenvalues --   -0.47215  -0.45639  -0.45512  -0.42580  -0.38658
 Alpha  occ. eigenvalues --   -0.37471  -0.35792  -0.34840  -0.34770  -0.32173
 Alpha  occ. eigenvalues --   -0.30963  -0.29698  -0.24332  -0.23951
 Alpha virt. eigenvalues --    0.08367   0.08932   0.10048   0.11232   0.12406
 Alpha virt. eigenvalues --    0.13023   0.14512   0.15860   0.16764   0.17457
 Alpha virt. eigenvalues --    0.18836   0.19130   0.19919   0.20275   0.20681

 Mulliken charges:
               1
     1  C   -0.203938
     2  C   -0.287847
     3  C    0.322494
     4  C   -0.318527
     5  C   -0.046901
     6  O   -0.253189
     7  C    0.026842
     8  O   -0.251656
     9  C   -0.033630
    10  H    0.101492
    11  H    0.107162
    12  H    0.112719
    13  H    0.109549
    14  H    0.101128
    15  H    0.104411
    16  H    0.098706
    17  H    0.121506
    18  H    0.089621
    19  H    0.100058
 Sum of Mulliken charges =   0.00000

 Dipole moment (field-independent basis, Debye):
    X=             -0.5034    Y=              0.9264    Z=              0.2289  Tot=              1.0789
 Quadrupole moment (field-independent basis, Debye-Ang):
   XX=            -50.8168   YY=            -50.9661   ZZ=            -55.8226
   XY=             -0.2518   XZ=              0.3842   YZ=              1.1881

  Exact polarizability:  91.574  -1.624  70.727   0.348   1.439  63.781
 Approx polarizability: 114.517  -3.455 102.488   0.188   0.009 102.423

                      1                      2                      3
                      A                      A                      A
 Frequencies --     60.3509               137.6798               169.1822
 Red. masses --      2.0766                 2.9672                 3.1696
 Frc consts  --      0.0045                 0.0331                 0.0535
 IR Inten    --      0.0814                 0.4916                 0.7286

                      4                      5                      6
                      A                      A                      A
 Frequencies --    248.0672               250.8696               408.9388
 Red. masses --      2.8425                 2.9624                 3.9112
 Frc consts  --      0.1031                 0.1098                 0.3854
 IR Inten    --      4.9070                 5.4086                 0.3667

                      7                      8                      9
                      A                      A                      A
 Frequencies --    461.3567               633.1496               719.2109
 Red. masses --      2.7838                 4.1037                 1.6280
 Frc consts  --      0.3491                 0.9693                 0.4961
 IR Inten    --      0.7672                 3.6165                 3.4382

                     10                     11                     12
                      A                      A                      A
 Frequencies --    735.2696               751.6507               783.4750
 Red. masses --      3.6610                 4.3206                 1.3562
 Frc consts  --      1.1661                 1.4382                 0.4905
 IR Inten    --      0.1306                 6.7045                 1.7258

                     13                     14                     15
                      A                      A                      A
 Frequencies --    839.3749               855.8144               870.3824
 Red. masses --      1.8798                 2.4651                 1.7261
 Frc consts  --      0.7803                 1.0638                 0.7704
 IR Inten    --      4.3260                 0.0806                 5.2753

                     16                     17                     18
                      A                      A                      A
 Frequencies --    937.2892               952.3906               955.7775
 Red. masses --      2.6761                 3.0701                 3.3962
 Frc consts  --      1.3852                 1.6407                 1.8279
 IR Inten    --      2.1737                13.2259                61.5106

                     19                     20                     21
                      A                      A                      A
 Frequencies --   1011.5878              1041.7109              1050.6209
 Red. masses --      5.1053                 2.1407                 3.0743
 Frc consts  --      3.0781                 1.3687                 1.9994
 IR Inten    --      5.7258                 5.9705                41.1735

                     22                     23                     24
                      A                      A                      A
 Frequencies --   1079.9589              1085.7321              1114.6497
 Red. masses --      1.7849                 1.4268                 3.7994
 Frc consts  --      1.2265                 0.9909                 2.7812
 IR Inten    --      3.8370                 0.1940               126.7292

                     25                     26                     27
                      A                      A                      A
 Frequencies --   1140.0992              1162.5473              1184.5158
 Red. masses --      2.4416                 2.8967                 2.0465
 Frc consts  --      1.8699                 2.3066                 1.6918
 IR Inten    --      2.9025                40.7881                35.1063

                     28                     29                     30
                      A                      A                      A
 Frequencies --   1216.0899              1223.1215              1227.7590
 Red. masses --      1.2751                 1.1392                 1.3335
 Frc consts  --      1.1110                 1.0041                 1.1843
 IR Inten    --      0.8890                 0.7338                 2.0291

                     31                     32                     33
                      A                      A                      A
 Frequencies --   1246.9059              1254.2093              1277.3365
 Red. masses --      1.2245                 1.3059                 1.5353
 Frc consts  --      1.1217                 1.2103                 1.4759
 IR Inten    --      0.1573                 0.0289                 0.2224

                     34                     35                     36
                      A                      A                      A
 Frequencies --   1281.7699              1308.5215              1416.2498
 Red. masses --      1.2307                 1.7292                 4.1446
 Frc consts  --      1.1913                 1.7444                 4.8980
 IR Inten    --      2.5786                 3.3176                34.2385

                     37                     38                     39
                      A                      A                      A
 Frequencies --   1421.5374              1477.5243              1481.4698
 Red. masses --      1.2566                 1.0862                 1.0867
 Frc consts  --      1.4962                 1.3970                 1.4053
 IR Inten    --      4.4513                 0.8432                 0.5131

                     40                     41                     42
                      A                      A                      A
 Frequencies --   1504.4306              1536.4278              2953.0527
 Red. masses --      1.1384                 1.1065                 1.0696
 Frc consts  --      1.5181                 1.5389                 5.4953
 IR Inten    --      0.8668                 2.6620               131.2449

                     43                     44                     45
                      A                      A                      A
 Frequencies --   3044.7316              3063.9336              3071.0057
 Red. masses --      1.0576                 1.0579                 1.0613
 Frc consts  --      5.7763                 5.8513                 5.8971
 IR Inten    --     44.4108                19.8453                46.5912

                     46                     47                     48
                      A                      A                      A
 Frequencies --   3089.3224              3096.7580              3110.7290
 Red. masses --      1.1071                 1.0957                 1.1072
 Frc consts  --      6.2252                 6.1907                 6.3126
 IR Inten    --     15.0771                39.4610                 3.9219

                     49                     50                     51
                      A                      A                      A
 Frequencies --   3128.2341              3145.8973              3155.5956
 Red. masses --      1.1079                 1.0882                 1.0945
 Frc consts  --      6.3876                 6.3452                 6.4214
 IR Inten    --     42.7273                14.4846                25.1779

 - Thermochemistry -
 -------------------
 Temperature   298.150 Kelvin.  Pressure   1.00000 Atm.
 Atom     1 has atomic number  6 and mass  12.00000

 Molecular mass:   126.06808 amu.
 Principal axes and moments of inertia in atomic units:
                           1         2         3
     Eigenvalues --   471.558501461.119961485.70424
           X            1.00000   0.00075   0.00140
           Y           -0.00114   0.95329   0.30205
           Z           -0.00111  -0.30205   0.95329
 This molecule is an asymmetric top.
 Rotational symmetry number  1.
 Warning -- assumption of classical behavior for rotation
           may cause significant error
 Rotational temperatures (Kelvin)      0.18368     0.05928     0.05830
 Rotational constants (GHZ):           3.82718     1.23518     1.21474
 Zero-point vibrational energy     420931.6 (Joules/Mol)
                                  100.60506 (Kcal/Mol)
 Warning -- explicit consideration of   7 degrees of freedom as
           vibrations may cause significant error
 Vibrational temperatures:     86.83   198.09   243.42   356.91   360.94
          (Kelvin)            588.37   663.79   910.96  1034.78  1057.89
                             1081.46  1127.24  1207.67  1231.32  1252.28
                             1348.55  1370.28  1375.15  1455.45  1498.79
                             1511.61  1553.82  1562.12  1603.73  1640.35
                             1672.64  1704.25  1749.68  1759.80  1766.47
                             1794.02  1804.53  1837.80  1844.18  1882.67
                             2037.67  2045.27  2125.83  2131.50  2164.54
                             2210.57  4248.78  4380.68  4408.31  4418.49
                             4444.84  4455.54  4475.64  4500.83  4526.24
                             4540.19

 Zero-point correction=                           0.160324 (Hartree/Particle)
 Thermal correction to Energy=                    0.168000
 Thermal correction to Enthalpy=                  0.168945
 Thermal correction to Gibbs Free Energy=         0.127652
 Sum of electronic and zero-point Energies=           -422.984586
 Sum of electronic and thermal Energies=              -422.976910
 Sum of electronic and thermal Enthalpies=            -422.975965
 Sum of electronic and thermal Free Energies=         -423.017258

                     E (Thermal)             CV                S
                      KCal/Mol        Cal/Mol-Kelvin    Cal/Mol-Kelvin
 Total                  105.422             29.436             86.907
 Electronic               0.000              0.000              0.000
 Translational            0.889              2.981             40.409
 Rotational               0.889              2.981             28.417
 Vibrational            103.644             23.474             18.081
 Vibration     1          0.597              1.973              4.446
 Vibration     2          0.614              1.916              2.836
 Vibration     3          0.625              1.880              2.445
 Vibration     4          0.662              1.766              1.744
 Vibration     5          0.663              1.761              1.724
 Vibration     6          0.773              1.451              0.930
 Vibration     7          0.819              1.336              0.762

 Normal termination of Gaussian 09 at Mon Jan 27 13:09:59 2020.
