 Gaussian 09, Revision D.01,
 Gaussian 09:  ES64L-G09RevD.01 24-Apr-2013

 -----------------------------
 # b3lyp 6-31G(2df,p) opt Freq
 -----------------------------

 -----
 titel
 -----
 Symbolic Z-matrix:
 Charge =  0 Multiplicity = 1

 SCF Done:  E(RB3LYP) =  -423.181187650     A.U. after   14 cycles
 Optimization completed.
    -- Stationary point found.
 Normal termination of Gaussian 09 at Tue Jan 28 12:01:48 2020.

 ----------------------------------------------------------------------
 #N Geom=AllCheck Guess=TCheck SCRF=Check GenChk RB3LYP/6-31G(2df,p) Fr
 eq
 ----------------------------------------------------------------------

 Structure from the checkpoint file:  "/scratch/puck/g09_6aa14702-c1c8-43c8-8a98-9f1aeac5a22f/Gau-113134.chk"
 -----
 titel
 -----
 Charge =  0 Multiplicity = 1

                         Standard orientation:
 ---------------------------------------------------------------------
 Center     Atomic      Atomic             Coordinates (Angstroms)
 Number     Number       Type             X           Y           Z
 ---------------------------------------------------------------------
      1          8           0       -2.949932   -0.472071    0.192249
      2          6           0       -2.128257    0.647527   -0.044482
      3          6           0       -0.662190    0.346652    0.272157
      4          8           0       -0.328461   -0.790519   -0.536637
      5          6           0        0.685105   -1.628205   -0.031022
      6          6           0        2.039671   -1.009643    0.157342
      7          6           0        2.400733    0.279947    0.084919
      8          6           0        1.561994    1.459502   -0.106423
      9          6           0        0.228368    1.525635   -0.010018
     10          1           0       -2.515543   -1.203752   -0.263529
     11          1           0       -2.197383    0.992608   -1.089583
     12          1           0       -2.482414    1.458592    0.600342
     13          1           0       -0.588117    0.055686    1.332597
     14          1           0        0.370793   -2.104427    0.915864
     15          1           0        0.770534   -2.441030   -0.764894
     16          1           0        2.818379   -1.744824    0.355506
     17          1           0        3.460440    0.494988    0.204258
     18          1           0        2.102515    2.380702   -0.311148
     19          1           0       -0.264604    2.483691   -0.159137
 ---------------------------------------------------------------------

 SCF Done:  E(RB3LYP) =  -423.181187650     A.U. after    1 cycles

 The electronic state is 1-A.
 Alpha  occ. eigenvalues --  -19.14979 -19.12697 -10.24126 -10.23651 -10.22433
 Alpha  occ. eigenvalues --  -10.19337 -10.19052 -10.18997 -10.18636  -1.04507
 Alpha  occ. eigenvalues --   -1.00773  -0.81201  -0.79335  -0.71433  -0.68578
 Alpha  occ. eigenvalues --   -0.63226  -0.56885  -0.53636  -0.52100  -0.49646
 Alpha  occ. eigenvalues --   -0.46442  -0.46260  -0.44574  -0.43045  -0.41158
 Alpha  occ. eigenvalues --   -0.38398  -0.37214  -0.36532  -0.33645  -0.32340
 Alpha  occ. eigenvalues --   -0.30271  -0.27060  -0.26055  -0.22529
 Alpha virt. eigenvalues --   -0.03459   0.07499   0.08425   0.10198   0.11633
 Alpha virt. eigenvalues --    0.12388   0.14039   0.14674   0.15306   0.16871
 Alpha virt. eigenvalues --    0.17950   0.18253   0.20050   0.22253   0.23219

 Mulliken charges:
               1
     1  O   -0.427746
     2  C   -0.066186
     3  C    0.024265
     4  O   -0.265595
     5  C   -0.139037
     6  C   -0.077994
     7  C   -0.075523
     8  C   -0.081541
     9  C   -0.072619
    10  H    0.285764
    11  H    0.095147
    12  H    0.109194
    13  H    0.091202
    14  H    0.105149
    15  H    0.123108
    16  H    0.096291
    17  H    0.090422
    18  H    0.093294
    19  H    0.092403
 Sum of Mulliken charges =   0.00000

 Dipole moment (field-independent basis, Debye):
    X=              2.0264    Y=             -0.0996    Z=              0.2021  Tot=              2.0389
 Quadrupole moment (field-independent basis, Debye-Ang):
   XX=            -57.8707   YY=            -47.0247   ZZ=            -55.3232
   XY=             -2.1293   XZ=              1.6477   YZ=             -0.0034

  Exact polarizability:  96.951  -4.864  94.490  -0.114  -2.584  51.093
 Approx polarizability: 136.455  -9.505 148.512  -1.278  -3.624  82.272

                      1                      2                      3
                      A                      A                      A
 Frequencies --     52.2765               131.6495               180.0811
 Red. masses --      3.5614                 3.0453                 3.3869
 Frc consts  --      0.0057                 0.0311                 0.0647
 IR Inten    --      0.4313                 4.4769                 1.1639

                      4                      5                      6
                      A                      A                      A
 Frequencies --    269.6240               284.6042               342.9806
 Red. masses --      3.2134                 2.5220                 4.8585
 Frc consts  --      0.1376                 0.1204                 0.3367
 IR Inten    --     12.8543                 0.8666                 2.1883

                      7                      8                      9
                      A                      A                      A
 Frequencies --    391.9863               446.7523               454.2102
 Red. masses --      4.6093                 1.5673                 2.3395
 Frc consts  --      0.4173                 0.1843                 0.2844
 IR Inten    --      2.0166                66.2156                 5.7977

                     10                     11                     12
                      A                      A                      A
 Frequencies --    488.5534               559.6266               671.9543
 Red. masses --      2.1803                 2.2541                 1.6600
 Frc consts  --      0.3066                 0.4159                 0.4416
 IR Inten    --     59.9676                 7.7452                24.3007

                     13                     14                     15
                      A                      A                      A
 Frequencies --    728.0455               776.1402               814.3314
 Red. masses --      3.4218                 1.7926                 1.9467
 Frc consts  --      1.0686                 0.6362                 0.7606
 IR Inten    --     21.3513                 3.9516                11.8351

                     16                     17                     18
                      A                      A                      A
 Frequencies --    871.9401               892.6113               960.7287
 Red. masses --      2.9322                 5.1650                 2.7786
 Frc consts  --      1.3135                 2.4246                 1.5110
 IR Inten    --      6.0727                 3.5675                 4.5855

                     19                     20                     21
                      A                      A                      A
 Frequencies --    989.8151              1008.4523              1010.3823
 Red. masses --      1.2648                 1.9782                 1.2819
 Frc consts  --      0.7301                 1.1853                 0.7711
 IR Inten    --      1.8416                14.1482                 1.3046

                     22                     23                     24
                      A                      A                      A
 Frequencies --   1031.5473              1082.4534              1096.6723
 Red. masses --      2.0190                 2.3665                 4.4476
 Frc consts  --      1.2658                 1.6337                 3.1516
 IR Inten    --     11.6845                29.4491                88.7383

                     25                     26                     27
                      A                      A                      A
 Frequencies --   1103.8129              1157.3708              1226.9836
 Red. masses --      2.5189                 4.3950                 1.2286
 Frc consts  --      1.8082                 3.4686                 1.0898
 IR Inten    --      8.1786                86.1655                15.7093

                     28                     29                     30
                      A                      A                      A
 Frequencies --   1245.3564              1259.8819              1281.0125
 Red. masses --      1.1370                 1.1446                 1.2003
 Frc consts  --      1.0389                 1.0705                 1.1605
 IR Inten    --      2.0446                 7.8192                 7.8949

                     31                     32                     33
                      A                      A                      A
 Frequencies --   1286.7149              1366.9879              1386.5800
 Red. masses --      1.1844                 1.2535                 1.2135
 Frc consts  --      1.1554                 1.3801                 1.3746
 IR Inten    --      4.3236                 4.6193                13.3928

                     34                     35                     36
                      A                      A                      A
 Frequencies --   1406.0178              1421.0045              1437.6708
 Red. masses --      1.3242                 1.4188                 1.3145
 Frc consts  --      1.5423                 1.6879                 1.6008
 IR Inten    --     18.5251                 0.1437                59.6589

                     37                     38                     39
                      A                      A                      A
 Frequencies --   1456.6548              1475.5473              1499.8212
 Red. masses --      1.6186                 1.0910                 1.0927
 Frc consts  --      2.0235                 1.3996                 1.4482
 IR Inten    --      2.9487                 2.7310                 0.8236

                     40                     41                     42
                      A                      A                      A
 Frequencies --   1682.4068              1715.9185              2935.4963
 Red. masses --      8.6030                 5.7833                 1.0726
 Frc consts  --     14.3471                10.0328                 5.4458
 IR Inten    --      2.4940                 2.4162                48.2379

                     43                     44                     45
                      A                      A                      A
 Frequencies --   2966.0020              2979.7286              3033.0157
 Red. masses --      1.0742                 1.0765                 1.0861
 Frc consts  --      5.5680                 5.6317                 5.8868
 IR Inten    --      7.2715                71.8329                22.4613

                     46                     47                     48
                      A                      A                      A
 Frequencies --   3077.6423              3131.0858              3141.7139
 Red. masses --      1.0926                 1.0823                 1.0838
 Frc consts  --      6.0975                 6.2517                 6.3029
 IR Inten    --     26.7287                 1.7355                 3.8431

                     49                     50                     51
                      A                      A                      A
 Frequencies --   3154.2161              3167.8129              3781.7837
 Red. masses --      1.0924                 1.0951                 1.0648
 Frc consts  --      6.4037                 6.4748                 8.9726
 IR Inten    --     35.1771                26.7627                27.4339

 - Thermochemistry -
 -------------------
 Temperature   298.150 Kelvin.  Pressure   1.00000 Atm.
 Atom     1 has atomic number  8 and mass  15.99491

 Molecular mass:   126.06808 amu.
 Principal axes and moments of inertia in atomic units:
                           1         2         3
     Eigenvalues --   573.255891464.546351953.81091
           X            0.99984  -0.01707   0.00433
           Y            0.01712   0.99979  -0.01118
           Z           -0.00413   0.01125   0.99993
 This molecule is an asymmetric top.
 Rotational symmetry number  1.
 Warning -- assumption of classical behavior for rotation
           may cause significant error
 Rotational temperatures (Kelvin)      0.15109     0.05914     0.04433
 Rotational constants (GHZ):           3.14823     1.23229     0.92370
 Zero-point vibrational energy     420581.0 (Joules/Mol)
                                  100.52128 (Kcal/Mol)
 Warning -- explicit consideration of  11 degrees of freedom as
           vibrations may cause significant error
 Vibrational temperatures:     75.21   189.41   259.10   387.93   409.48
          (Kelvin)            493.47   563.98   642.78   653.51   702.92
                              805.18   966.79  1047.49  1116.69  1171.64
                             1254.53  1284.27  1382.27  1424.12  1450.94
                             1453.71  1484.16  1557.41  1577.86  1588.14
                             1665.20  1765.35  1791.79  1812.69  1843.09
                             1851.29  1966.79  1994.98  2022.94  2044.51
                             2068.48  2095.80  2122.98  2157.91  2420.61
                             2468.82  4223.52  4267.41  4287.16  4363.83
                             4428.04  4504.93  4520.22  4538.21  4557.77
                             5441.14

 Zero-point correction=                           0.160191 (Hartree/Particle)
 Thermal correction to Energy=                    0.168557
 Thermal correction to Enthalpy=                  0.169501
 Thermal correction to Gibbs Free Energy=         0.126873
 Sum of electronic and zero-point Energies=           -423.020997
 Sum of electronic and thermal Energies=              -423.012630
 Sum of electronic and thermal Enthalpies=            -423.011686
 Sum of electronic and thermal Free Energies=         -423.054314

                     E (Thermal)             CV                S
                      KCal/Mol        Cal/Mol-Kelvin    Cal/Mol-Kelvin
 Total                  105.771             32.044             89.718
 Electronic               0.000              0.000              0.000
 Translational            0.889              2.981             40.409
 Rotational               0.889              2.981             28.885
 Vibrational            103.994             26.083             20.424
 Vibration     1          0.596              1.977              4.729
 Vibration     2          0.612              1.922              2.922
 Vibration     3          0.629              1.867              2.328
 Vibration     4          0.674              1.729              1.599
 Vibration     5          0.683              1.702              1.506
 Vibration     6          0.722              1.590              1.198
 Vibration     7          0.759              1.487              0.993
 Vibration     8          0.806              1.368              0.806
 Vibration     9          0.813              1.352              0.783
 Vibration    10          0.844              1.275              0.687
 Vibration    11          0.915              1.119              0.525

 Optimization completed.
    -- Stationary point found.
 Normal termination of Gaussian 09 at Tue Jan 28 12:42:26 2020.
