 Gaussian 09, Revision D.01,
 Gaussian 09:  ES64L-G09RevD.01 24-Apr-2013

 -----------------------------
 # b3lyp 6-31G(2df,p) opt Freq
 -----------------------------

 -----
 titel
 -----
 Symbolic Z-matrix:
 Charge =  0 Multiplicity = 1

 SCF Done:  E(RB3LYP) =  -423.123862390     A.U. after   14 cycles
 Optimization completed.
    -- Stationary point found.
 Normal termination of Gaussian 09 at Mon Jan 27 23:06:16 2020.

 ----------------------------------------------------------------------
 #N Geom=AllCheck Guess=TCheck SCRF=Check GenChk RB3LYP/6-31G(2df,p) Fr
 eq
 ----------------------------------------------------------------------

 Structure from the checkpoint file:  "/scratch/puck/g09_6b497ef7-a2c9-4f0b-8f51-ad9abda4eee3/Gau-76425.chk"
 -----
 titel
 -----
 Charge =  0 Multiplicity = 1

                         Standard orientation:
 ---------------------------------------------------------------------
 Center     Atomic      Atomic             Coordinates (Angstroms)
 Number     Number       Type             X           Y           Z
 ---------------------------------------------------------------------
      1          8           0        1.561585    1.811070   -0.320347
      2          6           0        0.936729    0.813454    0.434789
      3          6           0        1.761953   -0.456568    0.706807
      4          8           0        2.031580   -1.009131   -0.593971
      5          6           0        0.766932   -1.298852    0.024799
      6          6           0       -0.157249   -0.105403   -0.263633
      7          6           0       -1.493682   -0.133074    0.428123
      8          6           0       -2.591022    0.807919   -0.003643
      9          6           0       -2.714100   -0.669776   -0.281103
     10          1           0        2.020671    1.351996   -1.035709
     11          1           0        0.542605    1.283076    1.339916
     12          1           0        2.476339   -0.676688    1.492106
     13          1           0        0.516606   -2.342586    0.175291
     14          1           0       -0.275554    0.100017   -1.332846
     15          1           0       -1.441160   -0.339685    1.495142
     16          1           0       -3.225665    1.243856    0.759597
     17          1           0       -2.387605    1.466702   -0.841247
     18          1           0       -3.433145   -1.244428    0.292183
     19          1           0       -2.595776   -1.003972   -1.306723
 ---------------------------------------------------------------------

 SCF Done:  E(RB3LYP) =  -423.123862390     A.U. after    1 cycles

 The electronic state is 1-A.
 Alpha  occ. eigenvalues --  -19.15903 -19.13569 -10.24038 -10.23677 -10.23592
 Alpha  occ. eigenvalues --  -10.19666 -10.19409 -10.18796 -10.18726  -1.08397
 Alpha  occ. eigenvalues --   -1.01794  -0.86326  -0.79035  -0.67503  -0.63341
 Alpha  occ. eigenvalues --   -0.60105  -0.59358  -0.57188  -0.53484  -0.48953
 Alpha  occ. eigenvalues --   -0.46975  -0.46819  -0.44035  -0.41533  -0.39833
 Alpha  occ. eigenvalues --   -0.38427  -0.36660  -0.35278  -0.32895  -0.31328
 Alpha  occ. eigenvalues --   -0.30501  -0.28628  -0.27183  -0.24200
 Alpha virt. eigenvalues --    0.07653   0.09248   0.09310   0.10449   0.11639
 Alpha virt. eigenvalues --    0.12968   0.13677   0.14114   0.15106   0.16191
 Alpha virt. eigenvalues --    0.16472   0.17872   0.19235   0.21055   0.22362

 Mulliken charges:
               1
     1  O   -0.436953
     2  C    0.114034
     3  C   -0.026226
     4  O   -0.266812
     5  C    0.018695
     6  C   -0.080474
     7  C    0.018058
     8  C   -0.270430
     9  C   -0.278353
    10  H    0.288537
    11  H    0.093338
    12  H    0.104798
    13  H    0.108192
    14  H    0.075236
    15  H    0.079296
    16  H    0.113093
    17  H    0.119426
    18  H    0.112622
    19  H    0.113921
 Sum of Mulliken charges =   0.00000

 Dipole moment (field-independent basis, Debye):
    X=             -1.2734    Y=             -1.1610    Z=              1.0117  Tot=              1.9982
 Quadrupole moment (field-independent basis, Debye-Ang):
   XX=            -54.5741   YY=            -56.7049   ZZ=            -50.0628
   XY=             -0.1104   XZ=              0.9760   YZ=             -1.4863

  Exact polarizability:  87.281   0.649  72.852   2.113   0.740  65.074
 Approx polarizability: 113.793   2.631 108.818   0.414   3.613 104.175

                      1                      2                      3
                      A                      A                      A
 Frequencies --     73.2546               102.9031               162.9239
 Red. masses --      3.1909                 3.6163                 2.8269
 Frc consts  --      0.0101                 0.0226                 0.0442
 IR Inten    --      0.0971                 1.8065                 0.2953

                      4                      5                      6
                      A                      A                      A
 Frequencies --    211.9187               295.8322               342.0062
 Red. masses --      4.3564                 3.9688                 3.7355
 Frc consts  --      0.1153                 0.2046                 0.2574
 IR Inten    --      7.1011                 0.1622                 0.6441

                      7                      8                      9
                      A                      A                      A
 Frequencies --    434.1942               464.0340               491.9706
 Red. masses --      2.6901                 2.2073                 1.4525
 Frc consts  --      0.2988                 0.2800                 0.2071
 IR Inten    --      7.8769                 6.7509                77.1691

                     10                     11                     12
                      A                      A                      A
 Frequencies --    626.4115               741.3766               778.6402
 Red. masses --      4.1261                 4.3930                 1.1918
 Frc consts  --      0.9539                 1.4226                 0.4257
 IR Inten    --     13.9490                 4.7865                 0.1893

                     13                     14                     15
                      A                      A                      A
 Frequencies --    825.8341               830.6501               849.0152
 Red. masses --      1.3451                 2.5924                 1.9872
 Frc consts  --      0.5405                 1.0539                 0.8439
 IR Inten    --      7.7533                 4.4614                32.2586

                     16                     17                     18
                      A                      A                      A
 Frequencies --    890.0871               907.9225               913.2273
 Red. masses --      2.1368                 3.0679                 3.5380
 Frc consts  --      0.9974                 1.4900                 1.7385
 IR Inten    --      2.5465                19.9636                13.6424

                     19                     20                     21
                      A                      A                      A
 Frequencies --    944.8290               980.5786               998.6806
 Red. masses --      2.2793                 2.7944                 1.9929
 Frc consts  --      1.1988                 1.5831                 1.1711
 IR Inten    --      9.6460                 0.1655                 9.4038

                     22                     23                     24
                      A                      A                      A
 Frequencies --   1041.1989              1059.5796              1066.5946
 Red. masses --      1.9036                 1.2969                 1.6006
 Frc consts  --      1.2159                 0.8579                 1.0729
 IR Inten    --      3.9660                 2.8791                 4.3221

                     25                     26                     27
                      A                      A                      A
 Frequencies --   1081.6646              1113.1086              1138.6610
 Red. masses --      1.3599                 2.8897                 1.1234
 Frc consts  --      0.9375                 2.1095                 0.8582
 IR Inten    --      1.5451               122.4856                 0.2290

                     28                     29                     30
                      A                      A                      A
 Frequencies --   1170.4763              1181.7261              1200.8577
 Red. masses --      1.9109                 1.3422                 1.4060
 Frc consts  --      1.5424                 1.1044                 1.1945
 IR Inten    --     20.5510                16.8849                 1.8708

                     31                     32                     33
                      A                      A                      A
 Frequencies --   1216.3350              1225.3938              1231.3644
 Red. masses --      1.3907                 1.5265                 1.6651
 Frc consts  --      1.2122                 1.3505                 1.4876
 IR Inten    --      3.6462                 0.8665                 8.6108

                     34                     35                     36
                      A                      A                      A
 Frequencies --   1264.1253              1283.2883              1316.5200
 Red. masses --      1.4396                 1.6013                 1.6371
 Frc consts  --      1.3554                 1.5537                 1.6718
 IR Inten    --      3.8159                 5.0472                 7.5880

                     37                     38                     39
                      A                      A                      A
 Frequencies --   1378.3786              1428.9090              1438.4805
 Red. masses --      3.4543                 1.6978                 1.2710
 Frc consts  --      3.8667                 2.0425                 1.5495
 IR Inten    --     18.9678                 0.5456                77.3644

                     40                     41                     42
                      A                      A                      A
 Frequencies --   1471.5936              1507.4773              3053.8092
 Red. masses --      1.0868                 1.4023                 1.0853
 Frc consts  --      1.3866                 1.8776                 5.9632
 IR Inten    --      1.0613                 1.0688                15.2197

                     43                     44                     45
                      A                      A                      A
 Frequencies --   3085.7553              3124.7339              3130.8898
 Red. masses --      1.0867                 1.0850                 1.0518
 Frc consts  --      6.0963                 6.2420                 6.0748
 IR Inten    --     21.5305                19.0894                17.4631

                     46                     47                     48
                      A                      A                      A
 Frequencies --   3137.1582              3177.8884              3194.5822
 Red. masses --      1.0600                 1.0881                 1.1009
 Frc consts  --      6.1463                 6.4742                 6.6193
 IR Inten    --      8.9164                17.4478                18.1473

                     49                     50                     51
                      A                      A                      A
 Frequencies --   3209.6423              3224.9548              3770.0039
 Red. masses --      1.1178                 1.1156                 1.0650
 Frc consts  --      6.7849                 6.8360                 8.9187
 IR Inten    --      0.7828                19.3105                25.6284

 - Thermochemistry -
 -------------------
 Temperature   298.150 Kelvin.  Pressure   1.00000 Atm.
 Atom     1 has atomic number  8 and mass  15.99491

 Molecular mass:   126.06808 amu.
 Principal axes and moments of inertia in atomic units:
                           1         2         3
     Eigenvalues --   574.029581554.037551900.87212
           X            0.99998   0.00148   0.00668
           Y           -0.00141   0.99994  -0.01105
           Z           -0.00670   0.01104   0.99992
 This molecule is an asymmetric top.
 Rotational symmetry number  1.
 Warning -- assumption of classical behavior for rotation
           may cause significant error
 Rotational temperatures (Kelvin)      0.15089     0.05573     0.04557
 Rotational constants (GHZ):           3.14399     1.16132     0.94943
 Zero-point vibrational energy     417445.5 (Joules/Mol)
                                   99.77187 (Kcal/Mol)
 Warning -- explicit consideration of   9 degrees of freedom as
           vibrations may cause significant error
 Vibrational temperatures:    105.40   148.05   234.41   304.90   425.64
          (Kelvin)            492.07   624.71   667.64   707.84   901.27
                             1066.67  1120.29  1188.19  1195.12  1221.54
                             1280.64  1306.30  1313.93  1359.40  1410.83
                             1436.88  1498.05  1524.50  1534.59  1556.27
                             1601.51  1638.28  1684.05  1700.24  1727.76
                             1750.03  1763.07  1771.66  1818.79  1846.36
                             1894.18  1983.18  2055.88  2069.65  2117.29
                             2168.92  4393.74  4439.71  4495.79  4504.65
                             4513.67  4572.27  4596.29  4617.95  4639.98
                             5424.19

 Zero-point correction=                           0.158997 (Hartree/Particle)
 Thermal correction to Energy=                    0.167208
 Thermal correction to Enthalpy=                  0.168152
 Thermal correction to Gibbs Free Energy=         0.125759
 Sum of electronic and zero-point Energies=           -422.964866
 Sum of electronic and thermal Energies=              -422.956655
 Sum of electronic and thermal Enthalpies=            -422.955710
 Sum of electronic and thermal Free Energies=         -422.998103

                     E (Thermal)             CV                S
                      KCal/Mol        Cal/Mol-Kelvin    Cal/Mol-Kelvin
 Total                  104.924             31.667             89.223
 Electronic               0.000              0.000              0.000
 Translational            0.889              2.981             40.409
 Rotational               0.889              2.981             28.918
 Vibrational            103.147             25.705             19.896
 Vibration     1          0.599              1.967              4.064
 Vibration     2          0.605              1.947              3.399
 Vibration     3          0.623              1.888              2.516
 Vibration     4          0.643              1.823              2.027
 Vibration     5          0.690              1.682              1.440
 Vibration     6          0.721              1.592              1.203
 Vibration     7          0.795              1.396              0.845
 Vibration     8          0.822              1.330              0.754
 Vibration     9          0.848              1.268              0.679

 Normal termination of Gaussian 09 at Mon Jan 27 23:47:07 2020.
