 Gaussian 09, Revision D.01,
 Gaussian 09:  ES64L-G09RevD.01 24-Apr-2013

 -----------------------------
 # b3lyp 6-31G(2df,p) opt Freq
 -----------------------------

 -----
 titel
 -----
 Symbolic Z-matrix:
 Charge =  0 Multiplicity = 1

 SCF Done:  E(RB3LYP) =  -423.181225167     A.U. after   14 cycles
 Optimization completed.
    -- Stationary point found.
 Normal termination of Gaussian 09 at Tue Jan 28 14:06:02 2020.

 ----------------------------------------------------------------------
 #N Geom=AllCheck Guess=TCheck SCRF=Check GenChk RB3LYP/6-31G(2df,p) Fr
 eq
 ----------------------------------------------------------------------

 Structure from the checkpoint file:  "/scratch/puck/g09_84e34118-f616-4ad7-89a3-987ce8e3ee2a/Gau-122787.chk"
 -----
 titel
 -----
 Charge =  0 Multiplicity = 1

                         Standard orientation:
 ---------------------------------------------------------------------
 Center     Atomic      Atomic             Coordinates (Angstroms)
 Number     Number       Type             X           Y           Z
 ---------------------------------------------------------------------
      1          6           0        2.827949   -0.818330   -0.145703
      2          8           0        1.997873    0.325725   -0.136823
      3          6           0        0.667863    0.055770   -0.471805
      4          6           0       -0.229217    1.308709   -0.309099
      5          6           0       -0.255991    0.983351    1.213724
      6          6           0       -0.232643   -0.501327    0.710232
      7          6           0       -1.565259   -0.573420   -0.012012
      8          8           0       -2.385258   -1.451942   -0.016671
      9          6           0       -1.594561    0.772129   -0.775556
     10          1           0        2.816635   -1.314713   -1.127708
     11          1           0        3.843602   -0.479070    0.068788
     12          1           0        2.528390   -1.551166    0.616653
     13          1           0        0.615300   -0.490660   -1.426162
     14          1           0        0.101777    2.274673   -0.687988
     15          1           0        0.673352    1.249823    1.713516
     16          1           0       -1.121207    1.309802    1.796650
     17          1           0        0.045310   -1.349982    1.331148
     18          1           0       -1.674686    0.606027   -1.854741
     19          1           0       -2.438244    1.393706   -0.460893
 ---------------------------------------------------------------------

 SCF Done:  E(RB3LYP) =  -423.181225167     A.U. after    1 cycles

 The electronic state is 1-A.
 Alpha  occ. eigenvalues --  -19.15518 -19.12717 -10.26536 -10.24918 -10.23366
 Alpha  occ. eigenvalues --  -10.20300 -10.19875 -10.19640 -10.19259  -1.05116
 Alpha  occ. eigenvalues --   -1.03790  -0.89414  -0.72975  -0.70968  -0.67691
 Alpha  occ. eigenvalues --   -0.64231  -0.55965  -0.53167  -0.51291  -0.49461
 Alpha  occ. eigenvalues --   -0.47374  -0.45587  -0.43490  -0.42598  -0.40589
 Alpha  occ. eigenvalues --   -0.39317  -0.38290  -0.36558  -0.34900  -0.33715
 Alpha  occ. eigenvalues --   -0.32671  -0.31006  -0.26555  -0.23286
 Alpha virt. eigenvalues --   -0.00836   0.08425   0.10245   0.10891   0.12615
 Alpha virt. eigenvalues --    0.13215   0.13772   0.14575   0.15051   0.16208
 Alpha virt. eigenvalues --    0.17324   0.18280   0.19659   0.20197   0.20889

 Mulliken charges:
               1
     1  C   -0.248132
     2  O   -0.256854
     3  C    0.164239
     4  C   -0.064327
     5  C   -0.242269
     6  C   -0.173587
     7  C    0.430573
     8  O   -0.336271
     9  C   -0.342138
    10  H    0.111867
    11  H    0.132505
    12  H    0.114640
    13  H    0.069497
    14  H    0.078409
    15  H    0.127446
    16  H    0.101155
    17  H    0.080999
    18  H    0.124564
    19  H    0.127683
 Sum of Mulliken charges =   0.00000

 Dipole moment (field-independent basis, Debye):
    X=              2.0977    Y=              1.1705    Z=             -0.1579  Tot=              2.4074
 Quadrupole moment (field-independent basis, Debye-Ang):
   XX=            -57.3660   YY=            -55.3779   ZZ=            -51.3417
   XY=             -9.1527   XZ=              0.1344   YZ=              0.1029

  Exact polarizability:  88.461  -0.799  72.567   2.009  -0.373  67.625
 Approx polarizability: 119.852   7.722 112.757   2.194  -0.450 101.969

                      1                      2                      3
                      A                      A                      A
 Frequencies --     97.8971               118.9992               181.1346
 Red. masses --      2.4112                 5.3896                 1.2721
 Frc consts  --      0.0136                 0.0450                 0.0246
 IR Inten    --      3.2483                 3.2259                 0.4243

                      4                      5                      6
                      A                      A                      A
 Frequencies --    201.7655               306.7295               379.8626
 Red. masses --      2.4360                 3.2507                 2.7454
 Frc consts  --      0.0584                 0.1802                 0.2334
 IR Inten    --      2.2401                 4.7081                 2.5458

                      7                      8                      9
                      A                      A                      A
 Frequencies --    428.5674               454.4624               530.5662
 Red. masses --      3.6922                 2.8393                 3.7326
 Frc consts  --      0.3996                 0.3455                 0.6191
 IR Inten    --      3.7357                 1.4697                 6.2207

                     10                     11                     12
                      A                      A                      A
 Frequencies --    590.7861               607.0238               753.1654
 Red. masses --      4.0174                 2.4817                 3.1403
 Frc consts  --      0.8261                 0.5388                 1.0496
 IR Inten    --      8.6142                 2.5709                22.2674

                     13                     14                     15
                      A                      A                      A
 Frequencies --    817.7129               836.1907               884.9340
 Red. masses --      2.8808                 3.1619                 2.5394
 Frc consts  --      1.1349                 1.3026                 1.1717
 IR Inten    --      9.1288                 6.2707                 6.6422

                     16                     17                     18
                      A                      A                      A
 Frequencies --    907.5646               944.1371               969.9668
 Red. masses --      1.9123                 2.0593                 2.4777
 Frc consts  --      0.9281                 1.0815                 1.3735
 IR Inten    --      0.7034                 2.8377                12.1943

                     19                     20                     21
                      A                      A                      A
 Frequencies --   1003.0960              1014.5685              1024.9608
 Red. masses --      1.7224                 2.6799                 2.7720
 Frc consts  --      1.0211                 1.6253                 1.7158
 IR Inten    --      4.4410                11.7977                11.1925

                     22                     23                     24
                      A                      A                      A
 Frequencies --   1076.6558              1094.6808              1133.3474
 Red. masses --      1.1774                 1.4075                 1.9595
 Frc consts  --      0.8041                 0.9938                 1.4829
 IR Inten    --      0.7723                 6.7165                68.3397

                     25                     26                     27
                      A                      A                      A
 Frequencies --   1152.5396              1166.9157              1183.7578
 Red. masses --      1.8701                 2.1577                 1.2965
 Frc consts  --      1.4637                 1.7311                 1.0704
 IR Inten    --     64.8485                14.3415                 4.7055

                     28                     29                     30
                      A                      A                      A
 Frequencies --   1207.2107              1224.6418              1239.9034
 Red. masses --      1.5528                 1.8018                 1.9507
 Frc consts  --      1.3333                 1.5921                 1.7669
 IR Inten    --     21.4975                32.5980                42.0723

                     31                     32                     33
                      A                      A                      A
 Frequencies --   1244.2122              1271.2223              1286.4170
 Red. masses --      1.5175                 1.7487                 1.7910
 Frc consts  --      1.3841                 1.6649                 1.7463
 IR Inten    --     19.6620                19.3775                 1.2752

                     34                     35                     36
                      A                      A                      A
 Frequencies --   1300.7476              1402.6315              1457.0965
 Red. masses --      1.5859                 1.2507                 1.0949
 Frc consts  --      1.5809                 1.4498                 1.3696
 IR Inten    --      6.3426                37.3294                 6.1939

                     37                     38                     39
                      A                      A                      A
 Frequencies --   1481.3653              1489.0355              1500.7811
 Red. masses --      1.1353                 1.0596                 1.1012
 Frc consts  --      1.4679                 1.3842                 1.4613
 IR Inten    --      0.6655                 5.7701                10.3022

                     40                     41                     42
                      A                      A                      A
 Frequencies --   1509.7157              1865.7350              2980.5129
 Red. masses --      1.0790                12.4110                 1.0699
 Frc consts  --      1.4490                25.4541                 5.6000
 IR Inten    --      3.7141               276.2697                29.0289

                     43                     44                     45
                      A                      A                      A
 Frequencies --   2988.5426              3038.9270              3054.8870
 Red. masses --      1.0506                 1.1024                 1.0591
 Frc consts  --      5.5283                 5.9984                 5.8234
 IR Inten    --     79.3555                42.3228                15.6036

                     46                     47                     48
                      A                      A                      A
 Frequencies --   3070.9245              3101.9265              3123.2540
 Red. masses --      1.0630                 1.1043                 1.0974
 Frc consts  --      5.9066                 6.2606                 6.3074
 IR Inten    --     33.4379                11.8979                24.5405

                     49                     50                     51
                      A                      A                      A
 Frequencies --   3126.6350              3148.5045              3159.5274
 Red. masses --      1.0908                 1.0914                 1.1021
 Frc consts  --      6.2827                 6.3743                 6.4822
 IR Inten    --     30.2263                17.9356                11.0520

 - Thermochemistry -
 -------------------
 Temperature   298.150 Kelvin.  Pressure   1.00000 Atm.
 Atom     1 has atomic number  6 and mass  12.00000

 Molecular mass:   126.06808 amu.
 Principal axes and moments of inertia in atomic units:
                           1         2         3
     Eigenvalues --   562.211991464.871071661.45085
           X            0.99836  -0.05723   0.00321
           Y            0.05720   0.99832   0.00909
           Z           -0.00373  -0.00890   0.99995
 This molecule is an asymmetric top.
 Rotational symmetry number  1.
 Warning -- assumption of classical behavior for rotation
           may cause significant error
 Rotational temperatures (Kelvin)      0.15406     0.05913     0.05213
 Rotational constants (GHZ):           3.21007     1.23201     1.08624
 Zero-point vibrational energy     419508.5 (Joules/Mol)
                                  100.26494 (Kcal/Mol)
 Warning -- explicit consideration of  11 degrees of freedom as
           vibrations may cause significant error
 Vibrational temperatures:    140.85   171.21   260.61   290.30   441.31
          (Kelvin)            546.54   616.61   653.87   763.37   850.01
                              873.37  1083.64  1176.50  1203.09  1273.22
                             1305.78  1358.40  1395.56  1443.23  1459.74
                             1474.69  1549.07  1575.00  1630.63  1658.25
                             1678.93  1703.16  1736.90  1761.98  1783.94
                             1790.14  1829.00  1850.86  1871.48  2018.07
                             2096.43  2131.35  2142.39  2159.29  2172.14
                             2684.37  4288.29  4299.84  4372.33  4395.30
                             4418.37  4462.97  4493.66  4498.52  4529.99
                             4545.85

 Zero-point correction=                           0.159782 (Hartree/Particle)
 Thermal correction to Energy=                    0.167807
 Thermal correction to Enthalpy=                  0.168751
 Thermal correction to Gibbs Free Energy=         0.127057
 Sum of electronic and zero-point Energies=           -423.021443
 Sum of electronic and thermal Energies=              -423.013418
 Sum of electronic and thermal Enthalpies=            -423.012474
 Sum of electronic and thermal Free Energies=         -423.054168

                     E (Thermal)             CV                S
                      KCal/Mol        Cal/Mol-Kelvin    Cal/Mol-Kelvin
 Total                  105.300             30.879             87.753
 Electronic               0.000              0.000              0.000
 Translational            0.889              2.981             40.409
 Rotational               0.889              2.981             28.705
 Vibrational            103.523             24.917             18.639
 Vibration     1          0.603              1.951              3.496
 Vibration     2          0.609              1.933              3.117
 Vibration     3          0.630              1.865              2.317
 Vibration     4          0.639              1.837              2.117
 Vibration     5          0.697              1.661              1.380
 Vibration     6          0.750              1.513              1.040
 Vibration     7          0.790              1.408              0.863
 Vibration     8          0.813              1.351              0.782
 Vibration     9          0.886              1.182              0.586
 Vibration    10          0.948              1.051              0.466
 Vibration    11          0.966              1.017              0.438

 Optimization completed.
    -- Stationary point found.
 Normal termination of Gaussian 09 at Tue Jan 28 14:58:38 2020.
