 Gaussian 09, Revision D.01,
 Gaussian 09:  ES64L-G09RevD.01 24-Apr-2013

 -----------------------------
 # b3lyp 6-31G(2df,p) opt Freq
 -----------------------------

 -----
 titel
 -----
 Symbolic Z-matrix:
 Charge =  0 Multiplicity = 1

 SCF Done:  E(RB3LYP) =  -423.204970053     A.U. after   14 cycles
 Optimization completed.
    -- Stationary point found.
 Normal termination of Gaussian 09 at Mon Jan 27 14:13:05 2020.

 ----------------------------------------------------------------------
 #N Geom=AllCheck Guess=TCheck SCRF=Check GenChk RB3LYP/6-31G(2df,p) Fr
 eq
 ----------------------------------------------------------------------

 Structure from the checkpoint file:  "/scratch/puck/g09_90c5d61c-794f-4df6-8543-5c8376834d96/Gau-171152.chk"
 -----
 titel
 -----
 Charge =  0 Multiplicity = 1

                         Standard orientation:
 ---------------------------------------------------------------------
 Center     Atomic      Atomic             Coordinates (Angstroms)
 Number     Number       Type             X           Y           Z
 ---------------------------------------------------------------------
      1          6           0       -2.014229    1.263052   -0.724685
      2          6           0       -2.051281   -0.074318   -0.008732
      3          8           0       -2.916091   -0.890263   -0.217900
      4          6           0       -0.936547   -0.356328    1.013637
      5          6           0        0.449635   -0.247655    0.439833
      6          6           0        1.128818   -1.160677   -0.251827
      7          6           0        2.483213   -0.630405   -0.621741
      8          8           0        2.514913    0.702075   -0.111645
      9          6           0        1.315126    0.980069    0.595048
     10          1           0       -1.970128    2.087594   -0.004589
     11          1           0       -1.114733    1.330797   -1.345837
     12          1           0       -2.898794    1.366934   -1.353748
     13          1           0       -1.052822    0.354758    1.842877
     14          1           0       -1.123653   -1.358669    1.404770
     15          1           0        0.790307   -2.156332   -0.511169
     16          1           0        3.299768   -1.224505   -0.179796
     17          1           0        2.652214   -0.612100   -1.709733
     18          1           0        1.531598    1.184602    1.658086
     19          1           0        0.847258    1.889985    0.186310
 ---------------------------------------------------------------------

 SCF Done:  E(RB3LYP) =  -423.204970053     A.U. after    1 cycles

 The electronic state is 1-A.
 Alpha  occ. eigenvalues --  -19.13826 -19.13284 -10.27704 -10.23659 -10.23463
 Alpha  occ. eigenvalues --  -10.20357 -10.20281 -10.19310 -10.19056  -1.04442
 Alpha  occ. eigenvalues --   -1.03722  -0.82130  -0.76168  -0.74010  -0.70784
 Alpha  occ. eigenvalues --   -0.60916  -0.56215  -0.53482  -0.49909  -0.48464
 Alpha  occ. eigenvalues --   -0.46606  -0.45514  -0.44355  -0.42983  -0.41399
 Alpha  occ. eigenvalues --   -0.40732  -0.39287  -0.38538  -0.36428  -0.35058
 Alpha  occ. eigenvalues --   -0.32304  -0.28311  -0.24975  -0.23178
 Alpha virt. eigenvalues --   -0.01726   0.01063   0.07758   0.09684   0.12592
 Alpha virt. eigenvalues --    0.12897   0.13658   0.14247   0.15900   0.16247
 Alpha virt. eigenvalues --    0.17189   0.17348   0.17955   0.19976   0.21933

 Mulliken charges:
               1
     1  C   -0.478992
     2  C    0.395031
     3  O   -0.291029
     4  C   -0.407475
     5  C    0.278904
     6  C   -0.198111
     7  C   -0.101696
     8  O   -0.262635
     9  C   -0.153334
    10  H    0.135449
    11  H    0.153236
    12  H    0.144237
    13  H    0.119472
    14  H    0.135362
    15  H    0.111235
    16  H    0.106695
    17  H    0.108556
    18  H    0.102792
    19  H    0.102303
 Sum of Mulliken charges =   0.00000

 Dipole moment (field-independent basis, Debye):
    X=              0.6641    Y=              0.7340    Z=              0.5618  Tot=              1.1382
 Quadrupole moment (field-independent basis, Debye-Ang):
   XX=            -65.0146   YY=            -52.1971   ZZ=            -51.0693
   XY=             -9.1629   XZ=             -1.7130   YZ=              0.7972

  Exact polarizability:  92.048  -4.801  77.992  -4.508   5.513  66.230
 Approx polarizability: 124.374  -3.068 121.958  -8.833  14.701 101.240

                      1                      2                      3
                      A                      A                      A
 Frequencies --     29.9031                44.0976                92.2659
 Red. masses --      4.1515                 3.1281                 4.7030
 Frc consts  --      0.0022                 0.0036                 0.0236
 IR Inten    --      5.2102                 1.7406                 3.8267

                      4                      5                      6
                      A                      A                      A
 Frequencies --    128.0008               150.3080               255.1081
 Red. masses --      1.8029                 1.2466                 2.8432
 Frc consts  --      0.0174                 0.0166                 0.1090
 IR Inten    --      2.2039                 0.1349                 2.3917

                      7                      8                      9
                      A                      A                      A
 Frequencies --    282.8712               375.6508               457.2737
 Red. masses --      3.3571                 2.0499                 3.1825
 Frc consts  --      0.1583                 0.1704                 0.3921
 IR Inten    --      0.6618                 0.8145                 1.1541

                     10                     11                     12
                      A                      A                      A
 Frequencies --    481.1273               555.5189               682.7715
 Red. masses --      2.7522                 2.7899                 3.1714
 Frc consts  --      0.3754                 0.5073                 0.8711
 IR Inten    --      5.0899                19.0410                 3.0132

                     13                     14                     15
                      A                      A                      A
 Frequencies --    767.0560               779.9077               837.9365
 Red. masses --      3.7692                 5.0076                 1.3980
 Frc consts  --      1.3066                 1.7946                 0.5783
 IR Inten    --      0.7845                 6.8659                 1.3460

                     16                     17                     18
                      A                      A                      A
 Frequencies --    858.3212               914.3415               926.3735
 Red. masses --      1.6239                 3.0375                 3.7566
 Frc consts  --      0.7049                 1.4962                 1.8994
 IR Inten    --      6.3752                16.2032                 3.4471

                     19                     20                     21
                      A                      A                      A
 Frequencies --    968.4789              1008.4832              1029.1803
 Red. masses --      2.1922                 1.6802                 1.6097
 Frc consts  --      1.2115                 1.0068                 1.0046
 IR Inten    --      9.9312                12.1230                 6.2012

                     22                     23                     24
                      A                      A                      A
 Frequencies --   1049.1537              1065.6596              1113.1845
 Red. masses --      1.7348                 1.7756                 7.4389
 Frc consts  --      1.1251                 1.1880                 5.4312
 IR Inten    --      4.0226                 0.2468                77.6588

                     25                     26                     27
                      A                      A                      A
 Frequencies --   1157.6171              1172.9830              1199.9365
 Red. masses --      1.6219                 1.1037                 2.3482
 Frc consts  --      1.2806                 0.8948                 1.9920
 IR Inten    --     19.8032                 0.4406                12.6471

                     28                     29                     30
                      A                      A                      A
 Frequencies --   1224.1283              1233.9937              1295.3029
 Red. masses --      1.0797                 2.2044                 1.4504
 Frc consts  --      0.9532                 1.9777                 1.4338
 IR Inten    --      0.9376                78.1129                 1.5080

                     31                     32                     33
                      A                      A                      A
 Frequencies --   1315.1506              1368.3870              1379.9812
 Red. masses --      1.4472                 1.7574                 1.3151
 Frc consts  --      1.4748                 1.9388                 1.4756
 IR Inten    --      3.9958                10.5827                31.8801

                     34                     35                     36
                      A                      A                      A
 Frequencies --   1396.0715              1462.5445              1466.4867
 Red. masses --      1.5364                 1.0610                 1.0800
 Frc consts  --      1.7643                 1.3372                 1.3684
 IR Inten    --      6.7279                12.1155                 4.4313

                     37                     38                     39
                      A                      A                      A
 Frequencies --   1479.0860              1516.7005              1529.3216
 Red. masses --      1.0535                 1.0803                 1.0882
 Frc consts  --      1.3579                 1.4642                 1.4996
 IR Inten    --     10.7444                 3.4472                 1.0765

                     40                     41                     42
                      A                      A                      A
 Frequencies --   1719.7821              1817.9167              2952.2822
 Red. masses --      7.1405                10.6917                 1.0666
 Frc consts  --     12.4430                20.8183                 5.4773
 IR Inten    --      3.9459               186.2111                87.2349

                     43                     44                     45
                      A                      A                      A
 Frequencies --   2970.0826              2979.8744              2989.8897
 Red. masses --      1.0638                 1.0913                 1.0992
 Frc consts  --      5.5290                 5.7092                 5.7893
 IR Inten    --     84.9385                32.1696                57.1616

                     46                     47                     48
                      A                      A                      A
 Frequencies --   3022.9201              3040.1713              3102.6437
 Red. masses --      1.0654                 1.0371                 1.0980
 Frc consts  --      5.7360                 5.6478                 6.2277
 IR Inten    --     15.5405                 3.6314                 7.2448

                     49                     50                     51
                      A                      A                      A
 Frequencies --   3109.7858              3154.3477              3213.1241
 Red. masses --      1.0957                 1.1020                 1.0955
 Frc consts  --      6.2433                 6.4601                 6.6636
 IR Inten    --      6.2443                10.6501                 3.7418

 - Thermochemistry -
 -------------------
 Temperature   298.150 Kelvin.  Pressure   1.00000 Atm.
 Atom     1 has atomic number  6 and mass  12.00000

 Molecular mass:   126.06808 amu.
 Principal axes and moments of inertia in atomic units:
                           1         2         3
     Eigenvalues --   508.462971943.408412118.40109
           X            0.99954  -0.03043  -0.00191
           Y            0.03042   0.99953  -0.00396
           Z            0.00203   0.00390   0.99999
 This molecule is an asymmetric top.
 Rotational symmetry number  1.
 Warning -- assumption of classical behavior for rotation
           may cause significant error
 Rotational temperatures (Kelvin)      0.17034     0.04457     0.04089
 Rotational constants (GHZ):           3.54941     0.92865     0.85194
 Zero-point vibrational energy     413450.3 (Joules/Mol)
                                   98.81698 (Kcal/Mol)
 Warning -- explicit consideration of  11 degrees of freedom as
           vibrations may cause significant error
 Vibrational temperatures:     43.02    63.45   132.75   184.16   216.26
          (Kelvin)            367.04   406.99   540.48   657.91   692.23
                              799.27   982.35  1103.62  1122.11  1205.60
                             1234.93  1315.53  1332.84  1393.42  1450.98
                             1480.76  1509.50  1533.24  1601.62  1665.55
                             1687.66  1726.44  1761.25  1775.44  1863.65
                             1892.21  1968.80  1985.48  2008.63  2104.27
                             2109.94  2128.07  2182.19  2200.35  2474.38
                             2615.57  4247.67  4273.28  4287.37  4301.78
                             4349.30  4374.12  4464.01  4474.28  4538.40
                             4622.96

 Zero-point correction=                           0.157475 (Hartree/Particle)
 Thermal correction to Energy=                    0.166921
 Thermal correction to Enthalpy=                  0.167866
 Thermal correction to Gibbs Free Energy=         0.121188
 Sum of electronic and zero-point Energies=           -423.047495
 Sum of electronic and thermal Energies=              -423.038049
 Sum of electronic and thermal Enthalpies=            -423.037104
 Sum of electronic and thermal Free Energies=         -423.083782

                     E (Thermal)             CV                S
                      KCal/Mol        Cal/Mol-Kelvin    Cal/Mol-Kelvin
 Total                  104.745             32.949             98.242
 Electronic               0.000              0.000              0.000
 Translational            0.889              2.981             40.409
 Rotational               0.889              2.981             29.128
 Vibrational            102.967             26.987             28.706
 Vibration     1          0.594              1.984              5.836
 Vibration     2          0.595              1.980              5.066
 Vibration     3          0.602              1.955              3.611
 Vibration     4          0.611              1.925              2.976
 Vibration     5          0.618              1.902              2.668
 Vibration     6          0.665              1.754              1.695
 Vibration     7          0.682              1.705              1.516
 Vibration     8          0.746              1.522              1.057
 Vibration     9          0.815              1.345              0.774
 Vibration    10          0.837              1.292              0.707
 Vibration    11          0.911              1.128              0.533

 Optimization completed.
    -- Stationary point found.
 Normal termination of Gaussian 09 at Mon Jan 27 14:56:02 2020.
