 Gaussian 09, Revision D.01,
 Gaussian 09:  ES64L-G09RevD.01 24-Apr-2013

 -----------------------------
 # b3lyp 6-31G(2df,p) opt Freq
 -----------------------------

 -----
 titel
 -----
 Symbolic Z-matrix:
 Charge =  0 Multiplicity = 1

 SCF Done:  E(RB3LYP) =  -423.129633351     A.U. after   14 cycles
 Optimization completed.
    -- Stationary point found.
 Normal termination of Gaussian 09 at Mon Jan 27 16:14:12 2020.

 ----------------------------------------------------------------------
 #N Geom=AllCheck Guess=TCheck SCRF=Check GenChk RB3LYP/6-31G(2df,p) Fr
 eq
 ----------------------------------------------------------------------

 Structure from the checkpoint file:  "/scratch/puck/g09_4de3f4ac-9608-42a6-a1eb-78fd3f94998b/Gau-47085.chk"
 -----
 titel
 -----
 Charge =  0 Multiplicity = 1

                         Standard orientation:
 ---------------------------------------------------------------------
 Center     Atomic      Atomic             Coordinates (Angstroms)
 Number     Number       Type             X           Y           Z
 ---------------------------------------------------------------------
      1          6           0       -0.376571    1.874613   -0.560429
      2          6           0       -0.946072    0.616451    0.047436
      3          8           0       -2.335381    0.465920   -0.184475
      4          6           0       -0.414621    0.034522    1.347465
      5          6           0       -0.251388   -0.726457    0.045240
      6          8           0       -1.068337   -1.837970   -0.178541
      7          6           0        1.114830   -0.999613   -0.582108
      8          6           0        2.225030   -0.171542   -0.129894
      9          6           0        3.157709    0.489704    0.242964
     10          1           0       -0.819929    2.759113   -0.086759
     11          1           0        0.705663    1.927760   -0.429921
     12          1           0       -0.604422    1.917135   -1.630371
     13          1           0       -2.812592    0.939797    0.504695
     14          1           0        0.459614    0.499906    1.789818
     15          1           0       -1.138404   -0.369696    2.048193
     16          1           0       -1.963029   -1.485661   -0.293549
     17          1           0        1.342900   -2.049061   -0.356660
     18          1           0        1.022636   -0.940907   -1.674027
     19          1           0        3.983814    1.071945    0.568665
 ---------------------------------------------------------------------

 SCF Done:  E(RB3LYP) =  -423.129633351     A.U. after    1 cycles

 The electronic state is 1-A.
 Alpha  occ. eigenvalues --  -19.15781 -19.13158 -10.24340 -10.24265 -10.20870
 Alpha  occ. eigenvalues --  -10.18601 -10.17849 -10.17748 -10.17438  -1.05043
 Alpha  occ. eigenvalues --   -1.01234  -0.84342  -0.77777  -0.71832  -0.70605
 Alpha  occ. eigenvalues --   -0.60166  -0.58072  -0.52856  -0.51856  -0.48310
 Alpha  occ. eigenvalues --   -0.47278  -0.45463  -0.43111  -0.40969  -0.40597
 Alpha  occ. eigenvalues --   -0.39092  -0.37910  -0.37076  -0.34370  -0.30913
 Alpha  occ. eigenvalues --   -0.27650  -0.26962  -0.25899  -0.23528
 Alpha virt. eigenvalues --    0.04986   0.05564   0.06331   0.10445   0.11958
 Alpha virt. eigenvalues --    0.12607   0.13242   0.14682   0.14953   0.16029
 Alpha virt. eigenvalues --    0.17006   0.18405   0.19217   0.21576   0.23656

 Mulliken charges:
               1
     1  C   -0.458012
     2  C    0.308962
     3  O   -0.470235
     4  C   -0.416660
     5  C    0.402443
     6  O   -0.471906
     7  C   -0.423522
     8  C    0.299157
     9  C   -0.449368
    10  H    0.108140
    11  H    0.142947
    12  H    0.124635
    13  H    0.290197
    14  H    0.127091
    15  H    0.106811
    16  H    0.291411
    17  H    0.152406
    18  H    0.138199
    19  H    0.197302
 Sum of Mulliken charges =   0.00000

 Dipole moment (field-independent basis, Debye):
    X=             -0.5399    Y=              1.8915    Z=              0.8867  Tot=              2.1577
 Quadrupole moment (field-independent basis, Debye-Ang):
   XX=            -47.7433   YY=            -54.8386   ZZ=            -52.6364
   XY=             -0.7112   XZ=             -2.2394   YZ=              1.8949

  Exact polarizability:  91.043   5.951  75.164   3.059   3.438  64.414
 Approx polarizability: 128.053  16.011 112.932  10.795  10.662  98.848

                      1                      2                      3
                      A                      A                      A
 Frequencies --     78.4834               132.9466               181.3301
 Red. masses --      3.1612                 4.1770                 2.4697
 Frc consts  --      0.0115                 0.0435                 0.0478
 IR Inten    --      0.0986                 1.8863                 4.4109

                      4                      5                      6
                      A                      A                      A
 Frequencies --    202.6442               229.3927               256.1142
 Red. masses --      2.1732                 1.3692                 1.1807
 Frc consts  --      0.0526                 0.0424                 0.0456
 IR Inten    --      0.1781                 0.9140                43.8950

                      7                      8                      9
                      A                      A                      A
 Frequencies --    313.3659               348.0054               364.6391
 Red. masses --      4.1092                 3.1036                 4.8596
 Frc consts  --      0.2377                 0.2215                 0.3807
 IR Inten    --      7.4227                 2.4948                 6.5243

                     10                     11                     12
                      A                      A                      A
 Frequencies --    386.4756               403.7737               463.6291
 Red. masses --      2.7127                 3.4192                 2.2525
 Frc consts  --      0.2387                 0.3284                 0.2853
 IR Inten    --      1.4636                10.1705                 8.5044

                     13                     14                     15
                      A                      A                      A
 Frequencies --    497.5869               513.3174               593.1126
 Red. masses --      1.5397                 2.0717                 3.2162
 Frc consts  --      0.2246                 0.3216                 0.6666
 IR Inten    --     42.1566                44.4049                 7.6844

                     16                     17                     18
                      A                      A                      A
 Frequencies --    615.7606               648.3153               709.0902
 Red. masses --      1.2118                 1.2584                 3.2919
 Frc consts  --      0.2707                 0.3116                 0.9752
 IR Inten    --     44.9966                43.7838                 8.3927

                     19                     20                     21
                      A                      A                      A
 Frequencies --    716.8842               865.0996               916.4516
 Red. masses --      3.9572                 2.7453                 1.3347
 Frc consts  --      1.1982                 1.2105                 0.6605
 IR Inten    --     10.0853                 4.4846                 5.4669

                     22                     23                     24
                      A                      A                      A
 Frequencies --    932.3031               971.2824               986.2405
 Red. masses --      1.9950                 2.2101                 1.9705
 Frc consts  --      1.0217                 1.2284                 1.1292
 IR Inten    --     20.3431                 9.5919                 2.9602

                     25                     26                     27
                      A                      A                      A
 Frequencies --    992.6807              1041.7579              1085.3732
 Red. masses --      2.3873                 1.3972                 1.4900
 Frc consts  --      1.3860                 0.8934                 1.0342
 IR Inten    --      3.2038                 8.9311                49.4160

                     28                     29                     30
                      A                      A                      A
 Frequencies --   1166.4412              1182.0670              1226.5029
 Red. masses --      3.3313                 3.0733                 1.3416
 Frc consts  --      2.6704                 2.5301                 1.1891
 IR Inten    --     20.2178               156.1275                18.5904

                     31                     32                     33
                      A                      A                      A
 Frequencies --   1259.3585              1300.5483              1333.7749
 Red. masses --      1.6754                 1.8737                 1.6394
 Frc consts  --      1.5656                 1.8672                 1.7183
 IR Inten    --     25.6079                23.5560                20.6359

                     34                     35                     36
                      A                      A                      A
 Frequencies --   1378.3718              1415.9721              1419.4019
 Red. masses --      1.6971                 1.3086                 1.3452
 Frc consts  --      1.8997                 1.5459                 1.5968
 IR Inten    --      3.0114                40.3527                15.7503

                     37                     38                     39
                      A                      A                      A
 Frequencies --   1462.2889              1475.6370              1492.4808
 Red. masses --      1.1253                 1.3694                 1.0475
 Frc consts  --      1.4177                 1.7568                 1.3747
 IR Inten    --     14.3593                20.9212                 4.1377

                     40                     41                     42
                      A                      A                      A
 Frequencies --   1505.0649              2235.9463              3024.7783
 Red. masses --      1.3030                 5.9492                 1.0576
 Frc consts  --      1.7390                17.5239                 5.7013
 IR Inten    --      7.7086                 1.6303                19.1919

                     43                     44                     45
                      A                      A                      A
 Frequencies --   3028.1699              3056.3948              3090.2264
 Red. masses --      1.0417                 1.1006                 1.0977
 Frc consts  --      5.6280                 6.0573                 6.1758
 IR Inten    --     29.8745                 5.9297                20.6979

                     46                     47                     48
                      A                      A                      A
 Frequencies --   3125.3395              3139.5252              3222.0348
 Red. masses --      1.0538                 1.0982                 1.1174
 Frc consts  --      6.0644                 6.3776                 6.8346
 IR Inten    --      5.0976                 4.5929                 3.7519

                     49                     50                     51
                      A                      A                      A
 Frequencies --   3504.3862              3724.1058              3807.6744
 Red. masses --      1.1617                 1.0645                 1.0665
 Frc consts  --      8.4058                 8.6983                 9.1106
 IR Inten    --     65.3780                80.6229                26.7952

 - Thermochemistry -
 -------------------
 Temperature   298.150 Kelvin.  Pressure   1.00000 Atm.
 Atom     1 has atomic number  6 and mass  12.00000

 Molecular mass:   126.06808 amu.
 Principal axes and moments of inertia in atomic units:
                           1         2         3
     Eigenvalues --   700.465241407.399341782.31589
           X            0.99998  -0.00287  -0.00498
           Y            0.00286   0.99999  -0.00200
           Z            0.00498   0.00199   0.99999
 This molecule is an asymmetric top.
 Rotational symmetry number  1.
 Warning -- assumption of classical behavior for rotation
           may cause significant error
 Rotational temperatures (Kelvin)      0.12365     0.06154     0.04860
 Rotational constants (GHZ):           2.57649     1.28232     1.01258
 Zero-point vibrational energy     406865.2 (Joules/Mol)
                                   97.24311 (Kcal/Mol)
 Warning -- explicit consideration of  16 degrees of freedom as
           vibrations may cause significant error
 Vibrational temperatures:    112.92   191.28   260.89   291.56   330.04
          (Kelvin)            368.49   450.86   500.70   524.63   556.05
                              580.94   667.06   715.92   738.55   853.36
                              885.94   932.78  1020.22  1031.44  1244.68
                             1318.57  1341.37  1397.46  1418.98  1428.24
                             1498.86  1561.61  1678.25  1700.73  1764.66
                             1811.93  1871.20  1919.00  1983.17  2037.27
                             2042.20  2103.90  2123.11  2147.34  2165.45
                             3217.02  4351.98  4356.86  4397.46  4446.14
                             4496.66  4517.07  4635.78  5042.02  5358.15
                             5478.39

 Zero-point correction=                           0.154967 (Hartree/Particle)
 Thermal correction to Energy=                    0.164955
 Thermal correction to Enthalpy=                  0.165900
 Thermal correction to Gibbs Free Energy=         0.120840
 Sum of electronic and zero-point Energies=           -422.974667
 Sum of electronic and thermal Energies=              -422.964678
 Sum of electronic and thermal Enthalpies=            -422.963734
 Sum of electronic and thermal Free Energies=         -423.008793

                     E (Thermal)             CV                S
                      KCal/Mol        Cal/Mol-Kelvin    Cal/Mol-Kelvin
 Total                  103.511             38.239             94.836
 Electronic               0.000              0.000              0.000
 Translational            0.889              2.981             40.409
 Rotational               0.889              2.981             28.954
 Vibrational            101.734             32.277             25.474
 Vibration     1          0.600              1.964              3.928
 Vibration     2          0.613              1.920              2.903
 Vibration     3          0.630              1.865              2.315
 Vibration     4          0.639              1.836              2.109
 Vibration     5          0.652              1.796              1.884
 Vibration     6          0.666              1.752              1.688
 Vibration     7          0.701              1.648              1.345
 Vibration     8          0.726              1.579              1.175
 Vibration     9          0.738              1.545              1.102
 Vibration    10          0.755              1.499              1.014
 Vibration    11          0.769              1.462              0.949
 Vibration    12          0.821              1.331              0.756
 Vibration    13          0.853              1.255              0.664
 Vibration    14          0.868              1.220              0.626
 Vibration    15          0.951              1.046              0.462
 Vibration    16          0.975              0.999              0.423

 Normal termination of Gaussian 09 at Mon Jan 27 16:55:56 2020.
