 Gaussian 09, Revision D.01,
 Gaussian 09:  ES64L-G09RevD.01 24-Apr-2013

 -----------------------------
 # b3lyp 6-31G(2df,p) opt Freq
 -----------------------------

 -----
 titel
 -----
 Symbolic Z-matrix:
 Charge =  0 Multiplicity = 1

 SCF Done:  E(RB3LYP) =  -423.230622674     A.U. after   14 cycles
 Optimization completed.
    -- Stationary point found.
 Normal termination of Gaussian 09 at Mon Jan 27 23:03:21 2020.

 ----------------------------------------------------------------------
 #N Geom=AllCheck Guess=TCheck SCRF=Check GenChk RB3LYP/6-31G(2df,p) Fr
 eq
 ----------------------------------------------------------------------

 Structure from the checkpoint file:  "/scratch/puck/g09_5fcb40a0-c6b2-438f-8226-7ba539524253/Gau-102368.chk"
 -----
 titel
 -----
 Charge =  0 Multiplicity = 1

                         Standard orientation:
 ---------------------------------------------------------------------
 Center     Atomic      Atomic             Coordinates (Angstroms)
 Number     Number       Type             X           Y           Z
 ---------------------------------------------------------------------
      1          6           0       -1.907279    1.338353   -0.759258
      2          6           0       -1.028267    0.701465    0.325919
      3          6           0        0.426891    1.121222    0.277586
      4          6           0        1.364481    0.520999    1.314039
      5          6           0        1.219805   -0.121168   -0.035366
      6          6           0        2.330338   -0.252322   -1.035012
      7          8           0        0.318847   -1.225039   -0.067564
      8          6           0       -0.969400   -0.824088    0.141502
      9          8           0       -1.882200   -1.596667    0.163097
     10          1           0       -1.473674    1.193264   -1.754055
     11          1           0       -2.901030    0.884261   -0.750689
     12          1           0       -2.011916    2.413472   -0.587045
     13          1           0       -1.484466    0.888561    1.304757
     14          1           0        0.686101    2.073268   -0.171552
     15          1           0        2.284541    1.057629    1.518864
     16          1           0        0.936046    0.009947    2.170989
     17          1           0        1.931886   -0.350084   -2.049749
     18          1           0        2.975610    0.629813   -0.999605
     19          1           0        2.944318   -1.133244   -0.822642
 ---------------------------------------------------------------------

 SCF Done:  E(RB3LYP) =  -423.230622674     A.U. after    1 cycles

 The electronic state is 1-A.
 Alpha  occ. eigenvalues --  -19.18094 -19.12103 -10.30023 -10.25787 -10.21036
 Alpha  occ. eigenvalues --  -10.20546 -10.19951 -10.19332 -10.18910  -1.10096
 Alpha  occ. eigenvalues --   -1.02232  -0.87249  -0.79304  -0.73532  -0.66436
 Alpha  occ. eigenvalues --   -0.62045  -0.60077  -0.55541  -0.49814  -0.49082
 Alpha  occ. eigenvalues --   -0.44925  -0.44041  -0.43555  -0.42757  -0.41055
 Alpha  occ. eigenvalues --   -0.40156  -0.39862  -0.38806  -0.36427  -0.35263
 Alpha  occ. eigenvalues --   -0.32971  -0.29678  -0.26593  -0.26427
 Alpha virt. eigenvalues --    0.01180   0.08035   0.09934   0.10467   0.11619
 Alpha virt. eigenvalues --    0.12372   0.14289   0.14822   0.15667   0.16694
 Alpha virt. eigenvalues --    0.17593   0.18406   0.19153   0.21080   0.21168

 Mulliken charges:
               1
     1  C   -0.406762
     2  C   -0.142769
     3  C   -0.108489
     4  C   -0.361390
     5  C    0.428746
     6  C   -0.467055
     7  O   -0.250952
     8  C    0.408995
     9  O   -0.340447
    10  H    0.124184
    11  H    0.145297
    12  H    0.120688
    13  H    0.113938
    14  H    0.097604
    15  H    0.120790
    16  H    0.125398
    17  H    0.131067
    18  H    0.123592
    19  H    0.137566
 Sum of Mulliken charges =   0.00000

 Dipole moment (field-independent basis, Debye):
    X=              2.3082    Y=              3.4375    Z=             -0.0794  Tot=              4.1413
 Quadrupole moment (field-independent basis, Debye-Ang):
   XX=            -53.7600   YY=            -57.8441   ZZ=            -51.1872
   XY=             -4.2199   XZ=             -0.0764   YZ=             -0.0563

  Exact polarizability:  88.023   1.179  71.085   0.847   0.397  66.602
 Approx polarizability: 121.218   6.014 108.313   0.465   1.228  97.939

                      1                      2                      3
                      A                      A                      A
 Frequencies --     83.5201               149.1774               212.2553
 Red. masses --      3.7047                 3.6524                 1.0470
 Frc consts  --      0.0152                 0.0479                 0.0278
 IR Inten    --      0.7563                 0.0608                 0.1023

                      4                      5                      6
                      A                      A                      A
 Frequencies --    229.8259               245.0555               295.4582
 Red. masses --      1.1439                 2.3823                 2.8590
 Frc consts  --      0.0356                 0.0843                 0.1470
 IR Inten    --      0.4317                 3.7422                 0.7644

                      7                      8                      9
                      A                      A                      A
 Frequencies --    324.7139               405.5016               466.2929
 Red. masses --      2.6033                 2.9705                 2.9553
 Frc consts  --      0.1617                 0.2878                 0.3786
 IR Inten    --      0.7354                 0.9695                 1.0800

                     10                     11                     12
                      A                      A                      A
 Frequencies --    497.8743               601.1736               643.4242
 Red. masses --      4.1990                 4.3365                 4.9846
 Frc consts  --      0.6133                 0.9234                 1.2158
 IR Inten    --      2.2401                 3.3640                 9.1049

                     13                     14                     15
                      A                      A                      A
 Frequencies --    717.3479               749.9039               791.8567
 Red. masses --      5.4117                 4.4862                 2.0102
 Frc consts  --      1.6408                 1.4864                 0.7426
 IR Inten    --      2.8526                 0.6242                 6.6303

                     16                     17                     18
                      A                      A                      A
 Frequencies --    838.9323               875.9693               954.2145
 Red. masses --      1.9024                 2.0786                 1.5109
 Frc consts  --      0.7889                 0.9397                 0.8105
 IR Inten    --      7.4097                 4.0407                 4.7380

                     19                     20                     21
                      A                      A                      A
 Frequencies --    961.8906               986.0628              1037.0326
 Red. masses --      1.5238                 2.8959                 1.7371
 Frc consts  --      0.8307                 1.6590                 1.1007
 IR Inten    --      2.1168                41.1475                11.4366

                     22                     23                     24
                      A                      A                      A
 Frequencies --   1045.9371              1053.4871              1076.4894
 Red. masses --      1.5185                 1.6120                 1.8434
 Frc consts  --      0.9788                 1.0541                 1.2586
 IR Inten    --     19.7136                24.5026                24.9372

                     25                     26                     27
                      A                      A                      A
 Frequencies --   1118.6125              1131.9376              1142.8533
 Red. masses --      2.0889                 2.0231                 1.9558
 Frc consts  --      1.5400                 1.5272                 1.5051
 IR Inten    --     23.8373                 3.8538                57.3496

                     28                     29                     30
                      A                      A                      A
 Frequencies --   1188.9482              1249.8826              1291.0340
 Red. masses --      2.2641                 2.7763                 1.6365
 Frc consts  --      1.8857                 2.5554                 1.6071
 IR Inten    --    121.9905                25.0868                48.0495

                     31                     32                     33
                      A                      A                      A
 Frequencies --   1295.6055              1335.7547              1397.3997
 Red. masses --      1.8078                 1.7198                 1.5325
 Frc consts  --      1.7879                 1.8079                 1.7631
 IR Inten    --     10.5636                 6.6610                 5.4286

                     34                     35                     36
                      A                      A                      A
 Frequencies --   1406.5190              1431.5649              1479.1115
 Red. masses --      1.2289                 1.6010                 1.0448
 Frc consts  --      1.4324                 1.9331                 1.3467
 IR Inten    --      3.4434                 8.7787                 2.0075

                     37                     38                     39
                      A                      A                      A
 Frequencies --   1483.4706              1496.4767              1500.0036
 Red. masses --      1.4333                 1.0468                 1.0523
 Frc consts  --      1.8584                 1.3812                 1.3951
 IR Inten    --     11.9822                 6.1512                 2.9623

                     40                     41                     42
                      A                      A                      A
 Frequencies --   1504.0638              1878.1471              3039.5692
 Red. masses --      1.1376                12.8591                 1.0358
 Frc consts  --      1.5162                26.7251                 5.6382
 IR Inten    --      2.7466               341.1961                22.5290

                     43                     44                     45
                      A                      A                      A
 Frequencies --   3040.2940              3044.9866              3107.0638
 Red. masses --      1.0413                 1.0759                 1.1018
 Frc consts  --      5.6710                 5.8775                 6.2672
 IR Inten    --     12.7898                14.3509                15.9964

                     46                     47                     48
                      A                      A                      A
 Frequencies --   3110.6276              3119.3952              3126.3243
 Red. masses --      1.1020                 1.1000                 1.0557
 Frc consts  --      6.2826                 6.3064                 6.0796
 IR Inten    --     22.1706                13.4953                 8.7700

                     49                     50                     51
                      A                      A                      A
 Frequencies --   3129.3964              3174.4401              3217.2380
 Red. masses --      1.1018                 1.0916                 1.1164
 Frc consts  --      6.3572                 6.4810                 6.8083
 IR Inten    --     10.9102                 7.2164                 6.5752

 - Thermochemistry -
 -------------------
 Temperature   298.150 Kelvin.  Pressure   1.00000 Atm.
 Atom     1 has atomic number  6 and mass  12.00000

 Molecular mass:   126.06808 amu.
 Principal axes and moments of inertia in atomic units:
                           1         2         3
     Eigenvalues --   703.466731217.773161477.28146
           X            0.99826  -0.05895   0.00031
           Y            0.05895   0.99819  -0.01158
           Z            0.00038   0.01158   0.99993
 This molecule is an asymmetric top.
 Rotational symmetry number  1.
 Warning -- assumption of classical behavior for rotation
           may cause significant error
 Rotational temperatures (Kelvin)      0.12312     0.07112     0.05863
 Rotational constants (GHZ):           2.56550     1.48200     1.22166
 Zero-point vibrational energy     416803.6 (Joules/Mol)
                                   99.61845 (Kcal/Mol)
 Warning -- explicit consideration of  11 degrees of freedom as
           vibrations may cause significant error
 Vibrational temperatures:    120.17   214.63   305.39   330.67   352.58
          (Kelvin)            425.10   467.19   583.43   670.89   716.33
                              864.95   925.74  1032.10  1078.94  1139.30
                             1207.04  1260.32  1372.90  1383.94  1418.72
                             1492.06  1504.87  1515.73  1548.83  1609.43
                             1628.60  1644.31  1710.63  1798.30  1857.51
                             1864.09  1921.85  2010.54  2023.66  2059.70
                             2128.11  2134.38  2153.09  2158.17  2164.01
                             2702.23  4373.26  4374.30  4381.05  4470.37
                             4475.49  4488.11  4498.08  4502.50  4567.31
                             4628.88

 Zero-point correction=                           0.158752 (Hartree/Particle)
 Thermal correction to Energy=                    0.167271
 Thermal correction to Enthalpy=                  0.168215
 Thermal correction to Gibbs Free Energy=         0.125810
 Sum of electronic and zero-point Energies=           -423.071871
 Sum of electronic and thermal Energies=              -423.063352
 Sum of electronic and thermal Enthalpies=            -423.062408
 Sum of electronic and thermal Free Energies=         -423.104813

                     E (Thermal)             CV                S
                      KCal/Mol        Cal/Mol-Kelvin    Cal/Mol-Kelvin
 Total                  104.964             32.680             89.249
 Electronic               0.000              0.000              0.000
 Translational            0.889              2.981             40.409
 Rotational               0.889              2.981             28.628
 Vibrational            103.187             26.718             20.213
 Vibration     1          0.600              1.961              3.806
 Vibration     2          0.618              1.904              2.683
 Vibration     3          0.643              1.822              2.024
 Vibration     4          0.652              1.795              1.880
 Vibration     5          0.660              1.771              1.766
 Vibration     6          0.690              1.682              1.443
 Vibration     7          0.709              1.626              1.286
 Vibration     8          0.770              1.458              0.943
 Vibration     9          0.824              1.325              0.748
 Vibration    10          0.853              1.255              0.663
 Vibration    11          0.959              1.029              0.448

 Normal termination of Gaussian 09 at Mon Jan 27 23:47:04 2020.
