 Gaussian 09, Revision D.01,
 Gaussian 09:  ES64L-G09RevD.01 24-Apr-2013

 -----------------------------
 # b3lyp 6-31G(2df,p) opt Freq
 -----------------------------

 -----
 titel
 -----
 Symbolic Z-matrix:
 Charge =  0 Multiplicity = 1

 SCF Done:  E(RB3LYP) =  -423.183672469     A.U. after   13 cycles
 Optimization completed.
    -- Stationary point found.
 Normal termination of Gaussian 09 at Mon Jan 27 11:29:27 2020.

 ----------------------------------------------------------------------
 #N Geom=AllCheck Guess=TCheck SCRF=Check GenChk RB3LYP/6-31G(2df,p) Fr
 eq
 ----------------------------------------------------------------------

 Structure from the checkpoint file:  "/scratch/puck/g09_b726eeca-085d-4a7a-ad74-eced985f30cb/Gau-60840.chk"
 -----
 titel
 -----
 Charge =  0 Multiplicity = 1

                         Standard orientation:
 ---------------------------------------------------------------------
 Center     Atomic      Atomic             Coordinates (Angstroms)
 Number     Number       Type             X           Y           Z
 ---------------------------------------------------------------------
      1          6           0       -1.108204    1.545949    0.666518
      2          6           0       -1.280615    0.710553   -0.601702
      3          6           0       -1.927771   -0.669064   -0.463383
      4          6           0       -0.786910   -1.616301    0.003098
      5          6           0        0.249094   -0.724619    0.723392
      6          8           0        1.611753   -0.966660    0.358714
      7          6           0        1.974025    0.048783   -0.554769
      8          8           0        1.240969    1.204084   -0.199764
      9          6           0        0.004499    0.691739    0.194118
     10          1           0       -0.990533    2.614992    0.522357
     11          1           0       -1.649713    1.268312    1.567532
     12          1           0       -1.351910    1.249980   -1.538862
     13          1           0       -2.747086   -0.650054    0.264923
     14          1           0       -2.359363   -1.006357   -1.409455
     15          1           0       -1.140953   -2.443763    0.623735
     16          1           0       -0.289086   -2.053260   -0.868761
     17          1           0        0.189347   -0.807700    1.813545
     18          1           0        3.042565    0.257903   -0.460576
     19          1           0        1.730248   -0.251685   -1.589675
 ---------------------------------------------------------------------

 SCF Done:  E(RB3LYP) =  -423.183672469     A.U. after    1 cycles

 The electronic state is 1-A.
 Alpha  occ. eigenvalues --  -19.15333 -19.14260 -10.27345 -10.23724 -10.23331
 Alpha  occ. eigenvalues --  -10.19074 -10.18943 -10.18844 -10.18250  -1.09052
 Alpha  occ. eigenvalues --   -0.99673  -0.87781  -0.76620  -0.72395  -0.64615
 Alpha  occ. eigenvalues --   -0.61266  -0.58139  -0.56688  -0.51052  -0.49509
 Alpha  occ. eigenvalues --   -0.48303  -0.45398  -0.45114  -0.41848  -0.40127
 Alpha  occ. eigenvalues --   -0.38660  -0.35951  -0.35618  -0.34187  -0.32894
 Alpha  occ. eigenvalues --   -0.31937  -0.29284  -0.25787  -0.23849
 Alpha virt. eigenvalues --    0.07926   0.08999   0.10798   0.11383   0.12287
 Alpha virt. eigenvalues --    0.13955   0.15387   0.15802   0.16706   0.17167
 Alpha virt. eigenvalues --    0.18457   0.18806   0.20094   0.21957   0.22470

 Mulliken charges:
               1
     1  C   -0.369116
     2  C   -0.124920
     3  C   -0.239660
     4  C   -0.227683
     5  C    0.036072
     6  O   -0.269152
     7  C   -0.003336
     8  O   -0.274936
     9  C    0.426437
    10  H    0.125875
    11  H    0.111076
    12  H    0.095605
    13  H    0.102932
    14  H    0.107207
    15  H    0.100338
    16  H    0.112653
    17  H    0.087618
    18  H    0.120263
    19  H    0.082727
 Sum of Mulliken charges =   0.00000

 Dipole moment (field-independent basis, Debye):
    X=             -1.3585    Y=             -0.2073    Z=             -0.5068  Tot=              1.4647
 Quadrupole moment (field-independent basis, Debye-Ang):
   XX=            -53.0571   YY=            -55.1342   ZZ=            -51.1722
   XY=              0.6785   XZ=             -2.2847   YZ=              0.4750

  Exact polarizability:  81.650   0.186  72.860  -2.696   1.304  66.915
 Approx polarizability: 112.082  -0.059 103.890  -2.745   1.082 102.793

                      1                      2                      3
                      A                      A                      A
 Frequencies --     87.4001               177.7294               206.6954
 Red. masses --      2.4918                 2.5300                 2.3790
 Frc consts  --      0.0112                 0.0471                 0.0599
 IR Inten    --      0.4455                 1.1794                 2.0524

                      4                      5                      6
                      A                      A                      A
 Frequencies --    379.1357               396.5740               435.4499
 Red. masses --      2.4269                 3.3522                 2.7381
 Frc consts  --      0.2055                 0.3106                 0.3059
 IR Inten    --      3.7073                 0.9677                 4.8402

                      7                      8                      9
                      A                      A                      A
 Frequencies --    545.5725               569.5604               593.5295
 Red. masses --      5.0053                 2.4888                 4.1732
 Frc consts  --      0.8778                 0.4757                 0.8662
 IR Inten    --      5.0887                 2.9113                 2.0693

                     10                     11                     12
                      A                      A                      A
 Frequencies --    740.1413               805.8326               818.5714
 Red. masses --      7.1429                 2.4631                 2.1750
 Frc consts  --      2.3055                 0.9424                 0.8586
 IR Inten    --      0.4266                 2.1016                 1.1647

                     13                     14                     15
                      A                      A                      A
 Frequencies --    831.9076               851.2442               913.1995
 Red. masses --      1.8297                 2.1662                 1.5664
 Frc consts  --      0.7461                 0.9248                 0.7696
 IR Inten    --      7.3713                12.9608                 8.8041

                     16                     17                     18
                      A                      A                      A
 Frequencies --    940.7615               953.4132               983.3664
 Red. masses --      1.9734                 2.6592                 4.2004
 Frc consts  --      1.0290                 1.4242                 2.3932
 IR Inten    --     14.6766                 3.0903                59.1853

                     19                     20                     21
                      A                      A                      A
 Frequencies --    993.8887              1028.3248              1054.9590
 Red. masses --      3.7774                 1.6474                 2.8463
 Frc consts  --      2.1985                 1.0264                 1.8664
 IR Inten    --     15.3340                 6.4662                15.0804

                     22                     23                     24
                      A                      A                      A
 Frequencies --   1060.8951              1087.6203              1099.7839
 Red. masses --      1.5514                 2.2934                 2.9101
 Frc consts  --      1.0288                 1.5984                 2.0738
 IR Inten    --     11.9024                17.2641                81.4354

                     25                     26                     27
                      A                      A                      A
 Frequencies --   1124.0880              1168.8564              1198.2659
 Red. masses --      2.3383                 1.7343                 1.3749
 Frc consts  --      1.7408                 1.3960                 1.1631
 IR Inten    --     40.9924                16.9852                 4.3589

                     28                     29                     30
                      A                      A                      A
 Frequencies --   1211.8909              1228.1867              1259.6075
 Red. masses --      1.3576                 1.2930                 1.9289
 Frc consts  --      1.1748                 1.1491                 1.8031
 IR Inten    --     19.0541                11.2039                65.1653

                     31                     32                     33
                      A                      A                      A
 Frequencies --   1272.7955              1292.1251              1324.3094
 Red. masses --      1.4400                 1.2394                 1.4865
 Frc consts  --      1.3745                 1.2192                 1.5360
 IR Inten    --      3.1721                 0.9382                 1.3545

                     34                     35                     36
                      A                      A                      A
 Frequencies --   1341.2985              1368.4243              1389.5397
 Red. masses --      1.7013                 1.2694                 1.8842
 Frc consts  --      1.8033                 1.4005                 2.1435
 IR Inten    --      7.8312                14.7187                14.7823

                     37                     38                     39
                      A                      A                      A
 Frequencies --   1433.5430              1480.4332              1489.0574
 Red. masses --      1.3236                 1.2257                 1.3280
 Frc consts  --      1.6026                 1.5827                 1.7348
 IR Inten    --      6.3217                 4.2846                12.0191

                     40                     41                     42
                      A                      A                      A
 Frequencies --   1502.8209              1539.3312              2938.8690
 Red. masses --      1.1144                 1.1280                 1.0704
 Frc consts  --      1.4828                 1.5748                 5.4471
 IR Inten    --      5.9498                 1.4892                90.8516

                     43                     44                     45
                      A                      A                      A
 Frequencies --   3034.3297              3049.3020              3052.1679
 Red. masses --      1.0674                 1.0868                 1.0625
 Frc consts  --      5.7902                 5.9538                 5.8319
 IR Inten    --     39.2523                29.5002                19.3728

                     46                     47                     48
                      A                      A                      A
 Frequencies --   3088.6527              3098.5787              3105.7376
 Red. masses --      1.0949                 1.0947                 1.1043
 Frc consts  --      6.1540                 6.1928                 6.2760
 IR Inten    --     21.3506                49.6409                34.0021

                     49                     50                     51
                      A                      A                      A
 Frequencies --   3111.9773              3181.9754              3206.4225
 Red. masses --      1.0563                 1.0920                 1.1131
 Frc consts  --      6.0272                 6.5143                 6.7424
 IR Inten    --     15.9051                 6.4749                 7.5826

 - Thermochemistry -
 -------------------
 Temperature   298.150 Kelvin.  Pressure   1.00000 Atm.
 Atom     1 has atomic number  6 and mass  12.00000

 Molecular mass:   126.06808 amu.
 Principal axes and moments of inertia in atomic units:
                           1         2         3
     Eigenvalues --   656.98426 972.255441345.41759
           X            0.99977   0.01673  -0.01349
           Y           -0.01651   0.99973   0.01657
           Z            0.01377  -0.01635   0.99977
 This molecule is an asymmetric top.
 Rotational symmetry number  1.
 Warning -- assumption of classical behavior for rotation
           may cause significant error
 Rotational temperatures (Kelvin)      0.13184     0.08909     0.06438
 Rotational constants (GHZ):           2.74701     1.85624     1.34140
 Zero-point vibrational energy     424962.3 (Joules/Mol)
                                  101.56842 (Kcal/Mol)
 Warning -- explicit consideration of   9 degrees of freedom as
           vibrations may cause significant error
 Vibrational temperatures:    125.75   255.71   297.39   545.49   570.58
          (Kelvin)            626.51   784.96   819.47   853.96  1064.90
                             1159.41  1177.74  1196.93  1224.75  1313.89
                             1353.54  1371.75  1414.84  1429.98  1479.53
                             1517.85  1526.39  1564.84  1582.34  1617.31
                             1681.72  1724.04  1743.64  1767.08  1812.29
                             1831.27  1859.08  1905.38  1929.83  1968.85
                             1999.24  2062.55  2130.01  2142.42  2162.22
                             2214.75  4228.37  4365.72  4387.26  4391.38
                             4443.88  4458.16  4468.46  4477.44  4578.15
                             4613.32

 Zero-point correction=                           0.161860 (Hartree/Particle)
 Thermal correction to Energy=                    0.168983
 Thermal correction to Enthalpy=                  0.169927
 Thermal correction to Gibbs Free Energy=         0.130224
 Sum of electronic and zero-point Energies=           -423.021813
 Sum of electronic and thermal Energies=              -423.014689
 Sum of electronic and thermal Enthalpies=            -423.013745
 Sum of electronic and thermal Free Energies=         -423.053449

                     E (Thermal)             CV                S
                      KCal/Mol        Cal/Mol-Kelvin    Cal/Mol-Kelvin
 Total                  106.039             28.622             83.563
 Electronic               0.000              0.000              0.000
 Translational            0.889              2.981             40.409
 Rotational               0.889              2.981             28.243
 Vibrational            104.261             22.661             14.911
 Vibration     1          0.601              1.958              3.717
 Vibration     2          0.628              1.870              2.352
 Vibration     3          0.641              1.830              2.073
 Vibration     4          0.749              1.515              1.043
 Vibration     5          0.763              1.477              0.975
 Vibration     6          0.796              1.393              0.841
 Vibration     7          0.901              1.149              0.553
 Vibration     8          0.926              1.097              0.505
 Vibration     9          0.951              1.046              0.461

 Optimization completed.
    -- Stationary point found.
 Normal termination of Gaussian 09 at Mon Jan 27 13:47:32 2020.
