 Gaussian 09, Revision D.01,
 Gaussian 09:  ES64L-G09RevD.01 24-Apr-2013

 -----------------------------
 # b3lyp 6-31G(2df,p) opt Freq
 -----------------------------

 -----
 titel
 -----
 Symbolic Z-matrix:
 Charge =  0 Multiplicity = 1

 SCF Done:  E(RB3LYP) =  -423.191788880     A.U. after   14 cycles
 Optimization completed.
    -- Stationary point found.
 Normal termination of Gaussian 09 at Mon Jan 27 13:15:21 2020.

 ----------------------------------------------------------------------
 #N Geom=AllCheck Guess=TCheck SCRF=Check GenChk RB3LYP/6-31G(2df,p) Fr
 eq
 ----------------------------------------------------------------------

 Structure from the checkpoint file:  "/scratch/puck/g09_09c812a1-e31a-42a7-9b9e-ed7da1ea4969/Gau-156290.chk"
 -----
 titel
 -----
 Charge =  0 Multiplicity = 1

                         Standard orientation:
 ---------------------------------------------------------------------
 Center     Atomic      Atomic             Coordinates (Angstroms)
 Number     Number       Type             X           Y           Z
 ---------------------------------------------------------------------
      1          8           0       -3.347467   -0.020813   -0.659064
      2          6           0       -2.444478    0.049556    0.137702
      3          6           0       -1.007330   -0.000200   -0.194247
      4          6           0       -0.039662    0.813481    0.668724
      5          6           0        1.145045    1.494532   -0.013369
      6          6           0        2.291190    0.504675   -0.255218
      7          8           0        1.815653   -0.732874   -0.763201
      8          6           0        1.109445   -1.460982    0.222661
      9          6           0       -0.062245   -0.678445    0.786826
     10          1           0       -2.649769    0.164141    1.231104
     11          1           0       -0.769815   -0.089015   -1.249184
     12          1           0       -0.507383    1.371644    1.474519
     13          1           0        0.828971    1.936167   -0.964370
     14          1           0        1.509854    2.317000    0.611043
     15          1           0        2.996889    0.892743   -0.994514
     16          1           0        2.843763    0.329344    0.682647
     17          1           0        0.772577   -2.384655   -0.258203
     18          1           0        1.789009   -1.735197    1.048248
     19          1           0       -0.511374   -1.108390    1.678360
 ---------------------------------------------------------------------

 SCF Done:  E(RB3LYP) =  -423.191788880     A.U. after    1 cycles

 The electronic state is 1-A.
 Alpha  occ. eigenvalues --  -19.15016 -19.12840 -10.26553 -10.24133 -10.23667
 Alpha  occ. eigenvalues --  -10.21465 -10.21201 -10.20095 -10.19756  -1.04533
 Alpha  occ. eigenvalues --   -1.03642  -0.88499  -0.77928  -0.71324  -0.65140
 Alpha  occ. eigenvalues --   -0.64159  -0.58098  -0.54715  -0.50937  -0.49983
 Alpha  occ. eigenvalues --   -0.48681  -0.45586  -0.43245  -0.42852  -0.40965
 Alpha  occ. eigenvalues --   -0.40027  -0.38756  -0.38559  -0.37613  -0.32020
 Alpha  occ. eigenvalues --   -0.30397  -0.29062  -0.26189  -0.24549
 Alpha virt. eigenvalues --   -0.01534   0.07593   0.09443   0.10545   0.11516
 Alpha virt. eigenvalues --    0.12441   0.12616   0.14428   0.15226   0.16279
 Alpha virt. eigenvalues --    0.17701   0.18171   0.18757   0.19783   0.22858

 Mulliken charges:
               1
     1  O   -0.271911
     2  C    0.157646
     3  C   -0.104217
     4  C   -0.058423
     5  C   -0.239916
     6  C   -0.070397
     7  O   -0.238551
     8  C   -0.111426
     9  C   -0.068832
    10  H    0.058129
    11  H    0.114749
    12  H    0.095428
    13  H    0.118457
    14  H    0.106700
    15  H    0.112393
    16  H    0.090485
    17  H    0.119242
    18  H    0.095054
    19  H    0.095390
 Sum of Mulliken charges =   0.00000

 Dipole moment (field-independent basis, Debye):
    X=              2.8421    Y=              0.6800    Z=              2.4774  Tot=              3.8311
 Quadrupole moment (field-independent basis, Debye-Ang):
   XX=            -65.2202   YY=            -50.4372   ZZ=            -53.4144
   XY=              1.9541   XZ=             -3.1104   YZ=             -1.4172

  Exact polarizability:  94.440   2.382  70.913   3.243  -1.148  67.886
 Approx polarizability: 127.133   3.357 102.706  12.695   0.025 111.428

                      1                      2                      3
                      A                      A                      A
 Frequencies --     97.2595                99.4780               217.5153
 Red. masses --      5.1737                 3.7719                 2.4552
 Frc consts  --      0.0288                 0.0220                 0.0684
 IR Inten    --      3.2800                 1.4668                 4.5702

                      4                      5                      6
                      A                      A                      A
 Frequencies --    254.8013               280.8004               345.2624
 Red. masses --      2.0993                 3.1815                 3.7625
 Frc consts  --      0.0803                 0.1478                 0.2643
 IR Inten    --      1.1022                 4.1094                 2.0678

                      7                      8                      9
                      A                      A                      A
 Frequencies --    390.9091               470.7930               511.4278
 Red. masses --      1.9692                 3.8037                 4.4728
 Frc consts  --      0.1773                 0.4967                 0.6893
 IR Inten    --      4.2400                 5.2196                18.5894

                     10                     11                     12
                      A                      A                      A
 Frequencies --    537.6844               714.6091               775.3654
 Red. masses --      3.4106                 2.7339                 2.8913
 Frc consts  --      0.5809                 0.8226                 1.0241
 IR Inten    --      0.2867                 1.5408                 0.4181

                     13                     14                     15
                      A                      A                      A
 Frequencies --    806.5917               863.1147               906.4502
 Red. masses --      3.2618                 2.0603                 2.0934
 Frc consts  --      1.2503                 0.9043                 1.0134
 IR Inten    --      6.7505                11.7194                11.0764

                     16                     17                     18
                      A                      A                      A
 Frequencies --    930.5866               958.2485              1016.4676
 Red. masses --      2.0010                 2.3065                 1.8781
 Frc consts  --      1.0210                 1.2479                 1.1433
 IR Inten    --      5.3144                 8.7857                29.0135

                     19                     20                     21
                      A                      A                      A
 Frequencies --   1046.1169              1054.1031              1077.7529
 Red. masses --      1.9676                 1.7479                 2.3386
 Frc consts  --      1.2687                 1.1443                 1.6004
 IR Inten    --      5.6995                 5.6814                41.4969

                     22                     23                     24
                      A                      A                      A
 Frequencies --   1083.2841              1111.3952              1130.6332
 Red. masses --      1.8435                 1.2291                 2.4509
 Frc consts  --      1.2746                 0.8945                 1.8460
 IR Inten    --     29.2501                10.6644                63.0170

                     25                     26                     27
                      A                      A                      A
 Frequencies --   1145.9100              1163.0522              1222.4016
 Red. masses --      1.8706                 2.4743                 1.6265
 Frc consts  --      1.4472                 1.9720                 1.4320
 IR Inten    --     17.8540                31.7227                13.9269

                     28                     29                     30
                      A                      A                      A
 Frequencies --   1237.0017              1266.0228              1277.9120
 Red. masses --      1.2974                 1.2201                 1.2950
 Frc consts  --      1.1697                 1.1522                 1.2460
 IR Inten    --      2.1709                14.6367                13.2354

                     31                     32                     33
                      A                      A                      A
 Frequencies --   1324.1904              1352.9004              1367.5311
 Red. masses --      1.2929                 1.3374                 1.4163
 Frc consts  --      1.3357                 1.4423                 1.5605
 IR Inten    --      4.8429                 1.0736                 2.9746

                     34                     35                     36
                      A                      A                      A
 Frequencies --   1385.0750              1421.5760              1429.2491
 Red. masses --      1.4820                 1.4005                 1.2709
 Frc consts  --      1.6751                 1.6675                 1.5296
 IR Inten    --      2.4950                10.0959                 2.5203

                     37                     38                     39
                      A                      A                      A
 Frequencies --   1456.5267              1486.7939              1493.3891
 Red. masses --      1.9428                 1.1091                 1.0898
 Frc consts  --      2.4284                 1.4446                 1.4320
 IR Inten    --     15.9324                 4.3289                 0.8596

                     40                     41                     42
                      A                      A                      A
 Frequencies --   1503.9113              1819.9590              2822.3258
 Red. masses --      1.1024                10.2201                 1.0802
 Frc consts  --      1.4690                19.9448                 5.0695
 IR Inten    --      2.4529               303.5326               107.1545

                     43                     44                     45
                      A                      A                      A
 Frequencies --   2956.8898              2970.8818              3041.9245
 Red. masses --      1.0709                 1.0707                 1.0602
 Frc consts  --      5.5166                 5.5680                 5.7803
 IR Inten    --     54.1231                68.7086                24.2959

                     46                     47                     48
                      A                      A                      A
 Frequencies --   3076.2623              3080.0258              3093.8420
 Red. masses --      1.0911                 1.1003                 1.0961
 Frc consts  --      6.0837                 6.1498                 6.1818
 IR Inten    --     31.5800                18.3521                34.9390

                     49                     50                     51
                      A                      A                      A
 Frequencies --   3140.1506              3149.9961              3178.1731
 Red. masses --      1.0871                 1.0902                 1.0886
 Frc consts  --      6.3156                 6.3735                 6.4782
 IR Inten    --     10.5618                16.2377                 2.4544

 - Thermochemistry -
 -------------------
 Temperature   298.150 Kelvin.  Pressure   1.00000 Atm.
 Atom     1 has atomic number  8 and mass  15.99491

 Molecular mass:   126.06808 amu.
 Principal axes and moments of inertia in atomic units:
                           1         2         3
     Eigenvalues --   509.398491729.852921931.84431
           X            0.99993   0.00945  -0.00769
           Y           -0.00969   0.99944  -0.03195
           Z            0.00738   0.03202   0.99946
 This molecule is an asymmetric top.
 Rotational symmetry number  1.
 Warning -- assumption of classical behavior for rotation
           may cause significant error
 Rotational temperatures (Kelvin)      0.17003     0.05007     0.04483
 Rotational constants (GHZ):           3.54289     1.04329     0.93421
 Zero-point vibrational energy     421950.0 (Joules/Mol)
                                  100.84846 (Kcal/Mol)
 Warning -- explicit consideration of  10 degrees of freedom as
           vibrations may cause significant error
 Vibrational temperatures:    139.93   143.13   312.96   366.60   404.01
          (Kelvin)            496.76   562.43   677.37   735.83   773.61
                             1028.16  1115.58  1160.50  1241.83  1304.18
                             1338.90  1378.70  1462.47  1505.13  1516.62
                             1550.64  1558.60  1599.05  1626.73  1648.71
                             1673.37  1758.76  1779.77  1821.52  1838.63
                             1905.21  1946.52  1967.57  1992.81  2045.33
                             2056.37  2095.61  2139.16  2148.65  2163.79
                             2618.51  4060.69  4254.30  4274.43  4376.65
                             4426.05  4431.46  4451.34  4517.97  4532.14
                             4572.68

 Zero-point correction=                           0.160712 (Hartree/Particle)
 Thermal correction to Energy=                    0.168660
 Thermal correction to Enthalpy=                  0.169604
 Thermal correction to Gibbs Free Energy=         0.127899
 Sum of electronic and zero-point Energies=           -423.031077
 Sum of electronic and thermal Energies=              -423.023129
 Sum of electronic and thermal Enthalpies=            -423.022184
 Sum of electronic and thermal Free Energies=         -423.063890

                     E (Thermal)             CV                S
                      KCal/Mol        Cal/Mol-Kelvin    Cal/Mol-Kelvin
 Total                  105.836             30.310             87.777
 Electronic               0.000              0.000              0.000
 Translational            0.889              2.981             40.409
 Rotational               0.889              2.981             28.922
 Vibrational            104.058             24.348             18.447
 Vibration     1          0.603              1.951              3.509
 Vibration     2          0.604              1.949              3.465
 Vibration     3          0.646              1.814              1.980
 Vibration     4          0.665              1.755              1.697
 Vibration     5          0.680              1.709              1.529
 Vibration     6          0.724              1.585              1.188
 Vibration     7          0.759              1.490              0.997
 Vibration     8          0.828              1.315              0.735
 Vibration     9          0.867              1.225              0.630
 Vibration    10          0.893              1.167              0.570

 Optimization completed.
    -- Stationary point found.
 Normal termination of Gaussian 09 at Mon Jan 27 13:57:28 2020.
