 Gaussian 09, Revision D.01,
 Gaussian 09:  ES64L-G09RevD.01 24-Apr-2013

 -----------------------------
 # b3lyp 6-31G(2df,p) opt Freq
 -----------------------------

 -----
 titel
 -----
 Symbolic Z-matrix:
 Charge =  0 Multiplicity = 1

 SCF Done:  E(RB3LYP) =  -423.162499965     A.U. after   14 cycles
 Optimization completed.
    -- Stationary point found.
 Normal termination of Gaussian 09 at Mon Jan 27 12:12:38 2020.

 ----------------------------------------------------------------------
 #N Geom=AllCheck Guess=TCheck SCRF=Check GenChk RB3LYP/6-31G(2df,p) Fr
 eq
 ----------------------------------------------------------------------

 Structure from the checkpoint file:  "/scratch/puck/g09_4332464b-4a4b-4f79-8792-388447472be6/Gau-44979.chk"
 -----
 titel
 -----
 Charge =  0 Multiplicity = 1

                         Standard orientation:
 ---------------------------------------------------------------------
 Center     Atomic      Atomic             Coordinates (Angstroms)
 Number     Number       Type             X           Y           Z
 ---------------------------------------------------------------------
      1          6           0        2.689043    0.626904   -0.278957
      2          8           0        2.510195   -0.775309   -0.065372
      3          6           0        1.367241    0.007787   -0.421989
      4          6           0        0.288108    0.143353    0.637090
      5          6           0       -0.592163   -1.114520    0.690966
      6          8           0       -1.463699   -1.171476   -0.427564
      7          6           0       -2.416362   -0.126613   -0.425979
      8          6           0       -1.824377    1.216457   -0.099354
      9          6           0       -0.587554    1.346328    0.375005
     10          1           0        2.916172    1.208442    0.614517
     11          1           0        3.263932    0.897043   -1.163595
     12          1           0        0.990988   -0.182972   -1.427218
     13          1           0        0.794719    0.255229    1.604880
     14          1           0        0.019537   -2.019761    0.652239
     15          1           0       -1.168520   -1.124697    1.629915
     16          1           0       -2.858679   -0.116384   -1.429317
     17          1           0       -3.238666   -0.351645    0.279274
     18          1           0       -2.463009    2.081613   -0.258186
     19          1           0       -0.172064    2.329247    0.580278
 ---------------------------------------------------------------------

 SCF Done:  E(RB3LYP) =  -423.162499965     A.U. after    1 cycles

 The electronic state is 1-A.
 Alpha  occ. eigenvalues --  -19.14753 -19.14112 -10.23479 -10.23424 -10.23230
 Alpha  occ. eigenvalues --  -10.22685 -10.19552 -10.18903 -10.18804  -1.06736
 Alpha  occ. eigenvalues --   -1.03593  -0.81192  -0.77118  -0.68135  -0.65668
 Alpha  occ. eigenvalues --   -0.63764  -0.60112  -0.52610  -0.51634  -0.49414
 Alpha  occ. eigenvalues --   -0.47669  -0.46089  -0.45478  -0.41649  -0.40090
 Alpha  occ. eigenvalues --   -0.39808  -0.38500  -0.36985  -0.35003  -0.31097
 Alpha  occ. eigenvalues --   -0.30280  -0.26962  -0.25361  -0.24962
 Alpha virt. eigenvalues --    0.01246   0.08493   0.11024   0.11441   0.12112
 Alpha virt. eigenvalues --    0.12923   0.13607   0.13872   0.15439   0.16366
 Alpha virt. eigenvalues --    0.17018   0.18051   0.19136   0.19381   0.21837

 Mulliken charges:
               1
     1  C   -0.185523
     2  O   -0.243717
     3  C    0.100314
     4  C   -0.076107
     5  C   -0.106158
     6  O   -0.250923
     7  C   -0.115957
     8  C   -0.066617
     9  C   -0.085350
    10  H    0.109716
    11  H    0.115685
    12  H    0.104403
    13  H    0.081799
    14  H    0.123940
    15  H    0.089212
    16  H    0.119109
    17  H    0.099119
    18  H    0.095158
    19  H    0.091896
 Sum of Mulliken charges =   0.00000

 Dipole moment (field-independent basis, Debye):
    X=             -0.9654    Y=              2.3200    Z=              0.4445  Tot=              2.5518
 Quadrupole moment (field-independent basis, Debye-Ang):
   XX=            -52.3779   YY=            -54.4761   ZZ=            -52.0801
   XY=              2.5364   XZ=             -0.3491   YZ=             -1.3456

  Exact polarizability: 100.152   2.671  70.090   5.454  -0.507  62.224
 Approx polarizability: 136.942   2.552 104.623  13.189   1.067  96.428

                      1                      2                      3
                      A                      A                      A
 Frequencies --     74.9460                95.0144               165.9918
 Red. masses --      3.7572                 3.3156                 3.7479
 Frc consts  --      0.0124                 0.0176                 0.0608
 IR Inten    --      2.4865                 0.4196                 1.4274

                      4                      5                      6
                      A                      A                      A
 Frequencies --    253.0119               306.8343               321.8905
 Red. masses --      2.4872                 2.7617                 3.5993
 Frc consts  --      0.0938                 0.1532                 0.2197
 IR Inten    --      2.8906                 8.8429                 1.6633

                      7                      8                      9
                      A                      A                      A
 Frequencies --    436.1244               471.4740               523.7395
 Red. masses --      2.3339                 3.0087                 5.0227
 Frc consts  --      0.2616                 0.3940                 0.8117
 IR Inten    --      1.6201                 2.4002                 8.4205

                     10                     11                     12
                      A                      A                      A
 Frequencies --    612.3997               701.1503               808.7972
 Red. masses --      4.8800                 1.3909                 2.1537
 Frc consts  --      1.0783                 0.4029                 0.8301
 IR Inten    --      1.4399                20.6807                20.8207

                     13                     14                     15
                      A                      A                      A
 Frequencies --    843.3868               861.8744               895.7917
 Red. masses --      3.9456                 5.7416                 2.5786
 Frc consts  --      1.6536                 2.5129                 1.2191
 IR Inten    --     12.6216                19.0598                 6.9711

                     16                     17                     18
                      A                      A                      A
 Frequencies --    915.3989               951.7670               968.8322
 Red. masses --      2.6443                 2.4732                 2.4294
 Frc consts  --      1.3055                 1.3200                 1.3435
 IR Inten    --      4.1256                15.7023                18.9886

                     19                     20                     21
                      A                      A                      A
 Frequencies --    995.2701              1018.3695              1057.2746
 Red. masses --      1.2195                 1.8755                 1.9587
 Frc consts  --      0.7117                 1.1460                 1.2900
 IR Inten    --      4.4386                11.9461                 2.9775

                     22                     23                     24
                      A                      A                      A
 Frequencies --   1065.1762              1109.3003              1117.5884
 Red. masses --      1.7690                 1.3350                 2.4977
 Frc consts  --      1.1825                 0.9679                 1.8380
 IR Inten    --      5.8631                 6.1573                61.6710

                     25                     26                     27
                      A                      A                      A
 Frequencies --   1154.6369              1167.1905              1180.6147
 Red. masses --      1.4851                 1.5933                 1.6227
 Frc consts  --      1.1666                 1.2789                 1.3326
 IR Inten    --      0.0808                 6.6793                 0.9575

                     28                     29                     30
                      A                      A                      A
 Frequencies --   1212.2028              1243.6600              1278.8722
 Red. masses --      1.4533                 1.1495                 1.2899
 Frc consts  --      1.2582                 1.0475                 1.2429
 IR Inten    --     29.6487                 5.9641                 6.6752

                     31                     32                     33
                      A                      A                      A
 Frequencies --   1291.4493              1314.8937              1327.7786
 Red. masses --      1.5487                 1.4795                 1.3911
 Frc consts  --      1.5219                 1.5072                 1.4450
 IR Inten    --      6.6173                 7.1315                11.2265

                     34                     35                     36
                      A                      A                      A
 Frequencies --   1366.7960              1408.3875              1418.3067
 Red. masses --      1.2270                 1.6124                 1.4464
 Frc consts  --      1.3505                 1.8843                 1.7143
 IR Inten    --      1.0623                 5.9918                 7.5853

                     37                     38                     39
                      A                      A                      A
 Frequencies --   1438.8737              1484.2583              1498.3644
 Red. masses --      1.6903                 1.0832                 1.0965
 Frc consts  --      2.0618                 1.4059                 1.4504
 IR Inten    --      9.1606                 0.7156                 4.4932

                     40                     41                     42
                      A                      A                      A
 Frequencies --   1529.8012              1721.5843              2929.8705
 Red. masses --      1.3325                 6.7182                 1.0729
 Frc consts  --      1.8373                11.7316                 5.4261
 IR Inten    --      3.0008                 0.5267                68.4684

                     43                     44                     45
                      A                      A                      A
 Frequencies --   2977.7701              3024.7698              3050.6069
 Red. masses --      1.0701                 1.0827                 1.0865
 Frc consts  --      5.5905                 5.8365                 5.9571
 IR Inten    --     58.0800                23.6002                26.9288

                     46                     47                     48
                      A                      A                      A
 Frequencies --   3078.7550              3095.6961              3115.6009
 Red. masses --      1.0503                 1.0940                 1.0885
 Frc consts  --      5.8657                 6.1770                 6.2252
 IR Inten    --     28.3072                21.8135                11.6696

                     49                     50                     51
                      A                      A                      A
 Frequencies --   3151.4952              3164.6906              3174.3237
 Red. masses --      1.0836                 1.1187                 1.0981
 Frc consts  --      6.3411                 6.6013                 6.5190
 IR Inten    --      5.9255                29.4939                25.0994

 - Thermochemistry -
 -------------------
 Temperature   298.150 Kelvin.  Pressure   1.00000 Atm.
 Atom     1 has atomic number  6 and mass  12.00000

 Molecular mass:   126.06808 amu.
 Principal axes and moments of inertia in atomic units:
                           1         2         3
     Eigenvalues --   505.112501583.840461855.86486
           X            0.99993   0.01195  -0.00111
           Y           -0.01197   0.99963  -0.02441
           Z            0.00081   0.02442   0.99970
 This molecule is an asymmetric top.
 Rotational symmetry number  1.
 Warning -- assumption of classical behavior for rotation
           may cause significant error
 Rotational temperatures (Kelvin)      0.17147     0.05469     0.04667
 Rotational constants (GHZ):           3.57295     1.13947     0.97245
 Zero-point vibrational energy     420921.9 (Joules/Mol)
                                  100.60276 (Kcal/Mol)
 Warning -- explicit consideration of  10 degrees of freedom as
           vibrations may cause significant error
 Vibrational temperatures:    107.83   136.70   238.82   364.03   441.47
          (Kelvin)            463.13   627.48   678.35   753.54   881.11
                             1008.80  1163.68  1213.44  1240.04  1288.84
                             1317.05  1369.38  1393.93  1431.97  1465.20
                             1521.18  1532.55  1596.03  1607.96  1661.26
                             1679.32  1698.64  1744.09  1789.35  1840.01
                             1858.11  1891.84  1910.37  1966.51  2026.35
                             2040.62  2070.22  2135.51  2155.81  2201.04
                             2476.97  4215.42  4284.34  4351.96  4389.14
                             4429.64  4454.01  4482.65  4534.29  4553.28
                             4567.14

 Zero-point correction=                           0.160321 (Hartree/Particle)
 Thermal correction to Energy=                    0.168330
 Thermal correction to Enthalpy=                  0.169274
 Thermal correction to Gibbs Free Energy=         0.127246
 Sum of electronic and zero-point Energies=           -423.002179
 Sum of electronic and thermal Energies=              -422.994170
 Sum of electronic and thermal Enthalpies=            -422.993226
 Sum of electronic and thermal Free Energies=         -423.035253

                     E (Thermal)             CV                S
                      KCal/Mol        Cal/Mol-Kelvin    Cal/Mol-Kelvin
 Total                  105.629             30.374             88.455
 Electronic               0.000              0.000              0.000
 Translational            0.889              2.981             40.409
 Rotational               0.889              2.981             28.786
 Vibrational            103.851             24.412             19.260
 Vibration     1          0.599              1.966              4.019
 Vibration     2          0.603              1.953              3.554
 Vibration     3          0.624              1.884              2.480
 Vibration     4          0.664              1.758              1.710
 Vibration     5          0.697              1.661              1.379
 Vibration     6          0.707              1.632              1.300
 Vibration     7          0.797              1.391              0.839
 Vibration     8          0.828              1.313              0.733
 Vibration     9          0.879              1.197              0.601
 Vibration    10          0.972              1.006              0.429

 Optimization completed.
    -- Stationary point found.
 Normal termination of Gaussian 09 at Mon Jan 27 12:53:55 2020.
