 Gaussian 09, Revision D.01,
 Gaussian 09:  ES64L-G09RevD.01 24-Apr-2013

 -----------------------------
 # b3lyp 6-31G(2df,p) opt Freq
 -----------------------------

 -----
 titel
 -----
 Symbolic Z-matrix:
 Charge =  0 Multiplicity = 1

 SCF Done:  E(RB3LYP) =  -423.131890477     A.U. after   14 cycles
 Optimization completed.
    -- Stationary point found.
 Normal termination of Gaussian 09 at Mon Jan 27 14:22:01 2020.

 ----------------------------------------------------------------------
 #N Geom=AllCheck Guess=TCheck SCRF=Check GenChk RB3LYP/6-31G(2df,p) Fr
 eq
 ----------------------------------------------------------------------

 Structure from the checkpoint file:  "/scratch/puck/g09_074448c7-c095-4490-a93f-479c48c686df/Gau-78023.chk"
 -----
 titel
 -----
 Charge =  0 Multiplicity = 1

                         Standard orientation:
 ---------------------------------------------------------------------
 Center     Atomic      Atomic             Coordinates (Angstroms)
 Number     Number       Type             X           Y           Z
 ---------------------------------------------------------------------
      1          6           0       -2.942503    0.451647    1.129501
      2          6           0       -2.330725    0.301556   -0.270957
      3          8           0       -2.877384   -0.815966   -0.967548
      4          6           0       -0.865641    0.244490   -0.212383
      5          6           0        0.333673    0.148072   -0.136474
      6          6           0        1.776181    0.093250   -0.076658
      7          6           0        2.503981    1.325627   -0.572938
      8          6           0        2.445078   -1.224750   -0.100787
      9          8           0        2.325557   -0.500935    1.118564
     10          1           0       -2.662180   -0.396430    1.762465
     11          1           0       -2.589205    1.366657    1.613362
     12          1           0       -4.031860    0.486149    1.046610
     13          1           0       -2.623561    1.167622   -0.876930
     14          1           0       -2.547033   -1.612493   -0.536975
     15          1           0        3.583620    1.187938   -0.475858
     16          1           0        2.259961    1.518974   -1.621752
     17          1           0        2.209319    2.201745    0.011872
     18          1           0        1.844041   -2.129369   -0.173200
     19          1           0        3.451248   -1.294935   -0.513554
 ---------------------------------------------------------------------

 SCF Done:  E(RB3LYP) =  -423.131890477     A.U. after    1 cycles

 The electronic state is 1-A.
 Alpha  occ. eigenvalues --  -19.15578 -19.14107 -10.26661 -10.25866 -10.24006
 Alpha  occ. eigenvalues --  -10.18919 -10.18353 -10.18295 -10.18109  -1.07680
 Alpha  occ. eigenvalues --   -1.02435  -0.79109  -0.76602  -0.72299  -0.66804
 Alpha  occ. eigenvalues --   -0.64993  -0.61504  -0.53760  -0.51543  -0.48154
 Alpha  occ. eigenvalues --   -0.46712  -0.43999  -0.43690  -0.41007  -0.40110
 Alpha  occ. eigenvalues --   -0.39483  -0.38237  -0.37913  -0.34779  -0.32806
 Alpha  occ. eigenvalues --   -0.28844  -0.27911  -0.26306  -0.25419
 Alpha virt. eigenvalues --    0.02389   0.03179   0.09030   0.10342   0.11262
 Alpha virt. eigenvalues --    0.12298   0.13666   0.14447   0.14945   0.15695
 Alpha virt. eigenvalues --    0.16820   0.17363   0.18336   0.19394   0.21154

 Mulliken charges:
               1
     1  C   -0.384849
     2  C   -0.028047
     3  O   -0.412113
     4  C    0.152498
     5  C   -0.025177
     6  C    0.222737
     7  C   -0.467131
     8  C   -0.208850
     9  O   -0.258632
    10  H    0.120667
    11  H    0.127749
    12  H    0.126205
    13  H    0.119985
    14  H    0.282549
    15  H    0.128699
    16  H    0.133445
    17  H    0.137202
    18  H    0.117473
    19  H    0.115590
 Sum of Mulliken charges =   0.00000

 Dipole moment (field-independent basis, Debye):
    X=              0.4687    Y=             -0.0174    Z=             -0.4772  Tot=              0.6691
 Quadrupole moment (field-independent basis, Debye-Ang):
   XX=            -52.3100   YY=            -48.0671   ZZ=            -57.6651
   XY=             -0.9345   XZ=             -8.3890   YZ=             -0.2717

  Exact polarizability: 113.371  -4.896  73.060  -1.448  -0.077  60.616
 Approx polarizability: 155.714  -9.758 104.251   6.909  -0.260  92.891

                      1                      2                      3
                      A                      A                      A
 Frequencies --     18.5201                80.1505                85.0309
 Red. masses --      3.4131                 4.1081                 4.1808
 Frc consts  --      0.0007                 0.0155                 0.0178
 IR Inten    --      2.4851                 1.2973                 1.9018

                      4                      5                      6
                      A                      A                      A
 Frequencies --    189.9830               195.4241               224.3797
 Red. masses --      1.6252                 1.7078                 2.4321
 Frc consts  --      0.0346                 0.0384                 0.0721
 IR Inten    --      3.5446                 2.0585                 1.6931

                      7                      8                      9
                      A                      A                      A
 Frequencies --    252.9645               291.6473               315.1088
 Red. masses --      1.1413                 1.2012                 3.8831
 Frc consts  --      0.0430                 0.0602                 0.2272
 IR Inten    --      2.1717               100.9624                 0.1870

                     10                     11                     12
                      A                      A                      A
 Frequencies --    361.3666               396.0378               484.4031
 Red. masses --      2.5617                 3.1165                 3.6600
 Frc consts  --      0.1971                 0.2880                 0.5060
 IR Inten    --      3.8400                18.0640                 6.3675

                     13                     14                     15
                      A                      A                      A
 Frequencies --    513.5846               576.0072               579.7534
 Red. masses --      4.8902                 5.2540                 5.7724
 Frc consts  --      0.7600                 1.0271                 1.1431
 IR Inten    --     17.8390                 4.9978                 1.4976

                     16                     17                     18
                      A                      A                      A
 Frequencies --    643.3848               779.3589               837.5680
 Red. masses --      3.5579                 4.1446                 3.2750
 Frc consts  --      0.8677                 1.4832                 1.3536
 IR Inten    --     12.2705                12.8424                17.5953

                     19                     20                     21
                      A                      A                      A
 Frequencies --    894.8483               924.8338               982.1485
 Red. masses --      2.1489                 1.6223                 2.1336
 Frc consts  --      1.0138                 0.8175                 1.2126
 IR Inten    --     20.1685                 4.7847                 1.5456

                     22                     23                     24
                      A                      A                      A
 Frequencies --   1032.2724              1045.6000              1090.9235
 Red. masses --      1.8317                 1.6858                 3.1587
 Frc consts  --      1.1500                 1.0859                 2.2149
 IR Inten    --     22.8614                57.1588                20.3038

                     25                     26                     27
                      A                      A                      A
 Frequencies --   1097.6257              1132.8678              1137.5587
 Red. masses --      1.7421                 1.7787                 1.3811
 Frc consts  --      1.2366                 1.3450                 1.0530
 IR Inten    --     16.5086                31.6626                16.2254

                     28                     29                     30
                      A                      A                      A
 Frequencies --   1166.9475              1278.0327              1288.3991
 Red. masses --      1.3343                 1.9641                 1.9225
 Frc consts  --      1.0706                 1.8901                 1.8803
 IR Inten    --      1.5446                30.9122                26.8623

                     31                     32                     33
                      A                      A                      A
 Frequencies --   1336.2124              1368.7739              1399.6814
 Red. masses --      1.4044                 3.3328                 1.2354
 Frc consts  --      1.4774                 3.6790                 1.4260
 IR Inten    --     28.4443                40.1995                 4.9897

                     34                     35                     36
                      A                      A                      A
 Frequencies --   1409.6153              1417.3325              1478.3204
 Red. masses --      1.2961                 1.1881                 1.0469
 Frc consts  --      1.5174                 1.4063                 1.3480
 IR Inten    --      4.4250                80.2417                 3.8710

                     37                     38                     39
                      A                      A                      A
 Frequencies --   1487.7608              1491.2354              1494.3541
 Red. masses --      1.0501                 1.0564                 1.0628
 Frc consts  --      1.3695                 1.3841                 1.3983
 IR Inten    --      7.6414                 1.2134                 0.6834

                     40                     41                     42
                      A                      A                      A
 Frequencies --   1522.2306              2353.4509              3037.9772
 Red. masses --      1.2494                11.9568                 1.0664
 Frc consts  --      1.7058                39.0188                 5.7988
 IR Inten    --      2.1511                 0.0919                11.5844

                     43                     44                     45
                      A                      A                      A
 Frequencies --   3041.7770              3044.9777              3080.4714
 Red. masses --      1.0500                 1.0344                 1.0504
 Frc consts  --      5.7241                 5.6506                 5.8728
 IR Inten    --     16.7611                13.5124                27.3963

                     46                     47                     48
                      A                      A                      A
 Frequencies --   3116.3090              3117.0632              3128.7035
 Red. masses --      1.1015                 1.1015                 1.1033
 Frc consts  --      6.3025                 6.3057                 6.3630
 IR Inten    --     22.3884                13.0971                22.6745

                     49                     50                     51
                      A                      A                      A
 Frequencies --   3129.8020              3172.2101              3802.9998
 Red. masses --      1.1028                 1.1196                 1.0661
 Frc consts  --      6.3649                 6.6380                 9.0843
 IR Inten    --     14.8152                22.5539                16.4244

 - Thermochemistry -
 -------------------
 Temperature   298.150 Kelvin.  Pressure   1.00000 Atm.
 Atom     1 has atomic number  6 and mass  12.00000

 Molecular mass:   126.06808 amu.
 Principal axes and moments of inertia in atomic units:
                           1         2         3
     Eigenvalues --   522.077612615.960352661.63027
           X            0.99961   0.00098  -0.02789
           Y           -0.00125   0.99995  -0.00982
           Z            0.02788   0.00986   0.99956
 This molecule is an asymmetric top.
 Rotational symmetry number  1.
 Warning -- assumption of classical behavior for rotation
           may cause significant error
 Rotational temperatures (Kelvin)      0.16590     0.03311     0.03254
 Rotational constants (GHZ):           3.45684     0.68990     0.67806
 Zero-point vibrational energy     408692.1 (Joules/Mol)
                                   97.67976 (Kcal/Mol)
 Warning -- explicit consideration of  15 degrees of freedom as
           vibrations may cause significant error
 Vibrational temperatures:     26.65   115.32   122.34   273.34   281.17
          (Kelvin)            322.83   363.96   419.61   453.37   519.93
                              569.81   696.95   738.93   828.74   834.13
                              925.69  1121.32  1205.07  1287.49  1330.63
                             1413.09  1485.21  1504.38  1569.59  1579.24
                             1629.94  1636.69  1678.98  1838.80  1853.72
                             1922.51  1969.36  2013.83  2028.12  2039.22
                             2126.97  2140.55  2145.55  2150.04  2190.15
                             3386.09  4370.97  4376.43  4381.04  4432.11
                             4483.67  4484.75  4501.50  4503.08  4564.10
                             5471.66

 Zero-point correction=                           0.155663 (Hartree/Particle)
 Thermal correction to Energy=                    0.166075
 Thermal correction to Enthalpy=                  0.167019
 Thermal correction to Gibbs Free Energy=         0.118758
 Sum of electronic and zero-point Energies=           -422.976228
 Sum of electronic and thermal Energies=              -422.965816
 Sum of electronic and thermal Enthalpies=            -422.964872
 Sum of electronic and thermal Free Energies=         -423.013133

                     E (Thermal)             CV                S
                      KCal/Mol        Cal/Mol-Kelvin    Cal/Mol-Kelvin
 Total                  104.213             36.976            101.574
 Electronic               0.000              0.000              0.000
 Translational            0.889              2.981             40.409
 Rotational               0.889              2.981             29.676
 Vibrational            102.436             31.015             31.490
 Vibration     1          0.593              1.986              6.787
 Vibration     2          0.600              1.963              3.887
 Vibration     3          0.601              1.960              3.771
 Vibration     4          0.633              1.854              2.228
 Vibration     5          0.636              1.846              2.176
 Vibration     6          0.649              1.804              1.923
 Vibration     7          0.664              1.758              1.710
 Vibration     8          0.687              1.689              1.464
 Vibration     9          0.702              1.645              1.335
 Vibration    10          0.736              1.552              1.116
 Vibration    11          0.763              1.479              0.977
 Vibration    12          0.841              1.285              0.698
 Vibration    13          0.869              1.220              0.625
 Vibration    14          0.932              1.083              0.493
 Vibration    15          0.936              1.075              0.486

 Optimization completed.
    -- Stationary point found.
 Normal termination of Gaussian 09 at Mon Jan 27 14:52:58 2020.
