 Gaussian 09, Revision D.01,
 Gaussian 09:  ES64L-G09RevD.01 24-Apr-2013

 -----------------------------
 # b3lyp 6-31G(2df,p) opt Freq
 -----------------------------

 -----
 titel
 -----
 Symbolic Z-matrix:
 Charge =  0 Multiplicity = 1

 SCF Done:  E(RB3LYP) =  -423.172414925     A.U. after   13 cycles
 Optimization completed.
    -- Stationary point found.
 Normal termination of Gaussian 09 at Mon Jan 27 17:14:12 2020.

 ----------------------------------------------------------------------
 #N Geom=AllCheck Guess=TCheck SCRF=Check GenChk RB3LYP/6-31G(2df,p) Fr
 eq
 ----------------------------------------------------------------------

 Structure from the checkpoint file:  "/scratch/puck/g09_9a6d5221-42d8-4234-b00d-6a07003b1ae7/Gau-86031.chk"
 -----
 titel
 -----
 Charge =  0 Multiplicity = 1

                         Standard orientation:
 ---------------------------------------------------------------------
 Center     Atomic      Atomic             Coordinates (Angstroms)
 Number     Number       Type             X           Y           Z
 ---------------------------------------------------------------------
      1          6           0        1.944858   -1.139157   -0.622626
      2          6           0        0.691623   -0.649069    0.049261
      3          6           0       -0.546863   -1.550438    0.062450
      4          6           0       -1.707138   -0.579025    0.206918
      5          8           0       -1.852871    0.316556   -0.907226
      6          6           0       -1.213010    0.797755    0.285596
      7          6           0        0.292636    0.767785    0.187331
      8          6           0        1.032436    1.970553   -0.324860
      9          8           0        0.864387    0.050016    1.300490
     10          1           0        2.295579   -2.060619   -0.144448
     11          1           0        1.754975   -1.360917   -1.677934
     12          1           0        2.747672   -0.402211   -0.556538
     13          1           0       -0.631019   -2.133281   -0.860977
     14          1           0       -0.504860   -2.249945    0.904566
     15          1           0       -2.638241   -0.887802    0.673596
     16          1           0       -1.728977    1.595665    0.814567
     17          1           0        0.901109    2.818087    0.357029
     18          1           0        2.102801    1.775404   -0.415317
     19          1           0        0.641585    2.262628   -1.305088
 ---------------------------------------------------------------------

 SCF Done:  E(RB3LYP) =  -423.172414925     A.U. after    1 cycles

 The electronic state is 1-A.
 Alpha  occ. eigenvalues --  -19.15063 -19.14367 -10.24100 -10.23939 -10.23746
 Alpha  occ. eigenvalues --  -10.23492 -10.19070 -10.18517 -10.18500  -1.08063
 Alpha  occ. eigenvalues --   -1.05507  -0.78130  -0.75671  -0.73176  -0.67204
 Alpha  occ. eigenvalues --   -0.62757  -0.58041  -0.54384  -0.51312  -0.46583
 Alpha  occ. eigenvalues --   -0.45631  -0.44566  -0.43055  -0.41927  -0.40787
 Alpha  occ. eigenvalues --   -0.39676  -0.38374  -0.37490  -0.36153  -0.35619
 Alpha  occ. eigenvalues --   -0.29642  -0.28429  -0.27253  -0.25434
 Alpha virt. eigenvalues --    0.07636   0.09127   0.10513   0.11414   0.11912
 Alpha virt. eigenvalues --    0.12671   0.14070   0.14595   0.16236   0.16942
 Alpha virt. eigenvalues --    0.17445   0.18649   0.19415   0.20254   0.21932

 Mulliken charges:
               1
     1  C   -0.487167
     2  C    0.356560
     3  C   -0.316363
     4  C    0.057624
     5  O   -0.262730
     6  C   -0.041579
     7  C    0.332655
     8  C   -0.502398
     9  O   -0.340935
    10  H    0.128862
    11  H    0.127517
    12  H    0.129762
    13  H    0.113384
    14  H    0.113759
    15  H    0.098494
    16  H    0.096910
    17  H    0.128764
    18  H    0.129694
    19  H    0.137188
 Sum of Mulliken charges =   0.00000

 Dipole moment (field-independent basis, Debye):
    X=              0.3962    Y=             -0.3867    Z=             -0.2128  Tot=              0.5931
 Quadrupole moment (field-independent basis, Debye-Ang):
   XX=            -53.3576   YY=            -48.2341   ZZ=            -57.0856
   XY=              0.8326   XZ=             -5.7098   YZ=              0.7574

  Exact polarizability:  77.045  -0.023  83.949  -2.739   1.020  60.861
 Approx polarizability: 103.073  -0.806 119.807   3.759   1.071 103.525

                      1                      2                      3
                      A                      A                      A
 Frequencies --    159.1125               174.8725               177.2516
 Red. masses --      2.9160                 1.1348                 1.0397
 Frc consts  --      0.0435                 0.0204                 0.0192
 IR Inten    --      2.6355                 0.5914                 0.1661

                      4                      5                      6
                      A                      A                      A
 Frequencies --    202.8177               253.0662               342.1444
 Red. masses --      3.0150                 2.2635                 2.4455
 Frc consts  --      0.0731                 0.0854                 0.1687
 IR Inten    --      3.9317                 0.3827                 1.8101

                      7                      8                      9
                      A                      A                      A
 Frequencies --    371.2312               435.5055               468.3024
 Red. masses --      2.3434                 3.6540                 4.0453
 Frc consts  --      0.1903                 0.4083                 0.5227
 IR Inten    --      5.1695                 8.6447                 8.4456

                     10                     11                     12
                      A                      A                      A
 Frequencies --    502.9724               565.6128               653.6095
 Red. masses --      4.7612                 4.2739                 3.9521
 Frc consts  --      0.7097                 0.8056                 0.9948
 IR Inten    --      0.7842                 3.7565                 0.6843

                     13                     14                     15
                      A                      A                      A
 Frequencies --    715.3337               763.1991               823.3981
 Red. masses --      4.3297                 4.7095                 4.7143
 Frc consts  --      1.3054                 1.6162                 1.8832
 IR Inten    --      6.4104                 8.3622                 6.0965

                     16                     17                     18
                      A                      A                      A
 Frequencies --    867.3005               883.5121               906.7254
 Red. masses --      1.9841                 2.4679                 3.0293
 Frc consts  --      0.8793                 1.1350                 1.4674
 IR Inten    --     28.6281                15.6381                 4.3851

                     19                     20                     21
                      A                      A                      A
 Frequencies --    942.0204               977.4345               999.1917
 Red. masses --      2.4572                 1.5876                 1.9592
 Frc consts  --      1.2847                 0.8937                 1.1524
 IR Inten    --      8.2368                 4.3376                 2.4674

                     22                     23                     24
                      A                      A                      A
 Frequencies --   1023.6836              1083.7159              1090.2249
 Red. masses --      1.3101                 1.8741                 1.4448
 Frc consts  --      0.8089                 1.2968                 1.0118
 IR Inten    --     10.8602                 0.5120                12.3155

                     25                     26                     27
                      A                      A                      A
 Frequencies --   1128.7884              1143.7611              1203.1287
 Red. masses --      1.9569                 2.3759                 1.6652
 Frc consts  --      1.4691                 1.8312                 1.4202
 IR Inten    --      8.4186                16.1609                 5.5999

                     28                     29                     30
                      A                      A                      A
 Frequencies --   1228.0491              1241.4925              1263.8752
 Red. masses --      1.6780                 1.8598                 1.5910
 Frc consts  --      1.4910                 1.6889                 1.4974
 IR Inten    --      2.5651                12.7753                 6.8106

                     31                     32                     33
                      A                      A                      A
 Frequencies --   1316.7027              1351.3078              1407.6074
 Red. masses --      2.0123                 1.7007                 1.4382
 Frc consts  --      2.0555                 1.8298                 1.6790
 IR Inten    --     14.8577                 2.0059                 0.6924

                     34                     35                     36
                      A                      A                      A
 Frequencies --   1413.8539              1435.6339              1454.5867
 Red. masses --      1.3195                 2.9425                 2.1702
 Frc consts  --      1.5540                 3.5732                 2.7054
 IR Inten    --      7.0535                12.9182                10.3797

                     37                     38                     39
                      A                      A                      A
 Frequencies --   1467.3772              1476.8068              1485.3542
 Red. masses --      1.1272                 1.0460                 1.0481
 Frc consts  --      1.4299                 1.3441                 1.3624
 IR Inten    --      1.2713                 2.4579                 0.7959

                     40                     41                     42
                      A                      A                      A
 Frequencies --   1496.8946              1511.9657              3036.0608
 Red. masses --      1.1239                 1.4304                 1.0382
 Frc consts  --      1.4838                 1.9266                 5.6381
 IR Inten    --     13.3227                 8.3035                15.3612

                     43                     44                     45
                      A                      A                      A
 Frequencies --   3038.3329              3044.6352              3087.8804
 Red. masses --      1.0386                 1.0570                 1.1041
 Frc consts  --      5.6491                 5.7729                 6.2029
 IR Inten    --     19.1058                28.5386                 8.1312

                     46                     47                     48
                      A                      A                      A
 Frequencies --   3097.4883              3099.4991              3128.5291
 Red. masses --      1.1000                 1.0998                 1.1007
 Frc consts  --      6.2180                 6.2250                 6.3474
 IR Inten    --     14.5047                18.2785                 9.7743

                     49                     50                     51
                      A                      A                      A
 Frequencies --   3134.8979              3140.3284              3158.8077
 Red. masses --      1.0990                 1.0881                 1.0943
 Frc consts  --      6.3634                 6.3223                 6.4330
 IR Inten    --     21.0977                20.5264                33.3714

 - Thermochemistry -
 -------------------
 Temperature   298.150 Kelvin.  Pressure   1.00000 Atm.
 Atom     1 has atomic number  6 and mass  12.00000

 Molecular mass:   126.06808 amu.
 Principal axes and moments of inertia in atomic units:
                           1         2         3
     Eigenvalues --   741.19883 986.485771331.67664
           X            0.99815   0.02299  -0.05624
           Y           -0.02271   0.99973   0.00561
           Z            0.05635  -0.00432   0.99840
 This molecule is an asymmetric top.
 Rotational symmetry number  1.
 Warning -- assumption of classical behavior for rotation
           may cause significant error
 Rotational temperatures (Kelvin)      0.11686     0.08780     0.06504
 Rotational constants (GHZ):           2.43489     1.82947     1.35524
 Zero-point vibrational energy     414959.9 (Joules/Mol)
                                   99.17780 (Kcal/Mol)
 Warning -- explicit consideration of  11 degrees of freedom as
           vibrations may cause significant error
 Vibrational temperatures:    228.93   251.60   255.03   291.81   364.11
          (Kelvin)            492.27   534.12   626.59   673.78   723.66
                              813.79   940.40  1029.20  1098.07  1184.68
                             1247.85  1271.18  1304.57  1355.36  1406.31
                             1437.61  1472.85  1559.22  1568.59  1624.07
                             1645.62  1731.03  1766.89  1786.23  1818.43
                             1894.44  1944.23  2025.23  2034.22  2065.55
                             2092.82  2111.23  2124.79  2137.09  2153.69
                             2175.38  4368.21  4371.48  4380.55  4442.77
                             4456.59  4459.48  4501.25  4510.41  4518.23
                             4544.81

 Zero-point correction=                           0.158050 (Hartree/Particle)
 Thermal correction to Energy=                    0.166338
 Thermal correction to Enthalpy=                  0.167282
 Thermal correction to Gibbs Free Energy=         0.125756
 Sum of electronic and zero-point Energies=           -423.014365
 Sum of electronic and thermal Energies=              -423.006077
 Sum of electronic and thermal Enthalpies=            -423.005133
 Sum of electronic and thermal Free Energies=         -423.046659

                     E (Thermal)             CV                S
                      KCal/Mol        Cal/Mol-Kelvin    Cal/Mol-Kelvin
 Total                  104.379             32.424             87.399
 Electronic               0.000              0.000              0.000
 Translational            0.889              2.981             40.409
 Rotational               0.889              2.981             28.367
 Vibrational            102.601             26.462             18.623
 Vibration     1          0.621              1.892              2.560
 Vibration     2          0.627              1.873              2.382
 Vibration     3          0.628              1.870              2.357
 Vibration     4          0.639              1.836              2.107
 Vibration     5          0.664              1.758              1.709
 Vibration     6          0.721              1.591              1.202
 Vibration     7          0.743              1.531              1.075
 Vibration     8          0.796              1.393              0.841
 Vibration     9          0.825              1.320              0.742
 Vibration    10          0.858              1.243              0.651
 Vibration    11          0.921              1.106              0.513

 Normal termination of Gaussian 09 at Mon Jan 27 17:57:01 2020.
