 Gaussian 09, Revision D.01,
 Gaussian 09:  ES64L-G09RevD.01 24-Apr-2013

 -----------------------------
 # b3lyp 6-31G(2df,p) opt Freq
 -----------------------------

 -----
 titel
 -----
 Symbolic Z-matrix:
 Charge =  0 Multiplicity = 1

 SCF Done:  E(RB3LYP) =  -423.231324884     A.U. after   14 cycles
 Optimization completed.
    -- Stationary point found.
 Normal termination of Gaussian 09 at Mon Jan 27 22:03:52 2020.

 ----------------------------------------------------------------------
 #N Geom=AllCheck Guess=TCheck SCRF=Check GenChk RB3LYP/6-31G(2df,p) Fr
 eq
 ----------------------------------------------------------------------

 Structure from the checkpoint file:  "/scratch/puck/g09_2cace298-5cd5-4d88-b316-7c84b64caee5/Gau-72648.chk"
 -----
 titel
 -----
 Charge =  0 Multiplicity = 1

                         Standard orientation:
 ---------------------------------------------------------------------
 Center     Atomic      Atomic             Coordinates (Angstroms)
 Number     Number       Type             X           Y           Z
 ---------------------------------------------------------------------
      1          6           0       -0.620532    1.845971   -0.765510
      2          6           0       -0.525493    0.854862    0.407150
      3          6           0        0.922247    0.366270    0.658872
      4          8           0        1.942777    1.214729    0.208059
      5          6           0        0.967037   -1.000330   -0.035349
      6          8           0        1.995897   -1.502839   -0.438166
      7          6           0       -0.419457   -1.467600   -0.135672
      8          6           0       -1.262082   -0.448615    0.122692
      9          6           0       -2.753728   -0.505016    0.116079
     10          1           0       -1.655496    2.158935   -0.932182
     11          1           0       -0.017783    2.731248   -0.554634
     12          1           0       -0.242472    1.397073   -1.688588
     13          1           0       -0.947038    1.335286    1.298775
     14          1           0        1.032742    0.168604    1.740038
     15          1           0        2.615360    0.624913   -0.165958
     16          1           0       -0.697318   -2.472429   -0.428855
     17          1           0       -3.150572   -0.202570    1.093510
     18          1           0       -3.170059    0.196783   -0.616185
     19          1           0       -3.124703   -1.506203   -0.114642
 ---------------------------------------------------------------------

 SCF Done:  E(RB3LYP) =  -423.231324884     A.U. after    1 cycles

 The electronic state is 1-A.
 Alpha  occ. eigenvalues --  -19.13469 -19.12922 -10.26118 -10.23304 -10.22515
 Alpha  occ. eigenvalues --  -10.20488 -10.20305 -10.19218 -10.18291  -1.04510
 Alpha  occ. eigenvalues --   -1.01228  -0.86438  -0.75914  -0.74499  -0.67926
 Alpha  occ. eigenvalues --   -0.62763  -0.55909  -0.54559  -0.49973  -0.47836
 Alpha  occ. eigenvalues --   -0.46313  -0.44622  -0.43131  -0.42178  -0.40743
 Alpha  occ. eigenvalues --   -0.39687  -0.38598  -0.37288  -0.36133  -0.34482
 Alpha  occ. eigenvalues --   -0.33908  -0.27291  -0.27023  -0.24332
 Alpha virt. eigenvalues --   -0.04765   0.04639   0.08366   0.10648   0.11857
 Alpha virt. eigenvalues --    0.12754   0.13715   0.15325   0.16177   0.16478
 Alpha virt. eigenvalues --    0.17610   0.18950   0.19967   0.21084   0.23308

 Mulliken charges:
               1
     1  C   -0.384395
     2  C   -0.135199
     3  C    0.039354
     4  O   -0.437165
     5  C    0.351198
     6  O   -0.360705
     7  C   -0.293142
     8  C    0.330117
     9  C   -0.491687
    10  H    0.109490
    11  H    0.142794
    12  H    0.125192
    13  H    0.081871
    14  H    0.093990
    15  H    0.292411
    16  H    0.113531
    17  H    0.141326
    18  H    0.145458
    19  H    0.135562
 Sum of Mulliken charges =   0.00000

 Dipole moment (field-independent basis, Debye):
    X=             -3.6690    Y=              0.2960    Z=              0.6529  Tot=              3.7384
 Quadrupole moment (field-independent basis, Debye-Ang):
   XX=            -53.6419   YY=            -56.4760   ZZ=            -52.6673
   XY=              2.2228   XZ=              0.4488   YZ=             -1.2235

  Exact polarizability:  98.166  -6.096  81.425  -3.320   3.344  58.200
 Approx polarizability: 148.986 -21.059 123.692 -11.921  10.034  91.604

                      1                      2                      3
                      A                      A                      A
 Frequencies --     74.8527               135.0234               177.9284
 Red. masses --      4.2665                 1.5961                 1.7072
 Frc consts  --      0.0141                 0.0171                 0.0318
 IR Inten    --      0.4441                 0.3751                 0.8735

                      4                      5                      6
                      A                      A                      A
 Frequencies --    205.7743               243.3446               262.9757
 Red. masses --      1.0876                 2.7700                 2.9775
 Frc consts  --      0.0271                 0.0966                 0.1213
 IR Inten    --      0.4832                 2.4649                 4.6852

                      7                      8                      9
                      A                      A                      A
 Frequencies --    276.5232               305.6141               426.4099
 Red. masses --      5.0271                 3.0056                 1.1936
 Frc consts  --      0.2265                 0.1654                 0.1279
 IR Inten    --     17.6392                 1.7313                55.4392

                     10                     11                     12
                      A                      A                      A
 Frequencies --    473.3116               507.1016               570.8833
 Red. masses --      4.5191                 3.1368                 3.5673
 Frc consts  --      0.5965                 0.4753                 0.6850
 IR Inten    --      7.2569                19.4295                 1.8592

                     13                     14                     15
                      A                      A                      A
 Frequencies --    601.7827               646.0374               736.7769
 Red. masses --      3.7792                 3.8132                 3.4071
 Frc consts  --      0.8064                 0.9377                 1.0897
 IR Inten    --      2.3081                 6.1660                 4.4729

                     16                     17                     18
                      A                      A                      A
 Frequencies --    789.1212               846.0650               896.9816
 Red. masses --      2.8104                 1.8342                 2.1649
 Frc consts  --      1.0311                 0.7736                 1.0262
 IR Inten    --      2.3227                10.0383                 8.5224

                     19                     20                     21
                      A                      A                      A
 Frequencies --    905.3285              1003.1246              1033.4961
 Red. masses --      2.2602                 1.4481                 1.4224
 Frc consts  --      1.0915                 0.8585                 0.8951
 IR Inten    --     15.7228                 4.9885                 3.7263

                     22                     23                     24
                      A                      A                      A
 Frequencies --   1062.7137              1071.8234              1112.6663
 Red. masses --      1.6450                 2.1432                 2.3852
 Frc consts  --      1.0946                 1.4506                 1.7398
 IR Inten    --     11.5294                13.5949                 1.3234

                     25                     26                     27
                      A                      A                      A
 Frequencies --   1154.8993              1160.7980              1203.5859
 Red. masses --      4.2592                 1.9558                 1.9115
 Frc consts  --      3.3471                 1.5527                 1.6315
 IR Inten    --     91.6869                63.6484                 8.3837

                     28                     29                     30
                      A                      A                      A
 Frequencies --   1227.0255              1298.1010              1332.8310
 Red. masses --      1.4494                 1.4944                 2.2709
 Frc consts  --      1.2857                 1.4836                 2.3768
 IR Inten    --     14.0616                28.1323                 1.5677

                     31                     32                     33
                      A                      A                      A
 Frequencies --   1343.3059              1365.9174              1403.1352
 Red. masses --      1.3654                 1.5162                 1.2962
 Frc consts  --      1.4517                 1.6667                 1.5035
 IR Inten    --      3.0713                 4.0954                13.7747

                     34                     35                     36
                      A                      A                      A
 Frequencies --   1409.5200              1419.1543              1474.9200
 Red. masses --      1.2777                 1.4013                 1.0503
 Frc consts  --      1.4956                 1.6628                 1.3462
 IR Inten    --      7.0839                47.9510                 7.9462

                     37                     38                     39
                      A                      A                      A
 Frequencies --   1477.6903              1492.6502              1494.7519
 Red. masses --      1.0729                 1.0460                 1.0564
 Frc consts  --      1.3803                 1.3731                 1.3906
 IR Inten    --     17.2011                 4.4167                 4.3987

                     40                     41                     42
                      A                      A                      A
 Frequencies --   1660.9846              1804.5320              2942.8949
 Red. masses --      6.6174                12.2389                 1.0804
 Frc consts  --     10.7564                23.4812                 5.5131
 IR Inten    --     72.2770               293.8553                35.6634

                     43                     44                     45
                      A                      A                      A
 Frequencies --   3025.0091              3029.6156              3046.2259
 Red. masses --      1.0486                 1.0729                 1.0357
 Frc consts  --      5.6534                 5.8020                 5.6627
 IR Inten    --      5.5028                30.3823                19.1376

                     46                     47                     48
                      A                      A                      A
 Frequencies --   3076.7701              3115.2698              3124.2161
 Red. masses --      1.0967                 1.1020                 1.1002
 Frc consts  --      6.1170                 6.3014                 6.3272
 IR Inten    --     11.2483                24.3793                15.4312

                     49                     50                     51
                      A                      A                      A
 Frequencies --   3137.3409              3212.1767              3707.9096
 Red. masses --      1.1007                 1.0955                 1.0652
 Frc consts  --      6.3831                 6.6599                 8.6290
 IR Inten    --     11.0103                 5.0168                41.1546

 - Thermochemistry -
 -------------------
 Temperature   298.150 Kelvin.  Pressure   1.00000 Atm.
 Atom     1 has atomic number  6 and mass  12.00000

 Molecular mass:   126.06808 amu.
 Principal axes and moments of inertia in atomic units:
                           1         2         3
     Eigenvalues --   743.626051201.088511736.67558
           X            0.99977   0.02110   0.00439
           Y           -0.02101   0.99957  -0.02030
           Z           -0.00482   0.02020   0.99978
 This molecule is an asymmetric top.
 Rotational symmetry number  1.
 Warning -- assumption of classical behavior for rotation
           may cause significant error
 Rotational temperatures (Kelvin)      0.11647     0.07211     0.04987
 Rotational constants (GHZ):           2.42695     1.50259     1.03919
 Zero-point vibrational energy     415743.5 (Joules/Mol)
                                   99.36509 (Kcal/Mol)
 Warning -- explicit consideration of  13 degrees of freedom as
           vibrations may cause significant error
 Vibrational temperatures:    107.70   194.27   256.00   296.06   350.12
          (Kelvin)            378.36   397.85   439.71   613.51   680.99
                              729.61   821.37   865.83   929.50  1060.06
                             1135.37  1217.30  1290.55  1302.56  1443.27
                             1486.97  1529.01  1542.11  1600.88  1661.64
                             1670.13  1731.69  1765.41  1867.68  1917.64
                             1932.72  1965.25  2018.80  2027.98  2041.84
                             2122.08  2126.06  2147.59  2150.61  2389.78
                             2596.32  4234.16  4352.31  4358.94  4382.83
                             4426.78  4482.17  4495.04  4513.93  4621.60
                             5334.85

 Zero-point correction=                           0.158348 (Hartree/Particle)
 Thermal correction to Energy=                    0.167490
 Thermal correction to Enthalpy=                  0.168434
 Thermal correction to Gibbs Free Energy=         0.124636
 Sum of electronic and zero-point Energies=           -423.072977
 Sum of electronic and thermal Energies=              -423.063835
 Sum of electronic and thermal Enthalpies=            -423.062891
 Sum of electronic and thermal Free Energies=         -423.106689

                     E (Thermal)             CV                S
                      KCal/Mol        Cal/Mol-Kelvin    Cal/Mol-Kelvin
 Total                  105.102             34.141             92.181
 Electronic               0.000              0.000              0.000
 Translational            0.889              2.981             40.409
 Rotational               0.889              2.981             28.830
 Vibrational            103.324             28.180             22.943
 Vibration     1          0.599              1.966              4.022
 Vibration     2          0.613              1.918              2.873
 Vibration     3          0.628              1.869              2.350
 Vibration     4          0.640              1.832              2.081
 Vibration     5          0.659              1.774              1.778
 Vibration     6          0.670              1.741              1.642
 Vibration     7          0.678              1.717              1.555
 Vibration     8          0.696              1.663              1.386
 Vibration     9          0.788              1.413              0.870
 Vibration    10          0.830              1.309              0.728
 Vibration    11          0.862              1.234              0.641
 Vibration    12          0.927              1.094              0.503
 Vibration    13          0.960              1.028              0.447

 Optimization completed.
    -- Stationary point found.
 Normal termination of Gaussian 09 at Mon Jan 27 22:48:15 2020.
