 Gaussian 09, Revision D.01,
 Gaussian 09:  ES64L-G09RevD.01 24-Apr-2013

 -----------------------------
 # b3lyp 6-31G(2df,p) opt Freq
 -----------------------------

 -----
 titel
 -----
 Symbolic Z-matrix:
 Charge =  0 Multiplicity = 1

 SCF Done:  E(RB3LYP) =  -423.168550834     A.U. after   14 cycles
 Optimization completed.
    -- Stationary point found.
 Normal termination of Gaussian 09 at Tue Jan 28 01:52:48 2020.

 ----------------------------------------------------------------------
 #N Geom=AllCheck Guess=TCheck SCRF=Check GenChk RB3LYP/6-31G(2df,p) Fr
 eq
 ----------------------------------------------------------------------

 Structure from the checkpoint file:  "/scratch/puck/g09_5fbdd7ef-bad5-4c2b-9bdb-39a526290e88/Gau-190668.chk"
 -----
 titel
 -----
 Charge =  0 Multiplicity = 1

                         Standard orientation:
 ---------------------------------------------------------------------
 Center     Atomic      Atomic             Coordinates (Angstroms)
 Number     Number       Type             X           Y           Z
 ---------------------------------------------------------------------
      1          6           0        2.964058   -1.022704   -0.277123
      2          6           0        2.133815    0.225234   -0.416229
      3          8           0        1.825029    0.940080    0.798263
      4          6           0        0.761700    0.343726    0.086975
      5          6           0       -0.418037    1.104245   -0.519125
      6          6           0       -1.273762   -0.196227   -0.339868
      7          6           0       -0.169684   -0.741864    0.629552
      8          6           0       -2.640378   -0.009187    0.254334
      9          8           0       -3.667263   -0.432777   -0.209074
     10          1           0        4.011216   -0.766145   -0.086612
     11          1           0        2.609848   -1.641522    0.551124
     12          1           0        2.926150   -1.613507   -1.198954
     13          1           0        2.414966    0.882459   -1.241884
     14          1           0       -0.755167    1.906131    0.147177
     15          1           0       -0.320469    1.499817   -1.531977
     16          1           0       -1.353185   -0.779424   -1.258312
     17          1           0       -0.423092   -0.557930    1.679404
     18          1           0        0.118160   -1.788371    0.511671
     19          1           0       -2.636835    0.580724    1.203757
 ---------------------------------------------------------------------

 SCF Done:  E(RB3LYP) =  -423.168550834     A.U. after    1 cycles

 The electronic state is 1-A.
 Alpha  occ. eigenvalues --  -19.15330 -19.14115 -10.27226 -10.24887 -10.24367
 Alpha  occ. eigenvalues --  -10.20788 -10.20324 -10.20225 -10.19019  -1.07642
 Alpha  occ. eigenvalues --   -1.04804  -0.85930  -0.75281  -0.69134  -0.68648
 Alpha  occ. eigenvalues --   -0.62056  -0.57841  -0.54992  -0.51286  -0.48366
 Alpha  occ. eigenvalues --   -0.47391  -0.45061  -0.43387  -0.41342  -0.40811
 Alpha  occ. eigenvalues --   -0.40485  -0.39702  -0.38660  -0.35400  -0.34100
 Alpha  occ. eigenvalues --   -0.33100  -0.29343  -0.26870  -0.25256
 Alpha virt. eigenvalues --   -0.02628   0.06789   0.09004   0.10372   0.11694
 Alpha virt. eigenvalues --    0.12082   0.12678   0.13195   0.15096   0.16021
 Alpha virt. eigenvalues --    0.16839   0.17742   0.18457   0.19166   0.20034

 Mulliken charges:
               1
     1  C   -0.416167
     2  C   -0.027178
     3  O   -0.292884
     4  C    0.455306
     5  C   -0.346102
     6  C   -0.066587
     7  C   -0.344906
     8  C    0.163911
     9  O   -0.251398
    10  H    0.134482
    11  H    0.128633
    12  H    0.123670
    13  H    0.092864
    14  H    0.120779
    15  H    0.119791
    16  H    0.096551
    17  H    0.121014
    18  H    0.119672
    19  H    0.068550
 Sum of Mulliken charges =   0.00000

 Dipole moment (field-independent basis, Debye):
    X=              2.2662    Y=             -0.3839    Z=             -0.7616  Tot=              2.4214
 Quadrupole moment (field-independent basis, Debye-Ang):
   XX=            -66.0245   YY=            -52.9801   ZZ=            -52.4908
   XY=             -5.6195   XZ=             -5.6201   YZ=             -1.9190

  Exact polarizability: 100.783  -1.103  67.645  -2.476   0.647  66.164
 Approx polarizability: 130.615   5.209 101.147   2.119   5.627 104.917

                      1                      2                      3
                      A                      A                      A
 Frequencies --     54.6900                74.6527               168.3609
 Red. masses --      4.2565                 5.2563                 1.8276
 Frc consts  --      0.0075                 0.0173                 0.0305
 IR Inten    --      2.9171                 6.6517                 0.9950

                      4                      5                      6
                      A                      A                      A
 Frequencies --    187.1171               212.7293               289.0456
 Red. masses --      1.3501                 2.4300                 2.6260
 Frc consts  --      0.0279                 0.0648                 0.1293
 IR Inten    --      0.7742                 2.0453                 0.8815

                      7                      8                      9
                      A                      A                      A
 Frequencies --    320.5225               377.9515               413.7547
 Red. masses --      2.4422                 2.5102                 4.4503
 Frc consts  --      0.1478                 0.2113                 0.4489
 IR Inten    --      2.1259                 4.3433                 2.5067

                     10                     11                     12
                      A                      A                      A
 Frequencies --    457.3376               481.6174               599.6929
 Red. masses --      3.5224                 2.6711                 3.9634
 Frc consts  --      0.4341                 0.3650                 0.8398
 IR Inten    --      6.8421                 0.1711                17.7136

                     13                     14                     15
                      A                      A                      A
 Frequencies --    743.3223               790.5981               826.3825
 Red. masses --      2.3612                 2.8685                 1.3781
 Frc consts  --      0.7687                 1.0564                 0.5545
 IR Inten    --     13.2491                 5.2528                 1.1191

                     16                     17                     18
                      A                      A                      A
 Frequencies --    870.5183               885.6286               938.1359
 Red. masses --      2.5964                 3.2297                 3.0694
 Frc consts  --      1.1592                 1.4925                 1.5916
 IR Inten    --     29.3899                 0.0326                11.5325

                     19                     20                     21
                      A                      A                      A
 Frequencies --    973.3424              1006.3799              1037.6013
 Red. masses --      1.3400                 2.5324                 1.1803
 Frc consts  --      0.7480                 1.5112                 0.7487
 IR Inten    --      6.7731                 0.8644                 1.5835

                     22                     23                     24
                      A                      A                      A
 Frequencies --   1057.1900              1076.0287              1126.8143
 Red. masses --      2.8349                 1.8368                 2.5186
 Frc consts  --      1.8668                 1.2530                 1.8842
 IR Inten    --     41.7148                 0.9142                10.5944

                     25                     26                     27
                      A                      A                      A
 Frequencies --   1143.4591              1161.0133              1194.4312
 Red. masses --      2.0269                 2.6794                 1.7028
 Frc consts  --      1.5614                 2.1280                 1.4313
 IR Inten    --      1.0866                42.3548                 9.3246

                     28                     29                     30
                      A                      A                      A
 Frequencies --   1215.3672              1231.5786              1248.6629
 Red. masses --      1.6195                 1.4209                 1.4353
 Frc consts  --      1.4094                 1.2698                 1.3185
 IR Inten    --     11.4070                 1.0018                 1.3448

                     31                     32                     33
                      A                      A                      A
 Frequencies --   1260.9290              1316.1744              1356.8461
 Red. masses --      1.2894                 1.5273                 1.3174
 Frc consts  --      1.2078                 1.5589                 1.4290
 IR Inten    --      0.3804                 1.9053                17.1883

                     34                     35                     36
                      A                      A                      A
 Frequencies --   1408.6059              1429.1464              1463.5186
 Red. masses --      1.2725                 1.2024                 1.0943
 Frc consts  --      1.4876                 1.4469                 1.3809
 IR Inten    --      5.1169                 4.1696                 4.0718

                     37                     38                     39
                      A                      A                      A
 Frequencies --   1470.6328              1487.0505              1490.5169
 Red. masses --      1.2197                 1.0979                 1.0805
 Frc consts  --      1.5542                 1.4304                 1.4143
 IR Inten    --      7.0504                 1.7551                 7.7528

                     40                     41                     42
                      A                      A                      A
 Frequencies --   1526.7889              1832.6623              2834.5566
 Red. masses --      2.9185                10.4291                 1.0810
 Frc consts  --      4.0084                20.6377                 5.1176
 IR Inten    --     15.6797               232.3290                96.2105

                     43                     44                     45
                      A                      A                      A
 Frequencies --   3037.2867              3047.8906              3052.6853
 Red. masses --      1.0362                 1.0601                 1.0623
 Frc consts  --      5.6318                 5.8022                 5.8328
 IR Inten    --     16.1930                24.6694                 7.6985

                     46                     47                     48
                      A                      A                      A
 Frequencies --   3085.9098              3101.4884              3103.3508
 Red. masses --      1.0870                 1.1005                 1.0914
 Frc consts  --      6.0988                 6.2370                 6.1928
 IR Inten    --     19.3620                15.4795                 2.6898

                     49                     50                     51
                      A                      A                      A
 Frequencies --   3116.2952              3121.9951              3126.4795
 Red. masses --      1.1038                 1.0993                 1.1009
 Frc consts  --      6.3156                 6.3129                 6.3401
 IR Inten    --     12.2464                27.8719                26.0439

 - Thermochemistry -
 -------------------
 Temperature   298.150 Kelvin.  Pressure   1.00000 Atm.
 Atom     1 has atomic number  6 and mass  12.00000

 Molecular mass:   126.06808 amu.
 Principal axes and moments of inertia in atomic units:
                           1         2         3
     Eigenvalues --   378.906202228.812352352.15502
           X            0.99963  -0.02455  -0.01165
           Y            0.02384   0.99806  -0.05757
           Z            0.01304   0.05727   0.99827
 This molecule is an asymmetric top.
 Rotational symmetry number  1.
 Rotational temperatures (Kelvin)      0.22859     0.03886     0.03682
 Rotational constants (GHZ):           4.76303     0.80973     0.76727
 Zero-point vibrational energy     411723.2 (Joules/Mol)
                                   98.40420 (Kcal/Mol)
 Warning -- explicit consideration of  12 degrees of freedom as
           vibrations may cause significant error
 Vibrational temperatures:     78.69   107.41   242.23   269.22   306.07
          (Kelvin)            415.87   461.16   543.79   595.30   658.01
                              692.94   862.82  1069.47  1137.49  1188.98
                             1252.48  1274.22  1349.77  1400.42  1447.95
                             1492.88  1521.06  1548.16  1621.23  1645.18
                             1670.44  1718.52  1748.64  1771.96  1796.55
                             1814.19  1893.68  1952.20  2026.67  2056.22
                             2105.67  2115.91  2139.53  2144.52  2196.71
                             2636.79  4078.29  4369.97  4385.23  4392.13
                             4439.93  4462.34  4465.02  4483.65  4491.85
                             4498.30

 Zero-point correction=                           0.156817 (Hartree/Particle)
 Thermal correction to Energy=                    0.165882
 Thermal correction to Enthalpy=                  0.166826
 Thermal correction to Gibbs Free Energy=         0.122378
 Sum of electronic and zero-point Energies=           -423.011734
 Sum of electronic and thermal Energies=              -423.002669
 Sum of electronic and thermal Enthalpies=            -423.001725
 Sum of electronic and thermal Free Energies=         -423.046172

                     E (Thermal)             CV                S
                      KCal/Mol        Cal/Mol-Kelvin    Cal/Mol-Kelvin
 Total                  104.093             33.232             93.548
 Electronic               0.000              0.000              0.000
 Translational            0.889              2.981             40.409
 Rotational               0.889              2.981             29.076
 Vibrational            102.315             27.270             24.064
 Vibration     1          0.596              1.976              4.640
 Vibration     2          0.599              1.966              4.027
 Vibration     3          0.625              1.881              2.454
 Vibration     4          0.632              1.858              2.256
 Vibration     5          0.644              1.822              2.020
 Vibration     6          0.686              1.694              1.480
 Vibration     7          0.706              1.634              1.307
 Vibration     8          0.748              1.517              1.047
 Vibration     9          0.777              1.440              0.913
 Vibration    10          0.815              1.345              0.774
 Vibration    11          0.838              1.291              0.706
 Vibration    12          0.958              1.032              0.450

 Normal termination of Gaussian 09 at Tue Jan 28 02:35:53 2020.
