 Gaussian 09, Revision D.01,
 Gaussian 09:  ES64L-G09RevD.01 24-Apr-2013

 -----------------------------
 # b3lyp 6-31G(2df,p) opt Freq
 -----------------------------

 -----
 titel
 -----
 Symbolic Z-matrix:
 Charge =  0 Multiplicity = 1

 SCF Done:  E(RB3LYP) =  -423.182348863     A.U. after   12 cycles
 Optimization completed.
    -- Stationary point found.
 Normal termination of Gaussian 09 at Mon Jan 27 23:45:38 2020.

 ----------------------------------------------------------------------
 #N Geom=AllCheck Guess=TCheck SCRF=Check GenChk RB3LYP/6-31G(2df,p) Fr
 eq
 ----------------------------------------------------------------------

 Structure from the checkpoint file:  "/scratch/puck/g09_919f4f36-23d6-4c87-ae5d-87e5ccae3bd0/Gau-68006.chk"
 -----
 titel
 -----
 Charge =  0 Multiplicity = 1

                         Standard orientation:
 ---------------------------------------------------------------------
 Center     Atomic      Atomic             Coordinates (Angstroms)
 Number     Number       Type             X           Y           Z
 ---------------------------------------------------------------------
      1          6           0        1.112884    1.987089    0.058883
      2          6           0        0.370768    0.836829   -0.612901
      3          6           0       -1.137823    0.745638   -0.273891
      4          8           0       -1.150637    0.431010    1.115473
      5          6           0       -0.345772   -0.733307    1.054608
      6          6           0       -0.613487   -1.327796   -0.308919
      7          8           0       -1.547547   -0.454569   -0.918999
      8          6           0        0.681412   -0.559251   -0.064295
      9          6           0        2.047338   -1.184538   -0.066732
     10          1           0        2.191197    1.915455   -0.115405
     11          1           0        0.780694    2.953022   -0.336523
     12          1           0        0.938558    1.982925    1.137983
     13          1           0        0.493056    0.866257   -1.700709
     14          1           0       -1.809602    1.569565   -0.500128
     15          1           0       -0.212560   -1.256877    1.990093
     16          1           0       -0.714256   -2.371938   -0.567332
     17          1           0        2.433039   -1.293806   -1.086835
     18          1           0        2.765223   -0.582137    0.501208
     19          1           0        2.028198   -2.181977    0.385345
 ---------------------------------------------------------------------

 SCF Done:  E(RB3LYP) =  -423.182348863     A.U. after    1 cycles

 The electronic state is 1-A.
 Alpha  occ. eigenvalues --  -19.15000 -19.14861 -10.27549 -10.23255 -10.23212
 Alpha  occ. eigenvalues --  -10.19742 -10.19140 -10.18855 -10.17685  -1.10682
 Alpha  occ. eigenvalues --   -0.99709  -0.84780  -0.78009  -0.71551  -0.67901
 Alpha  occ. eigenvalues --   -0.60275  -0.60141  -0.55236  -0.51482  -0.48350
 Alpha  occ. eigenvalues --   -0.46038  -0.43615  -0.42070  -0.41406  -0.40782
 Alpha  occ. eigenvalues --   -0.39905  -0.38667  -0.38518  -0.35125  -0.34184
 Alpha  occ. eigenvalues --   -0.30977  -0.30806  -0.25102  -0.23410
 Alpha virt. eigenvalues --    0.08715   0.10138   0.11909   0.12547   0.13434
 Alpha virt. eigenvalues --    0.13792   0.14331   0.15661   0.16508   0.17113
 Alpha virt. eigenvalues --    0.17535   0.18802   0.19252   0.19937   0.22299

 Mulliken charges:
               1
     1  C   -0.418998
     2  C   -0.051255
     3  C    0.135125
     4  O   -0.250649
     5  C   -0.008077
     6  C   -0.016772
     7  O   -0.249373
     8  C    0.235789
     9  C   -0.507766
    10  H    0.116771
    11  H    0.114379
    12  H    0.133780
    13  H    0.082043
    14  H    0.096283
    15  H    0.109858
    16  H    0.110236
    17  H    0.124049
    18  H    0.125590
    19  H    0.118986
 Sum of Mulliken charges =   0.00000

 Dipole moment (field-independent basis, Debye):
    X=              1.9433    Y=             -0.3417    Z=             -0.1755  Tot=              1.9809
 Quadrupole moment (field-independent basis, Debye-Ang):
   XX=            -55.9662   YY=            -48.8735   ZZ=            -54.6066
   XY=             -1.5774   XZ=              0.2753   YZ=             -2.7476

  Exact polarizability:  74.555  -1.236  78.196   0.357  -2.106  64.845
 Approx polarizability: 106.915  -1.774 109.278   0.866  -0.742 105.655

                      1                      2                      3
                      A                      A                      A
 Frequencies --    188.6965               207.4691               218.3446
 Red. masses --      1.8926                 1.2643                 1.2000
 Frc consts  --      0.0397                 0.0321                 0.0337
 IR Inten    --      0.1745                 0.2430                 0.0167

                      4                      5                      6
                      A                      A                      A
 Frequencies --    220.2139               269.1476               329.2792
 Red. masses --      1.9333                 2.9922                 2.6439
 Frc consts  --      0.0552                 0.1277                 0.1689
 IR Inten    --      0.0856                 0.1395                 1.0214

                      7                      8                      9
                      A                      A                      A
 Frequencies --    524.5109               562.2719               593.7339
 Red. masses --      4.5563                 5.6832                 3.4154
 Frc consts  --      0.7385                 1.0586                 0.7094
 IR Inten    --      2.5478                 4.8767                 6.8453

                     10                     11                     12
                      A                      A                      A
 Frequencies --    625.8579               714.8984               733.9392
 Red. masses --      4.1112                 4.8548                 3.4500
 Frc consts  --      0.9488                 1.4619                 1.0949
 IR Inten    --      9.3734                 8.4450                 8.4844

                     13                     14                     15
                      A                      A                      A
 Frequencies --    798.8028               847.2844               870.6444
 Red. masses --      3.8322                 1.7476                 3.2424
 Frc consts  --      1.4407                 0.7392                 1.4481
 IR Inten    --      1.4754                 6.1119                38.3195

                     16                     17                     18
                      A                      A                      A
 Frequencies --    890.5418               906.6466               942.3995
 Red. masses --      2.5073                 2.1328                 1.8617
 Frc consts  --      1.1715                 1.0329                 0.9742
 IR Inten    --     29.8895                20.3608                26.4472

                     19                     20                     21
                      A                      A                      A
 Frequencies --   1009.7764              1018.8141              1034.0757
 Red. masses --      2.1776                 2.1397                 3.0496
 Frc consts  --      1.3082                 1.3086                 1.9213
 IR Inten    --      8.3935                 8.3022                23.2576

                     22                     23                     24
                      A                      A                      A
 Frequencies --   1044.1646              1062.0073              1080.8976
 Red. masses --      1.4985                 2.0691                 2.3872
 Frc consts  --      0.9626                 1.3750                 1.6433
 IR Inten    --      1.9775                 5.7396                23.1241

                     25                     26                     27
                      A                      A                      A
 Frequencies --   1089.9036              1114.3221              1148.1260
 Red. masses --      2.3231                 2.4823                 2.1848
 Frc consts  --      1.6259                 1.8161                 1.6968
 IR Inten    --     45.4199                 2.9213                 0.7413

                     28                     29                     30
                      A                      A                      A
 Frequencies --   1194.5741              1228.2593              1244.2636
 Red. masses --      1.6703                 1.2257                 1.6651
 Frc consts  --      1.4043                 1.0894                 1.5188
 IR Inten    --      6.5692                 1.9200                 0.5140

                     31                     32                     33
                      A                      A                      A
 Frequencies --   1284.8614              1290.5479              1339.0879
 Red. masses --      2.3447                 1.6265                 1.5774
 Frc consts  --      2.2806                 1.5961                 1.6665
 IR Inten    --      3.8618                17.5839                10.1617

                     34                     35                     36
                      A                      A                      A
 Frequencies --   1365.4429              1407.0561              1420.8387
 Red. masses --      1.6741                 1.2999                 2.1194
 Frc consts  --      1.8390                 1.5163                 2.5209
 IR Inten    --      1.7837                 3.1698                 8.4122

                     37                     38                     39
                      A                      A                      A
 Frequencies --   1423.3401              1490.3524              1497.9720
 Red. masses --      1.5202                 1.0458                 1.0499
 Frc consts  --      1.8146                 1.3686                 1.3881
 IR Inten    --      1.0254                 6.2101                 6.1002

                     40                     41                     42
                      A                      A                      A
 Frequencies --   1500.7834              1504.7983              3023.8924
 Red. masses --      1.0493                 1.0563                 1.0353
 Frc consts  --      1.3924                 1.4092                 5.5776
 IR Inten    --      0.4471                 3.2908                36.0044

                     43                     44                     45
                      A                      A                      A
 Frequencies --   3037.1486              3059.3852              3085.1805
 Red. masses --      1.0366                 1.0841                 1.1011
 Frc consts  --      5.6338                 5.9782                 6.1750
 IR Inten    --     26.6767                16.2645                22.5789

                     46                     47                     48
                      A                      A                      A
 Frequencies --   3091.0796              3097.5249              3123.7809
 Red. masses --      1.1003                 1.1007                 1.1005
 Frc consts  --      6.1942                 6.2221                 6.3271
 IR Inten    --     22.0025                22.6038                18.0262

                     49                     50                     51
                      A                      A                      A
 Frequencies --   3171.6000              3223.7330              3232.5677
 Red. masses --      1.0932                 1.0916                 1.0984
 Frc consts  --      6.4788                 6.6837                 6.7626
 IR Inten    --     23.5780                 3.4706                 9.0128

 - Thermochemistry -
 -------------------
 Temperature   298.150 Kelvin.  Pressure   1.00000 Atm.
 Atom     1 has atomic number  6 and mass  12.00000

 Molecular mass:   126.06808 amu.
 Principal axes and moments of inertia in atomic units:
                           1         2         3
     Eigenvalues --   766.38921 874.759191184.67194
           X            0.99928  -0.03781   0.00112
           Y            0.03782   0.99900  -0.02399
           Z           -0.00021   0.02402   0.99971
 This molecule is an asymmetric top.
 Rotational symmetry number  1.
 Warning -- assumption of classical behavior for rotation
           may cause significant error
 Rotational temperatures (Kelvin)      0.11302     0.09901     0.07311
 Rotational constants (GHZ):           2.35486     2.06313     1.52341
 Zero-point vibrational energy     420994.8 (Joules/Mol)
                                  100.62018 (Kcal/Mol)
 Warning -- explicit consideration of   9 degrees of freedom as
           vibrations may cause significant error
 Vibrational temperatures:    271.49   298.50   314.15   316.84   387.24
          (Kelvin)            473.76   754.65   808.98   854.25   900.47
                             1028.58  1055.97  1149.30  1219.05  1252.66
                             1281.29  1304.46  1355.90  1452.84  1465.84
                             1487.80  1502.32  1527.99  1555.17  1568.13
                             1603.26  1651.90  1718.72  1767.19  1790.22
                             1848.63  1856.81  1926.65  1964.57  2024.44
                             2044.27  2047.87  2144.28  2155.24  2159.29
                             2165.07  4350.70  4369.77  4401.77  4438.88
                             4447.37  4456.64  4494.42  4563.22  4638.23
                             4650.94

 Zero-point correction=                           0.160348 (Hartree/Particle)
 Thermal correction to Energy=                    0.167868
 Thermal correction to Enthalpy=                  0.168812
 Thermal correction to Gibbs Free Energy=         0.128844
 Sum of electronic and zero-point Energies=           -423.022000
 Sum of electronic and thermal Energies=              -423.014481
 Sum of electronic and thermal Enthalpies=            -423.013537
 Sum of electronic and thermal Free Energies=         -423.053505

                     E (Thermal)             CV                S
                      KCal/Mol        Cal/Mol-Kelvin    Cal/Mol-Kelvin
 Total                  105.339             30.271             84.119
 Electronic               0.000              0.000              0.000
 Translational            0.889              2.981             40.409
 Rotational               0.889              2.981             28.165
 Vibrational            103.561             24.310             15.546
 Vibration     1          0.633              1.855              2.241
 Vibration     2          0.641              1.829              2.066
 Vibration     3          0.646              1.813              1.973
 Vibration     4          0.647              1.810              1.957
 Vibration     5          0.674              1.730              1.602
 Vibration     6          0.712              1.617              1.264
 Vibration     7          0.879              1.196              0.600
 Vibration     8          0.918              1.113              0.519
 Vibration     9          0.951              1.045              0.461

 Optimization completed.
    -- Stationary point found.
 Normal termination of Gaussian 09 at Tue Jan 28 00:31:39 2020.
