 Gaussian 09, Revision D.01,
 Gaussian 09:  ES64L-G09RevD.01 24-Apr-2013

 -----------------------------
 # b3lyp 6-31G(2df,p) opt Freq
 -----------------------------

 -----
 titel
 -----
 Symbolic Z-matrix:
 Charge =  0 Multiplicity = 1

 SCF Done:  E(RB3LYP) =  -423.140802712     A.U. after   14 cycles
 Optimization completed.
    -- Stationary point found.
 Normal termination of Gaussian 09 at Tue Jan 28 00:03:27 2020.

 ----------------------------------------------------------------------
 #N Geom=AllCheck Guess=TCheck SCRF=Check GenChk RB3LYP/6-31G(2df,p) Fr
 eq
 ----------------------------------------------------------------------

 Structure from the checkpoint file:  "/scratch/puck/g09_33cdb4bb-7b47-4761-ad88-02f1290608b1/Gau-116678.chk"
 -----
 titel
 -----
 Charge =  0 Multiplicity = 1

                         Standard orientation:
 ---------------------------------------------------------------------
 Center     Atomic      Atomic             Coordinates (Angstroms)
 Number     Number       Type             X           Y           Z
 ---------------------------------------------------------------------
      1          6           0        2.662628   -0.385717   -0.277679
      2          6           0        1.344831   -0.471436    0.495084
      3          6           0        0.332260   -1.444085   -0.123636
      4          6           0       -0.887983   -0.980745    0.107431
      5          6           0       -2.244827   -0.659129   -0.465355
      6          8           0       -2.044913    0.732056   -0.061141
      7          6           0       -0.900876    0.357360    0.764728
      8          6           0        0.531712    0.888263    0.518936
      9          8           0        0.556303    1.553211   -0.725730
     10          1           0        3.332346    0.365568    0.157276
     11          1           0        3.190472   -1.344096   -0.254413
     12          1           0        2.485024   -0.126767   -1.325819
     13          1           0        1.573125   -0.745909    1.535791
     14          1           0        0.625212   -2.280978   -0.747219
     15          1           0       -2.364193   -0.771774   -1.548182
     16          1           0       -3.110881   -1.095376    0.049499
     17          1           0       -1.168519    0.412543    1.829122
     18          1           0        0.885590    1.549231    1.324291
     19          1           0        1.434229    1.928360   -0.842441
 ---------------------------------------------------------------------

 SCF Done:  E(RB3LYP) =  -423.140802712     A.U. after    1 cycles

 The electronic state is 1-A.
 Alpha  occ. eigenvalues --  -19.13752 -19.13231 -10.23651 -10.23459 -10.22361
 Alpha  occ. eigenvalues --  -10.19546 -10.18313 -10.18213 -10.18198  -1.03608
 Alpha  occ. eigenvalues --   -1.01639  -0.83208  -0.74394  -0.71784  -0.66230
 Alpha  occ. eigenvalues --   -0.63651  -0.56869  -0.53077  -0.50869  -0.48888
 Alpha  occ. eigenvalues --   -0.46250  -0.45469  -0.43862  -0.40970  -0.40083
 Alpha  occ. eigenvalues --   -0.37625  -0.36723  -0.36006  -0.33019  -0.32275
 Alpha  occ. eigenvalues --   -0.30168  -0.26992  -0.24973  -0.23528
 Alpha virt. eigenvalues --    0.00630   0.05926   0.08919   0.11770   0.11966
 Alpha virt. eigenvalues --    0.13779   0.13896   0.15456   0.15608   0.16560
 Alpha virt. eigenvalues --    0.18023   0.18474   0.18967   0.19391   0.22634

 Mulliken charges:
               1
     1  C   -0.426291
     2  C   -0.028931
     3  C   -0.210293
     4  C    0.189888
     5  C   -0.154922
     6  O   -0.300204
     7  C    0.119840
     8  C    0.032287
     9  O   -0.410729
    10  H    0.109390
    11  H    0.120972
    12  H    0.128382
    13  H    0.081621
    14  H    0.097401
    15  H    0.123743
    16  H    0.107021
    17  H    0.077409
    18  H    0.056138
    19  H    0.287277
 Sum of Mulliken charges =   0.00000

 Dipole moment (field-independent basis, Debye):
    X=              2.0984    Y=             -1.1853    Z=              0.6767  Tot=              2.5032
 Quadrupole moment (field-independent basis, Debye-Ang):
   XX=            -50.6249   YY=            -53.4058   ZZ=            -52.0932
   XY=              5.8323   XZ=             -0.3868   YZ=              2.2676

  Exact polarizability:  98.131  -0.334  69.896   1.031   5.410  65.511
 Approx polarizability: 137.188  -7.471 106.845   0.798   6.750 101.197

                      1                      2                      3
                      A                      A                      A
 Frequencies --     96.9646               170.8127               220.3109
 Red. masses --      4.0325                 2.7494                 1.1172
 Frc consts  --      0.0223                 0.0473                 0.0319
 IR Inten    --      1.3153                 3.2740                19.2567

                      4                      5                      6
                      A                      A                      A
 Frequencies --    240.4519               257.0723               289.0426
 Red. masses --      3.9708                 3.0416                 1.1196
 Frc consts  --      0.1353                 0.1184                 0.0551
 IR Inten    --      0.7046                26.5826                79.1106

                      7                      8                      9
                      A                      A                      A
 Frequencies --    338.9574               358.6320               454.7587
 Red. masses --      2.9512                 2.9494                 4.3686
 Frc consts  --      0.1998                 0.2235                 0.5323
 IR Inten    --      2.5821                 5.3414                 3.1858

                     10                     11                     12
                      A                      A                      A
 Frequencies --    527.5762               675.3213               729.4724
 Red. masses --      3.5070                 2.9344                 3.3870
 Frc consts  --      0.5751                 0.7885                 1.0619
 IR Inten    --      1.9919                 5.9157                 6.9532

                     13                     14                     15
                      A                      A                      A
 Frequencies --    767.6116               813.4225               845.0986
 Red. masses --      4.3303                 2.3781                 2.4448
 Frc consts  --      1.5033                 0.9271                 1.0287
 IR Inten    --     12.6945                 0.4367                44.9734

                     16                     17                     18
                      A                      A                      A
 Frequencies --    869.3111               899.5047               915.1568
 Red. masses --      2.6617                 2.1822                 2.8708
 Frc consts  --      1.1851                 1.0403                 1.4166
 IR Inten    --     19.4501                10.3540                11.7599

                     19                     20                     21
                      A                      A                      A
 Frequencies --    969.7633               991.6588              1008.4311
 Red. masses --      4.7129                 1.9012                 1.6861
 Frc consts  --      2.6114                 1.1015                 1.0102
 IR Inten    --     56.0776                18.6865                 6.5710

                     22                     23                     24
                      A                      A                      A
 Frequencies --   1044.9458              1063.8094              1094.7964
 Red. masses --      2.4843                 2.3135                 1.8451
 Frc consts  --      1.5983                 1.5426                 1.3030
 IR Inten    --     25.8973                17.4194                 3.8942

                     25                     26                     27
                      A                      A                      A
 Frequencies --   1131.9794              1138.2655              1155.9808
 Red. masses --      1.6428                 1.3523                 2.8468
 Frc consts  --      1.2402                 1.0323                 2.2413
 IR Inten    --     13.2432                 3.5211                23.4612

                     28                     29                     30
                      A                      A                      A
 Frequencies --   1194.5056              1236.4002              1263.9359
 Red. masses --      1.3993                 1.4109                 1.3168
 Frc consts  --      1.1763                 1.2707                 1.2394
 IR Inten    --     23.8669                 1.2662                12.9463

                     31                     32                     33
                      A                      A                      A
 Frequencies --   1274.9502              1311.1024              1335.1054
 Red. masses --      1.3958                 1.3565                 1.5271
 Frc consts  --      1.3367                 1.3738                 1.6038
 IR Inten    --      2.1731                 9.7931                 0.8249

                     34                     35                     36
                      A                      A                      A
 Frequencies --   1351.9297              1361.8437              1397.5392
 Red. masses --      1.4545                 1.6191                 1.2419
 Frc consts  --      1.5663                 1.7692                 1.4291
 IR Inten    --     24.9503                 1.0201                 0.6443

                     37                     38                     39
                      A                      A                      A
 Frequencies --   1431.4681              1496.0930              1506.8370
 Red. masses --      1.4312                 1.0426                 1.1031
 Frc consts  --      1.7278                 1.3749                 1.4757
 IR Inten    --      3.8174                 3.7653                 1.8060

                     40                     41                     42
                      A                      A                      A
 Frequencies --   1507.2530              1749.2530              2979.8555
 Red. masses --      1.0530                 9.1264                 1.0828
 Frc consts  --      1.4095                16.4533                 5.6650
 IR Inten    --      2.9071                 3.3742                18.8540

                     43                     44                     45
                      A                      A                      A
 Frequencies --   2992.4769              3007.2596              3014.6055
 Red. masses --      1.0824                 1.0771                 1.0686
 Frc consts  --      5.7110                 5.7392                 5.7215
 IR Inten    --     17.9147               131.3961                78.5161

                     46                     47                     48
                      A                      A                      A
 Frequencies --   3028.5706              3072.4937              3094.0207
 Red. masses --      1.0371                 1.1038                 1.0989
 Frc consts  --      5.6047                 6.1396                 6.1981
 IR Inten    --     27.0661                29.1039                22.3295

                     49                     50                     51
                      A                      A                      A
 Frequencies --   3109.7609              3195.8113              3829.2269
 Red. masses --      1.1018                 1.0954                 1.0662
 Frc consts  --      6.2776                 6.5914                 9.2108
 IR Inten    --     21.9186                10.3327                21.9652

 - Thermochemistry -
 -------------------
 Temperature   298.150 Kelvin.  Pressure   1.00000 Atm.
 Atom     1 has atomic number  6 and mass  12.00000

 Molecular mass:   126.06808 amu.
 Principal axes and moments of inertia in atomic units:
                           1         2         3
     Eigenvalues --   567.212661254.564371547.14791
           X            0.99990   0.01442  -0.00064
           Y           -0.01438   0.99903   0.04165
           Z            0.00124  -0.04164   0.99913
 This molecule is an asymmetric top.
 Rotational symmetry number  1.
 Warning -- assumption of classical behavior for rotation
           may cause significant error
 Rotational temperatures (Kelvin)      0.15270     0.06904     0.05598
 Rotational constants (GHZ):           3.18177     1.43854     1.16650
 Zero-point vibrational energy     417564.9 (Joules/Mol)
                                   99.80042 (Kcal/Mol)
 Warning -- explicit consideration of  10 degrees of freedom as
           vibrations may cause significant error
 Vibrational temperatures:    139.51   245.76   316.98   345.96   369.87
          (Kelvin)            415.87   487.68   515.99   654.30   759.06
                              971.64  1049.55  1104.42  1170.33  1215.91
                             1250.74  1294.18  1316.70  1395.27  1426.77
                             1450.91  1503.44  1530.58  1575.17  1628.66
                             1637.71  1663.20  1718.63  1778.90  1818.52
                             1834.37  1886.38  1920.92  1945.12  1959.39
                             2010.74  2059.56  2152.54  2168.00  2168.60
                             2516.78  4287.34  4305.50  4326.77  4337.34
                             4357.43  4420.63  4451.60  4474.25  4598.05
                             5509.40

 Zero-point correction=                           0.159042 (Hartree/Particle)
 Thermal correction to Energy=                    0.167361
 Thermal correction to Enthalpy=                  0.168306
 Thermal correction to Gibbs Free Energy=         0.126452
 Sum of electronic and zero-point Energies=           -422.981761
 Sum of electronic and thermal Energies=              -422.973441
 Sum of electronic and thermal Enthalpies=            -422.972497
 Sum of electronic and thermal Free Energies=         -423.014351

                     E (Thermal)             CV                S
                      KCal/Mol        Cal/Mol-Kelvin    Cal/Mol-Kelvin
 Total                  105.021             32.133             88.089
 Electronic               0.000              0.000              0.000
 Translational            0.889              2.981             40.409
 Rotational               0.889              2.981             28.489
 Vibrational            103.243             26.171             19.192
 Vibration     1          0.603              1.951              3.514
 Vibration     2          0.626              1.878              2.427
 Vibration     3          0.647              1.810              1.957
 Vibration     4          0.658              1.778              1.800
 Vibration     5          0.667              1.751              1.682
 Vibration     6          0.686              1.694              1.480
 Vibration     7          0.719              1.598              1.217
 Vibration     8          0.733              1.558              1.128
 Vibration     9          0.813              1.350              0.782
 Vibration    10          0.883              1.189              0.593

 Optimization completed.
    -- Stationary point found.
 Normal termination of Gaussian 09 at Tue Jan 28 00:57:04 2020.
