 Gaussian 09, Revision D.01,
 Gaussian 09:  ES64L-G09RevD.01 24-Apr-2013

 -----------------------------
 # b3lyp 6-31G(2df,p) opt Freq
 -----------------------------

 -----
 titel
 -----
 Symbolic Z-matrix:
 Charge =  0 Multiplicity = 1

 SCF Done:  E(RB3LYP) =  -423.159257790     A.U. after   14 cycles
 Optimization completed.
    -- Stationary point found.
 Normal termination of Gaussian 09 at Tue Jan 28 03:12:19 2020.

 ----------------------------------------------------------------------
 #N Geom=AllCheck Guess=TCheck SCRF=Check GenChk RB3LYP/6-31G(2df,p) Fr
 eq
 ----------------------------------------------------------------------

 Structure from the checkpoint file:  "/scratch/puck/g09_59d33b30-34e5-444f-a53d-a78285b950a3/Gau-45538.chk"
 -----
 titel
 -----
 Charge =  0 Multiplicity = 1

                         Standard orientation:
 ---------------------------------------------------------------------
 Center     Atomic      Atomic             Coordinates (Angstroms)
 Number     Number       Type             X           Y           Z
 ---------------------------------------------------------------------
      1          6           0       -2.523510    1.423402   -0.055145
      2          6           0       -1.518429    0.402576    0.463144
      3          6           0       -1.758639   -1.071532   -0.009764
      4          6           0       -0.374588   -1.077434   -0.688655
      5          8           0        0.686372   -1.533058    0.189506
      6          6           0        1.020236   -0.174668    0.554171
      7          6           0        2.418469    0.171437    0.077453
      8          8           0        2.764050    1.275029   -0.255995
      9          6           0       -0.141246    0.402675   -0.267186
     10          1           0       -2.216692    2.444865    0.194327
     11          1           0       -2.623979    1.362348   -1.145068
     12          1           0       -3.514370    1.252371    0.379420
     13          1           0       -1.419830    0.504196    1.549129
     14          1           0       -1.879048   -1.830306    0.766291
     15          1           0       -2.586434   -1.154861   -0.720938
     16          1           0       -0.271374   -1.488400   -1.695762
     17          1           0        0.974718   -0.009258    1.642724
     18          1           0        3.106467   -0.703765    0.055262
     19          1           0        0.093400    1.228304   -0.937583
 ---------------------------------------------------------------------

 SCF Done:  E(RB3LYP) =  -423.159257790     A.U. after    1 cycles

 The electronic state is 1-A.
 Alpha  occ. eigenvalues --  -19.14750 -19.14606 -10.27362 -10.24661 -10.24074
 Alpha  occ. eigenvalues --  -10.19930 -10.19790 -10.18599 -10.18295  -1.05928
 Alpha  occ. eigenvalues --   -1.04609  -0.83924  -0.74487  -0.72469  -0.66296
 Alpha  occ. eigenvalues --   -0.61980  -0.57171  -0.52785  -0.51161  -0.49461
 Alpha  occ. eigenvalues --   -0.47879  -0.46102  -0.43551  -0.42217  -0.40710
 Alpha  occ. eigenvalues --   -0.39103  -0.38585  -0.36917  -0.34382  -0.32741
 Alpha  occ. eigenvalues --   -0.30977  -0.29037  -0.28088  -0.24171
 Alpha virt. eigenvalues --   -0.03118   0.06345   0.09560   0.10317   0.11063
 Alpha virt. eigenvalues --    0.11834   0.13385   0.14735   0.15767   0.16177
 Alpha virt. eigenvalues --    0.16693   0.17539   0.18127   0.19213   0.20965

 Mulliken charges:
               1
     1  C   -0.413275
     2  C    0.019676
     3  C   -0.256881
     4  C    0.122720
     5  O   -0.314511
     6  C    0.033836
     7  C    0.124984
     8  O   -0.241887
     9  C   -0.090903
    10  H    0.120820
    11  H    0.115595
    12  H    0.118553
    13  H    0.074777
    14  H    0.112176
    15  H    0.102725
    16  H    0.083079
    17  H    0.103054
    18  H    0.092156
    19  H    0.093306
 Sum of Mulliken charges =   0.00000

 Dipole moment (field-independent basis, Debye):
    X=             -2.1726    Y=             -0.4419    Z=              0.2867  Tot=              2.2355
 Quadrupole moment (field-independent basis, Debye-Ang):
   XX=            -56.2401   YY=            -58.5400   ZZ=            -50.8573
   XY=             -3.7643   XZ=              2.0786   YZ=              1.8029

  Exact polarizability:  89.448   0.352  74.855   0.425   0.483  63.341
 Approx polarizability: 111.691   4.566 115.893   0.814  -1.850  98.948

                      1                      2                      3
                      A                      A                      A
 Frequencies --     47.0575                85.7052               140.9920
 Red. masses --      3.6005                 3.1021                 4.9030
 Frc consts  --      0.0047                 0.0134                 0.0574
 IR Inten    --      6.2107                 5.1980                 4.3434

                      4                      5                      6
                      A                      A                      A
 Frequencies --    167.4817               247.5671               290.6349
 Red. masses --      2.2263                 1.0903                 2.9793
 Frc consts  --      0.0368                 0.0394                 0.1483
 IR Inten    --      0.5620                 0.0076                 3.6077

                      7                      8                      9
                      A                      A                      A
 Frequencies --    359.1847               366.0158               460.4980
 Red. masses --      3.6395                 2.8166                 2.2204
 Frc consts  --      0.2766                 0.2223                 0.2774
 IR Inten    --      1.4198                 3.6487                 7.5157

                     10                     11                     12
                      A                      A                      A
 Frequencies --    588.0946               677.8558               783.7196
 Red. masses --      4.9701                 3.7084                 2.4013
 Frc consts  --      1.0128                 1.0039                 0.8690
 IR Inten    --      7.6437                 4.8416                 5.6408

                     13                     14                     15
                      A                      A                      A
 Frequencies --    804.8974               832.4952               860.6811
 Red. masses --      1.9879                 1.9442                 2.5830
 Frc consts  --      0.7588                 0.7939                 1.1273
 IR Inten    --     11.2190                 4.4154                 2.2489

                     16                     17                     18
                      A                      A                      A
 Frequencies --    917.8694               932.7189               949.2719
 Red. masses --      2.0886                 1.8012                 2.7616
 Frc consts  --      1.0367                 0.9232                 1.4662
 IR Inten    --      5.3491                10.4962                 3.3174

                     19                     20                     21
                      A                      A                      A
 Frequencies --    983.1539              1016.0340              1046.4014
 Red. masses --      1.9010                 3.4622                 2.3143
 Frc consts  --      1.0826                 2.1058                 1.4930
 IR Inten    --     10.4497                68.3171                12.7348

                     22                     23                     24
                      A                      A                      A
 Frequencies --   1066.0078              1079.0304              1113.9799
 Red. masses --      1.8657                 2.0831                 1.8818
 Frc consts  --      1.2492                 1.4290                 1.3758
 IR Inten    --      9.8360                24.7385                 1.3977

                     25                     26                     27
                      A                      A                      A
 Frequencies --   1117.7582              1172.0610              1187.5867
 Red. masses --      2.2135                 1.8219                 1.5093
 Frc consts  --      1.6294                 1.4746                 1.2542
 IR Inten    --      2.5051                 4.1829                 2.7894

                     28                     29                     30
                      A                      A                      A
 Frequencies --   1213.8196              1247.2829              1257.5032
 Red. masses --      1.5037                 1.4779                 1.5320
 Frc consts  --      1.3054                 1.3547                 1.4274
 IR Inten    --      2.1049                 1.5172                12.4091

                     31                     32                     33
                      A                      A                      A
 Frequencies --   1275.7948              1286.4779              1325.9836
 Red. masses --      1.4386                 1.5451                 1.4707
 Frc consts  --      1.3796                 1.5066                 1.5235
 IR Inten    --      0.5003                11.7201                 5.8740

                     34                     35                     36
                      A                      A                      A
 Frequencies --   1347.1595              1370.7520              1396.6546
 Red. masses --      1.5008                 1.5771                 1.2391
 Frc consts  --      1.6047                 1.7459                 1.4240
 IR Inten    --      4.5706                 1.4538                 9.3722

                     37                     38                     39
                      A                      A                      A
 Frequencies --   1411.2970              1463.9647              1494.4298
 Red. masses --      1.2458                 1.1073                 1.0434
 Frc consts  --      1.4620                 1.3983                 1.3730
 IR Inten    --      1.7787                 3.2749                 4.5543

                     40                     41                     42
                      A                      A                      A
 Frequencies --   1496.9795              1830.6051              2886.6463
 Red. masses --      1.0496                10.8626                 1.0841
 Frc consts  --      1.3858                21.4474                 5.3223
 IR Inten    --      2.0990               140.1379               104.5211

                     43                     44                     45
                      A                      A                      A
 Frequencies --   2979.3218              3024.2016              3042.3639
 Red. masses --      1.0819                 1.0352                 1.0856
 Frc consts  --      5.6580                 5.5784                 5.9203
 IR Inten    --     37.4133                23.2991                20.9170

                     46                     47                     48
                      A                      A                      A
 Frequencies --   3053.6746              3080.6868              3092.0404
 Red. masses --      1.0614                 1.0884                 1.1007
 Frc consts  --      5.8316                 6.0862                 6.2005
 IR Inten    --     22.5380                49.6761                34.1152

                     49                     50                     51
                      A                      A                      A
 Frequencies --   3097.5476              3118.7133              3127.9869
 Red. masses --      1.1016                 1.1053                 1.0897
 Frc consts  --      6.2275                 6.3340                 6.2816
 IR Inten    --     23.3213                20.5193                12.6923

 - Thermochemistry -
 -------------------
 Temperature   298.150 Kelvin.  Pressure   1.00000 Atm.
 Atom     1 has atomic number  6 and mass  12.00000

 Molecular mass:   126.06808 amu.
 Principal axes and moments of inertia in atomic units:
                           1         2         3
     Eigenvalues --   587.984241530.399231932.17945
           X            0.99935  -0.03571   0.00403
           Y            0.03568   0.99933   0.00773
           Z           -0.00430  -0.00758   0.99996
 This molecule is an asymmetric top.
 Rotational symmetry number  1.
 Warning -- assumption of classical behavior for rotation
           may cause significant error
 Rotational temperatures (Kelvin)      0.14731     0.05660     0.04483
 Rotational constants (GHZ):           3.06937     1.17926     0.93404
 Zero-point vibrational energy     414007.5 (Joules/Mol)
                                   98.95016 (Kcal/Mol)
 Warning -- explicit consideration of  10 degrees of freedom as
           vibrations may cause significant error
 Vibrational temperatures:     67.71   123.31   202.86   240.97   356.19
          (Kelvin)            418.16   516.79   526.61   662.55   846.14
                              975.28  1127.60  1158.07  1197.77  1238.33
                             1320.61  1341.97  1365.79  1414.54  1461.84
                             1505.54  1533.75  1552.48  1602.77  1608.20
                             1686.33  1708.67  1746.41  1794.56  1809.26
                             1835.58  1850.95  1907.79  1938.26  1972.20
                             2009.47  2030.54  2106.32  2150.15  2153.82
                             2633.83  4153.24  4286.57  4351.15  4377.28
                             4393.55  4432.42  4448.75  4456.67  4487.13
                             4500.47

 Zero-point correction=                           0.157687 (Hartree/Particle)
 Thermal correction to Energy=                    0.166362
 Thermal correction to Enthalpy=                  0.167306
 Thermal correction to Gibbs Free Energy=         0.123420
 Sum of electronic and zero-point Energies=           -423.001571
 Sum of electronic and thermal Energies=              -422.992896
 Sum of electronic and thermal Enthalpies=            -422.991952
 Sum of electronic and thermal Free Energies=         -423.035838

                     E (Thermal)             CV                S
                      KCal/Mol        Cal/Mol-Kelvin    Cal/Mol-Kelvin
 Total                  104.393             31.733             92.365
 Electronic               0.000              0.000              0.000
 Translational            0.889              2.981             40.409
 Rotational               0.889              2.981             28.943
 Vibrational            102.616             25.771             23.013
 Vibration     1          0.595              1.979              4.937
 Vibration     2          0.601              1.959              3.756
 Vibration     3          0.615              1.912              2.790
 Vibration     4          0.624              1.882              2.464
 Vibration     5          0.661              1.767              1.748
 Vibration     6          0.687              1.691              1.470
 Vibration     7          0.734              1.556              1.126
 Vibration     8          0.739              1.542              1.096
 Vibration     9          0.818              1.338              0.765
 Vibration    10          0.945              1.057              0.471

 Optimization completed.
    -- Stationary point found.
 Normal termination of Gaussian 09 at Tue Jan 28 05:03:57 2020.
