 Gaussian 09, Revision D.01,
 Gaussian 09:  ES64L-G09RevD.01 24-Apr-2013

 -----------------------------
 # b3lyp 6-31G(2df,p) opt Freq
 -----------------------------

 -----
 titel
 -----
 Symbolic Z-matrix:
 Charge =  0 Multiplicity = 1

 SCF Done:  E(RB3LYP) =  -423.129839737     A.U. after   13 cycles
 Optimization completed.
    -- Stationary point found.
 Normal termination of Gaussian 09 at Mon Jan 27 18:47:10 2020.

 ----------------------------------------------------------------------
 #N Geom=AllCheck Guess=TCheck SCRF=Check GenChk RB3LYP/6-31G(2df,p) Fr
 eq
 ----------------------------------------------------------------------

 Structure from the checkpoint file:  "/scratch/puck/g09_b9068fc8-7944-49a5-b299-25776897e725/Gau-43343.chk"
 -----
 titel
 -----
 Charge =  0 Multiplicity = 1

                         Standard orientation:
 ---------------------------------------------------------------------
 Center     Atomic      Atomic             Coordinates (Angstroms)
 Number     Number       Type             X           Y           Z
 ---------------------------------------------------------------------
      1          6           0       -2.033260   -1.438135    0.241920
      2          6           0       -1.056549   -0.343338   -0.081912
      3          6           0       -1.534597    1.054615   -0.529458
      4          8           0       -0.610576    1.706809    0.378921
      5          6           0       -0.115640    0.446035    0.862982
      6          6           0        0.996822   -0.142708    0.016414
      7          6           0        2.283908   -0.777340    0.432654
      8          6           0        2.271302    0.465272   -0.449654
      9          8           0        0.074501   -0.801555   -0.867534
     10          1           0       -2.494145   -1.814726   -0.678261
     11          1           0       -1.527890   -2.274403    0.732545
     12          1           0       -2.828712   -1.070782    0.897239
     13          1           0       -1.335649    1.288744   -1.580476
     14          1           0       -2.574273    1.299971   -0.278153
     15          1           0       -0.055667    0.395729    1.952077
     16          1           0        2.598563   -0.682251    1.467190
     17          1           0        2.540508   -1.720204   -0.038327
     18          1           0        2.570513    1.418213   -0.026587
     19          1           0        2.523431    0.331272   -1.496018
 ---------------------------------------------------------------------

 SCF Done:  E(RB3LYP) =  -423.129839737     A.U. after    1 cycles

 The electronic state is 1-A.
 Alpha  occ. eigenvalues --  -19.13856 -19.13638 -10.24476 -10.23816 -10.23617
 Alpha  occ. eigenvalues --  -10.22837 -10.18676 -10.18629 -10.18477  -1.06919
 Alpha  occ. eigenvalues --   -1.01234  -0.85031  -0.76097  -0.70804  -0.67815
 Alpha  occ. eigenvalues --   -0.60666  -0.58109  -0.52583  -0.51268  -0.49818
 Alpha  occ. eigenvalues --   -0.48176  -0.45375  -0.43287  -0.41233  -0.40651
 Alpha  occ. eigenvalues --   -0.39048  -0.37210  -0.36088  -0.35230  -0.32582
 Alpha  occ. eigenvalues --   -0.30174  -0.28290  -0.25202  -0.23031
 Alpha virt. eigenvalues --    0.06099   0.08570   0.10403   0.11214   0.12684
 Alpha virt. eigenvalues --    0.12812   0.14258   0.14779   0.15966   0.16362
 Alpha virt. eigenvalues --    0.17367   0.18199   0.19360   0.20872   0.22525

 Mulliken charges:
               1
     1  C   -0.483549
     2  C    0.395119
     3  C   -0.121254
     4  O   -0.290611
     5  C   -0.102666
     6  C    0.451727
     7  C   -0.342499
     8  C   -0.332209
     9  O   -0.354402
    10  H    0.134024
    11  H    0.131606
    12  H    0.124461
    13  H    0.112205
    14  H    0.099562
    15  H    0.085580
    16  H    0.115833
    17  H    0.124710
    18  H    0.125861
    19  H    0.126499
 Sum of Mulliken charges =   0.00000

 Dipole moment (field-independent basis, Debye):
    X=             -0.5781    Y=             -0.9082    Z=              0.7967  Tot=              1.3393
 Quadrupole moment (field-independent basis, Debye-Ang):
   XX=            -48.6000   YY=            -56.9326   ZZ=            -51.9860
   XY=              0.9580   XZ=              1.0178   YZ=             -2.2494

  Exact polarizability:  90.143  -1.059  70.729   2.220  -2.859  66.704
 Approx polarizability: 114.388  -2.197 103.830   3.992  -0.528 102.328

                      1                      2                      3
                      A                      A                      A
 Frequencies --     77.3723               190.4290               193.8661
 Red. masses --      3.4704                 1.0758                 2.9644
 Frc consts  --      0.0122                 0.0230                 0.0656
 IR Inten    --      1.9587                 0.1263                 2.8401

                      4                      5                      6
                      A                      A                      A
 Frequencies --    226.5881               252.2156               305.9765
 Red. masses --      2.4402                 2.4320                 2.5136
 Frc consts  --      0.0738                 0.0911                 0.1387
 IR Inten    --      0.8040                 0.1784                 0.4324

                      7                      8                      9
                      A                      A                      A
 Frequencies --    378.5477               426.2084               500.0586
 Red. masses --      2.4332                 3.9178                 3.6226
 Frc consts  --      0.2054                 0.4193                 0.5337
 IR Inten    --      1.8849                 5.7960                 3.8931

                     10                     11                     12
                      A                      A                      A
 Frequencies --    553.9019               668.1914               754.1117
 Red. masses --      3.5040                 4.1862                 1.0765
 Frc consts  --      0.6334                 1.1012                 0.3607
 IR Inten    --      1.5971                 2.0865                 2.1031

                     13                     14                     15
                      A                      A                      A
 Frequencies --    787.3058               838.8663               871.6298
 Red. masses --      3.6623                 1.9324                 1.9018
 Frc consts  --      1.3375                 0.8012                 0.8513
 IR Inten    --     11.6221                12.9665                22.2728

                     16                     17                     18
                      A                      A                      A
 Frequencies --    882.9875               912.8574               943.3480
 Red. masses --      1.4438                 2.0701                 3.2944
 Frc consts  --      0.6632                 1.0164                 1.7273
 IR Inten    --      9.1300                14.4778                29.7160

                     19                     20                     21
                      A                      A                      A
 Frequencies --    962.8381               974.3326               993.8741
 Red. masses --      1.6190                 2.9049                 4.5964
 Frc consts  --      0.8843                 1.6248                 2.6751
 IR Inten    --      3.4217                26.2155                23.6399

                     22                     23                     24
                      A                      A                      A
 Frequencies --   1021.3607              1027.4515              1049.7521
 Red. masses --      5.3435                 4.1797                 1.5480
 Frc consts  --      3.2843                 2.5997                 1.0051
 IR Inten    --     29.7560                38.7417                42.2667

                     25                     26                     27
                      A                      A                      A
 Frequencies --   1065.6832              1131.0767              1148.4101
 Red. masses --      1.4759                 1.8434                 1.6208
 Frc consts  --      0.9875                 1.3895                 1.2594
 IR Inten    --      0.4190                33.1835                 5.3261

                     28                     29                     30
                      A                      A                      A
 Frequencies --   1174.5782              1184.2343              1198.8596
 Red. masses --      1.5107                 1.2679                 2.7963
 Frc consts  --      1.2280                 1.0476                 2.3680
 IR Inten    --     44.1760                 0.0980                33.2938

                     31                     32                     33
                      A                      A                      A
 Frequencies --   1263.9730              1273.3433              1296.3167
 Red. masses --      2.6906                 1.5363                 1.6933
 Frc consts  --      2.5327                 1.4677                 1.6765
 IR Inten    --     16.0891                26.7835                10.1743

                     34                     35                     36
                      A                      A                      A
 Frequencies --   1359.5744              1400.2374              1415.7699
 Red. masses --      1.9979                 1.6289                 1.6708
 Frc consts  --      2.1759                 1.8817                 1.9732
 IR Inten    --     11.5749                 1.6105                 9.5980

                     37                     38                     39
                      A                      A                      A
 Frequencies --   1449.7689              1479.3630              1489.5045
 Red. masses --      1.0898                 1.0564                 1.0553
 Frc consts  --      1.3495                 1.3621                 1.3794
 IR Inten    --      2.0341                 2.6925                 2.9161

                     40                     41                     42
                      A                      A                      A
 Frequencies --   1499.6168              1503.4874              3016.0994
 Red. masses --      1.6068                 1.1828                 1.0579
 Frc consts  --      2.1290                 1.5753                 5.6699
 IR Inten    --      7.3750                 3.6087                63.2997

                     43                     44                     45
                      A                      A                      A
 Frequencies --   3036.3396              3080.2617              3092.0744
 Red. masses --      1.0363                 1.1076                 1.0903
 Frc consts  --      5.6292                 6.1916                 6.1417
 IR Inten    --     20.0022                28.2306                31.5006

                     46                     47                     48
                      A                      A                      A
 Frequencies --   3104.0852              3120.6270              3127.2058
 Red. masses --      1.0996                 1.1021                 1.0532
 Frc consts  --      6.2426                 6.3235                 6.0682
 IR Inten    --     15.9243                16.6109                11.6112

                     49                     50                     51
                      A                      A                      A
 Frequencies --   3134.5923              3212.5944              3227.4328
 Red. masses --      1.0551                 1.1181                 1.1154
 Frc consts  --      6.1080                 6.7988                 6.8456
 IR Inten    --      5.7074                 0.8484                 7.4647

 - Thermochemistry -
 -------------------
 Temperature   298.150 Kelvin.  Pressure   1.00000 Atm.
 Atom     1 has atomic number  6 and mass  12.00000

 Molecular mass:   126.06808 amu.
 Principal axes and moments of inertia in atomic units:
                           1         2         3
     Eigenvalues --   615.408721178.786701476.19198
           X            0.99963   0.02714   0.00160
           Y           -0.02701   0.99820  -0.05358
           Z           -0.00305   0.05352   0.99856
 This molecule is an asymmetric top.
 Rotational symmetry number  1.
 Warning -- assumption of classical behavior for rotation
           may cause significant error
 Rotational temperatures (Kelvin)      0.14074     0.07348     0.05867
 Rotational constants (GHZ):           2.93259     1.53102     1.22257
 Zero-point vibrational energy     414381.5 (Joules/Mol)
                                   99.03956 (Kcal/Mol)
 Warning -- explicit consideration of  10 degrees of freedom as
           vibrations may cause significant error
 Vibrational temperatures:    111.32   273.98   278.93   326.01   362.88
          (Kelvin)            440.23   544.64   613.22   719.47   796.94
                              961.38  1085.00  1132.76  1206.94  1254.08
                             1270.42  1313.40  1357.27  1385.31  1401.85
                             1429.96  1469.51  1478.27  1510.36  1533.28
                             1627.37  1652.30  1689.95  1703.85  1724.89
                             1818.57  1832.05  1865.11  1956.12  2014.63
                             2036.97  2085.89  2128.47  2143.06  2157.61
                             2163.18  4339.49  4368.61  4431.80  4448.80
                             4466.08  4489.88  4499.35  4509.97  4622.20
                             4643.55

 Zero-point correction=                           0.157830 (Hartree/Particle)
 Thermal correction to Energy=                    0.166043
 Thermal correction to Enthalpy=                  0.166987
 Thermal correction to Gibbs Free Energy=         0.125188
 Sum of electronic and zero-point Energies=           -422.972010
 Sum of electronic and thermal Energies=              -422.963797
 Sum of electronic and thermal Enthalpies=            -422.962852
 Sum of electronic and thermal Free Energies=         -423.004652

                     E (Thermal)             CV                S
                      KCal/Mol        Cal/Mol-Kelvin    Cal/Mol-Kelvin
 Total                  104.194             31.921             87.975
 Electronic               0.000              0.000              0.000
 Translational            0.889              2.981             40.409
 Rotational               0.889              2.981             28.462
 Vibrational            102.416             25.960             19.104
 Vibration     1          0.599              1.964              3.956
 Vibration     2          0.634              1.853              2.224
 Vibration     3          0.635              1.848              2.191
 Vibration     4          0.650              1.801              1.906
 Vibration     5          0.664              1.759              1.715
 Vibration     6          0.696              1.662              1.384
 Vibration     7          0.749              1.516              1.045
 Vibration     8          0.788              1.413              0.871
 Vibration     9          0.855              1.250              0.658
 Vibration    10          0.909              1.131              0.536

 Optimization completed.
    -- Stationary point found.
 Normal termination of Gaussian 09 at Mon Jan 27 19:48:43 2020.
