 Gaussian 09, Revision D.01,
 Gaussian 09:  ES64L-G09RevD.01 24-Apr-2013

 -----------------------------
 # b3lyp 6-31G(2df,p) opt Freq
 -----------------------------

 -----
 titel
 -----
 Symbolic Z-matrix:
 Charge =  0 Multiplicity = 1

 SCF Done:  E(RB3LYP) =  -423.123596555     A.U. after   12 cycles
 Optimization completed.
    -- Stationary point found.
 Normal termination of Gaussian 09 at Mon Jan 27 22:07:06 2020.

 ----------------------------------------------------------------------
 #N Geom=AllCheck Guess=TCheck SCRF=Check GenChk RB3LYP/6-31G(2df,p) Fr
 eq
 ----------------------------------------------------------------------

 Structure from the checkpoint file:  "/scratch/puck/g09_561c8b38-e8cc-45b3-a1db-d44af1ff2ad6/Gau-159525.chk"
 -----
 titel
 -----
 Charge =  0 Multiplicity = 1

                         Standard orientation:
 ---------------------------------------------------------------------
 Center     Atomic      Atomic             Coordinates (Angstroms)
 Number     Number       Type             X           Y           Z
 ---------------------------------------------------------------------
      1          6           0       -2.668916    0.077208   -0.409650
      2          6           0       -1.350949   -0.674869   -0.276118
      3          6           0       -0.174117   -0.016929   -0.994702
      4          6           0        1.109301   -0.397486   -0.205848
      5          8           0        2.314041   -0.355897   -0.874501
      6          6           0        0.687827   -1.297674    0.951380
      7          6           0       -0.571444   -0.382706    1.042428
      8          6           0        0.246417    0.742454    0.251418
      9          8           0        0.603856    2.037707    0.514956
     10          1           0       -3.422181   -0.322518    0.278352
     11          1           0       -2.541283    1.142542   -0.182560
     12          1           0       -3.070294    0.002056   -1.426097
     13          1           0       -1.502826   -1.742443   -0.481326
     14          1           0       -0.073665    0.282090   -2.031127
     15          1           0        2.964534    0.056889   -0.295339
     16          1           0        0.518216   -2.363924    0.763781
     17          1           0        1.346776   -1.172468    1.816722
     18          1           0       -1.097283   -0.253619    1.986932
     19          1           0       -0.133881    2.616938    0.293570
 ---------------------------------------------------------------------

 SCF Done:  E(RB3LYP) =  -423.123596555     A.U. after    1 cycles

 The electronic state is 1-A.
 Alpha  occ. eigenvalues --  -19.15880 -19.14589 -10.23186 -10.23138 -10.18930
 Alpha  occ. eigenvalues --  -10.18764 -10.18149 -10.17893 -10.17561  -1.04583
 Alpha  occ. eigenvalues --   -1.02801  -0.91358  -0.75388  -0.71275  -0.64889
 Alpha  occ. eigenvalues --   -0.61984  -0.55605  -0.55243  -0.52788  -0.47516
 Alpha  occ. eigenvalues --   -0.45320  -0.44610  -0.42141  -0.40707  -0.39605
 Alpha  occ. eigenvalues --   -0.37261  -0.36924  -0.35886  -0.35166  -0.31180
 Alpha  occ. eigenvalues --   -0.30072  -0.28531  -0.23723  -0.22552
 Alpha virt. eigenvalues --    0.05704   0.08501   0.10531   0.11953   0.12989
 Alpha virt. eigenvalues --    0.13781   0.14587   0.16300   0.16988   0.17174
 Alpha virt. eigenvalues --    0.17894   0.18373   0.19777   0.22533   0.23753

 Mulliken charges:
               1
     1  C   -0.405041
     2  C    0.030112
     3  C   -0.192363
     4  C    0.335332
     5  O   -0.469453
     6  C   -0.303668
     7  C   -0.145117
     8  C    0.294242
     9  O   -0.457538
    10  H    0.112920
    11  H    0.098115
    12  H    0.115394
    13  H    0.062988
    14  H    0.088657
    15  H    0.289635
    16  H    0.091850
    17  H    0.092349
    18  H    0.070065
    19  H    0.291520
 Sum of Mulliken charges =   0.00000

 Dipole moment (field-independent basis, Debye):
    X=             -1.0914    Y=              0.7586    Z=              0.7615  Tot=              1.5318
 Quadrupole moment (field-independent basis, Debye-Ang):
   XX=            -51.1033   YY=            -51.6871   ZZ=            -54.4224
   XY=             -0.9503   XZ=              2.6256   YZ=             -1.9110

  Exact polarizability:  84.575  -0.708  72.409   2.438  -1.922  68.676
 Approx polarizability: 114.178   0.325 110.238   1.734   1.402 106.440

                      1                      2                      3
                      A                      A                      A
 Frequencies --    151.5646               168.7964               233.1306
 Red. masses --      3.5021                 2.6475                 2.0106
 Frc consts  --      0.0474                 0.0444                 0.0644
 IR Inten    --      5.3791                18.3508                 1.0568

                      4                      5                      6
                      A                      A                      A
 Frequencies --    238.1006               280.6517               295.0983
 Red. masses --      1.2298                 2.0063                 1.4195
 Frc consts  --      0.0411                 0.0931                 0.0728
 IR Inten    --      0.4678                15.1522                79.0317

                      7                      8                      9
                      A                      A                      A
 Frequencies --    331.7967               387.7922               421.3834
 Red. masses --      1.4906                 2.6069                 2.7986
 Frc consts  --      0.0967                 0.2310                 0.2928
 IR Inten    --     58.3206                13.0229                 9.2194

                     10                     11                     12
                      A                      A                      A
 Frequencies --    456.3997               534.0964               625.4184
 Red. masses --      2.9756                 3.0496                 4.1365
 Frc consts  --      0.3652                 0.5125                 0.9533
 IR Inten    --      4.2836                 3.5689                 5.2256

                     13                     14                     15
                      A                      A                      A
 Frequencies --    680.4883               730.3842               776.8235
 Red. masses --      4.8982                 3.5634                 2.5603
 Frc consts  --      1.3364                 1.1200                 0.9103
 IR Inten    --     20.1641                 2.9746                 1.9207

                     16                     17                     18
                      A                      A                      A
 Frequencies --    818.3498               903.3567               911.2074
 Red. masses --      3.3368                 1.9901                 2.3985
 Frc consts  --      1.3166                 0.9569                 1.1734
 IR Inten    --     10.4392                 0.9054                 5.5349

                     19                     20                     21
                      A                      A                      A
 Frequencies --    933.6877               964.4545              1003.2502
 Red. masses --      1.5996                 2.0010                 2.7980
 Frc consts  --      0.8216                 1.0966                 1.6593
 IR Inten    --      4.0733                 4.6674                 3.3627

                     22                     23                     24
                      A                      A                      A
 Frequencies --   1007.7274              1034.0890              1078.8881
 Red. masses --      1.4836                 1.7734                 1.3968
 Frc consts  --      0.8877                 1.1173                 0.9580
 IR Inten    --      4.9806                 3.0512                10.7775

                     25                     26                     27
                      A                      A                      A
 Frequencies --   1093.0363              1108.6447              1144.4511
 Red. masses --      1.6733                 1.4906                 2.6655
 Frc consts  --      1.1779                 1.0795                 2.0570
 IR Inten    --      7.5010                 4.6822                21.7152

                     28                     29                     30
                      A                      A                      A
 Frequencies --   1163.5113              1197.8167              1221.4821
 Red. masses --      1.8262                 2.5727                 1.5790
 Frc consts  --      1.4566                 2.1748                 1.3880
 IR Inten    --      8.7744                16.9175                 9.5997

                     31                     32                     33
                      A                      A                      A
 Frequencies --   1243.8682              1269.9044              1289.5429
 Red. masses --      1.6012                 1.6469                 1.4321
 Frc consts  --      1.4596                 1.5648                 1.4032
 IR Inten    --     45.7843                25.8870               125.8121

                     34                     35                     36
                      A                      A                      A
 Frequencies --   1315.7113              1373.4637              1381.2894
 Red. masses --      1.7995                 1.7647                 2.3060
 Frc consts  --      1.8353                 1.9613                 2.5923
 IR Inten    --     98.4291                10.5645                29.5821

                     37                     38                     39
                      A                      A                      A
 Frequencies --   1409.6630              1482.2340              1491.1082
 Red. masses --      1.2670                 1.4978                 1.0558
 Frc consts  --      1.4834                 1.9388                 1.3831
 IR Inten    --      2.0635                18.8109                 1.9075

                     40                     41                     42
                      A                      A                      A
 Frequencies --   1497.4923              1527.0090              3017.9169
 Red. masses --      1.0486                 2.4174                 1.0820
 Frc consts  --      1.3854                 3.3210                 5.8061
 IR Inten    --      4.2664                35.9365                22.9234

                     43                     44                     45
                      A                      A                      A
 Frequencies --   3021.0233              3033.7954              3085.9067
 Red. masses --      1.0354                 1.0584                 1.1004
 Frc consts  --      5.5677                 5.7394                 6.1739
 IR Inten    --     30.7094                62.5908                31.5376

                     46                     47                     48
                      A                      A                      A
 Frequencies --   3089.0861              3092.9035              3130.6280
 Red. masses --      1.1072                 1.1014                 1.0913
 Frc consts  --      6.2248                 6.2078                 6.3015
 IR Inten    --     50.1556                24.0023                28.6372

                     49                     50                     51
                      A                      A                      A
 Frequencies --   3194.1204              3786.5876              3791.4959
 Red. masses --      1.0928                 1.0663                 1.0660
 Frc consts  --      6.5688                 9.0081                 9.0291
 IR Inten    --      8.7112                21.0686                24.7803

 - Thermochemistry -
 -------------------
 Temperature   298.150 Kelvin.  Pressure   1.00000 Atm.
 Atom     1 has atomic number  6 and mass  12.00000

 Molecular mass:   126.06808 amu.
 Principal axes and moments of inertia in atomic units:
                           1         2         3
     Eigenvalues --   692.501991203.545961391.15205
           X            0.99968  -0.01036   0.02324
           Y            0.01200   0.99738  -0.07131
           Z           -0.02244   0.07157   0.99718
 This molecule is an asymmetric top.
 Rotational symmetry number  1.
 Warning -- assumption of classical behavior for rotation
           may cause significant error
 Rotational temperatures (Kelvin)      0.12507     0.07197     0.06226
 Rotational constants (GHZ):           2.60612     1.49952     1.29730
 Zero-point vibrational energy     415227.6 (Joules/Mol)
                                   99.24177 (Kcal/Mol)
 Warning -- explicit consideration of  11 degrees of freedom as
           vibrations may cause significant error
 Vibrational temperatures:    218.07   242.86   335.42   342.57   403.79
          (Kelvin)            424.58   477.38   557.95   606.28   656.66
                              768.44   899.84   979.07  1050.86  1117.67
                             1177.42  1299.73  1311.02  1343.37  1387.63
                             1443.45  1449.89  1487.82  1552.28  1572.63
                             1595.09  1646.61  1674.03  1723.39  1757.44
                             1789.65  1827.11  1855.36  1893.01  1976.11
                             1987.36  2028.19  2132.60  2145.37  2154.55
                             2197.02  4342.10  4346.57  4364.95  4439.93
                             4444.50  4449.99  4504.27  4595.62  5448.05
                             5455.11

 Zero-point correction=                           0.158152 (Hartree/Particle)
 Thermal correction to Energy=                    0.166640
 Thermal correction to Enthalpy=                  0.167584
 Thermal correction to Gibbs Free Energy=         0.125777
 Sum of electronic and zero-point Energies=           -422.965445
 Sum of electronic and thermal Energies=              -422.956956
 Sum of electronic and thermal Enthalpies=            -422.956012
 Sum of electronic and thermal Free Energies=         -422.997819

                     E (Thermal)             CV                S
                      KCal/Mol        Cal/Mol-Kelvin    Cal/Mol-Kelvin
 Total                  104.568             33.624             87.990
 Electronic               0.000              0.000              0.000
 Translational            0.889              2.981             40.409
 Rotational               0.889              2.981             28.541
 Vibrational            102.791             27.663             19.041
 Vibration     1          0.619              1.901              2.653
 Vibration     2          0.625              1.881              2.449
 Vibration     3          0.654              1.790              1.855
 Vibration     4          0.656              1.782              1.817
 Vibration     5          0.680              1.709              1.530
 Vibration     6          0.689              1.683              1.445
 Vibration     7          0.714              1.612              1.251
 Vibration     8          0.756              1.496              1.009
 Vibration     9          0.784              1.424              0.887
 Vibration    10          0.815              1.347              0.777
 Vibration    11          0.889              1.175              0.578

 Optimization completed.
    -- Stationary point found.
 Normal termination of Gaussian 09 at Mon Jan 27 23:00:23 2020.
