 Gaussian 09, Revision D.01,
 Gaussian 09:  ES64L-G09RevD.01 24-Apr-2013

 -----------------------------
 # b3lyp 6-31G(2df,p) opt Freq
 -----------------------------

 -----
 titel
 -----
 Symbolic Z-matrix:
 Charge =  0 Multiplicity = 1

 SCF Done:  E(RB3LYP) =  -423.210269689     A.U. after   14 cycles
 Optimization completed.
    -- Stationary point found.
 Normal termination of Gaussian 09 at Tue Jan 28 00:46:42 2020.

 ----------------------------------------------------------------------
 #N Geom=AllCheck Guess=TCheck SCRF=Check GenChk RB3LYP/6-31G(2df,p) Fr
 eq
 ----------------------------------------------------------------------

 Structure from the checkpoint file:  "/scratch/puck/g09_fece837a-d162-42a7-9056-308fc9c3f1c8/Gau-37665.chk"
 -----
 titel
 -----
 Charge =  0 Multiplicity = 1

                         Standard orientation:
 ---------------------------------------------------------------------
 Center     Atomic      Atomic             Coordinates (Angstroms)
 Number     Number       Type             X           Y           Z
 ---------------------------------------------------------------------
      1          6           0       -2.373600   -0.215406    0.983510
      2          6           0       -1.538605   -0.259232   -0.301508
      3          6           0       -0.898882    1.110292   -0.645955
      4          6           0        0.528496    1.051907   -0.088794
      5          8           0        1.213822    1.984549    0.245902
      6          6           0        0.916492   -0.406132    0.033472
      7          6           0        2.153715   -0.819760    0.768897
      8          8           0        0.599019   -1.083044   -1.210488
      9          6           0       -0.332224   -1.177213   -0.136803
     10          1           0       -3.239525    0.441824    0.862074
     11          1           0       -2.742764   -1.210859    1.251986
     12          1           0       -1.784205    0.161818    1.827220
     13          1           0       -2.164161   -0.619299   -1.125698
     14          1           0       -0.837651    1.266167   -1.727555
     15          1           0       -1.434239    1.961488   -0.219684
     16          1           0        3.034845   -0.351667    0.320295
     17          1           0        2.103922   -0.496036    1.812841
     18          1           0        2.275707   -1.904850    0.737431
     19          1           0       -0.447014   -2.167362    0.300869
 ---------------------------------------------------------------------

 SCF Done:  E(RB3LYP) =  -423.210269689     A.U. after    1 cycles

 The electronic state is 1-A.
 Alpha  occ. eigenvalues --  -19.16343 -19.13533 -10.26982 -10.24682 -10.24627
 Alpha  occ. eigenvalues --  -10.20624 -10.19277 -10.18993 -10.18832  -1.08588
 Alpha  occ. eigenvalues --   -1.04294  -0.82430  -0.75949  -0.72463  -0.67130
 Alpha  occ. eigenvalues --   -0.64519  -0.58147  -0.52866  -0.49815  -0.47297
 Alpha  occ. eigenvalues --   -0.45921  -0.45481  -0.42345  -0.41610  -0.41283
 Alpha  occ. eigenvalues --   -0.39725  -0.38972  -0.37022  -0.36428  -0.36193
 Alpha  occ. eigenvalues --   -0.34550  -0.30160  -0.28886  -0.23777
 Alpha virt. eigenvalues --   -0.02553   0.08137   0.10422   0.11213   0.11609
 Alpha virt. eigenvalues --    0.12568   0.14113   0.14404   0.15073   0.16875
 Alpha virt. eigenvalues --    0.17339   0.18849   0.19079   0.20425   0.21088

 Mulliken charges:
               1
     1  C   -0.402120
     2  C   -0.027657
     3  C   -0.350932
     4  C    0.378798
     5  O   -0.318074
     6  C    0.288245
     7  C   -0.495718
     8  O   -0.297858
     9  C   -0.008958
    10  H    0.125631
    11  H    0.119635
    12  H    0.122797
    13  H    0.089465
    14  H    0.142024
    15  H    0.126546
    16  H    0.145209
    17  H    0.134688
    18  H    0.129827
    19  H    0.098452
 Sum of Mulliken charges =   0.00000

 Dipole moment (field-independent basis, Debye):
    X=             -2.0895    Y=             -1.7278    Z=              0.9363  Tot=              2.8685
 Quadrupole moment (field-independent basis, Debye-Ang):
   XX=            -51.5722   YY=            -57.2302   ZZ=            -54.0362
   XY=             -3.3236   XZ=              1.2053   YZ=             -3.5809

  Exact polarizability:  85.198   2.721  76.104   3.375  -0.303  63.301
 Approx polarizability: 114.769  11.669 116.852   5.382   7.187 101.052

                      1                      2                      3
                      A                      A                      A
 Frequencies --     85.9978               119.5367               154.2428
 Red. masses --      3.6489                 2.1574                 1.2118
 Frc consts  --      0.0159                 0.0182                 0.0170
 IR Inten    --      2.8672                 1.4369                 0.4012

                      4                      5                      6
                      A                      A                      A
 Frequencies --    230.3924               247.3339               285.0477
 Red. masses --      1.2235                 2.1547                 3.5947
 Frc consts  --      0.0383                 0.0777                 0.1721
 IR Inten    --      1.4697                 5.0151                 1.5552

                      7                      8                      9
                      A                      A                      A
 Frequencies --    332.5677               356.3605               471.0421
 Red. masses --      2.3475                 2.7198                 3.5973
 Frc consts  --      0.1530                 0.2035                 0.4703
 IR Inten    --      1.2045                 1.3421                 1.2740

                     10                     11                     12
                      A                      A                      A
 Frequencies --    496.9635               526.0519               636.4393
 Red. masses --      5.2613                 3.6756                 3.5142
 Frc consts  --      0.7656                 0.5993                 0.8387
 IR Inten    --     17.4110                 5.3700                 0.7892

                     13                     14                     15
                      A                      A                      A
 Frequencies --    651.5978               698.7744               815.9011
 Red. masses --      4.1256                 3.8949                 3.6440
 Frc consts  --      1.0320                 1.1205                 1.4292
 IR Inten    --      3.0873                 3.1413                 0.9049

                     16                     17                     18
                      A                      A                      A
 Frequencies --    837.2420               861.0437               908.6264
 Red. masses --      2.5947                 3.0987                 1.8463
 Frc consts  --      1.0716                 1.3536                 0.8981
 IR Inten    --      8.6793                19.3820                 1.0261

                     19                     20                     21
                      A                      A                      A
 Frequencies --    950.2851              1001.8958              1023.5279
 Red. masses --      1.8514                 1.2651                 2.7335
 Frc consts  --      0.9850                 0.7482                 1.6872
 IR Inten    --      1.2351                 0.3343                25.3871

                     22                     23                     24
                      A                      A                      A
 Frequencies --   1043.9831              1083.8802              1097.9520
 Red. masses --      2.1050                 1.5959                 1.9661
 Frc consts  --      1.3517                 1.1047                 1.3964
 IR Inten    --      8.0500                18.1433                19.8071

                     25                     26                     27
                      A                      A                      A
 Frequencies --   1112.5774              1155.0591              1206.5167
 Red. masses --      2.1969                 1.8413                 1.3195
 Frc consts  --      1.6022                 1.4474                 1.1317
 IR Inten    --     13.1495                 3.3569                 0.6121

                     28                     29                     30
                      A                      A                      A
 Frequencies --   1251.4535              1289.9911              1295.3020
 Red. masses --      1.5561                 1.3897                 3.9706
 Frc consts  --      1.4359                 1.3625                 3.9251
 IR Inten    --      1.4462                 5.1546                 6.6857

                     31                     32                     33
                      A                      A                      A
 Frequencies --   1328.7916              1353.7843              1407.5766
 Red. masses --      1.6646                 1.5047                 1.3001
 Frc consts  --      1.7317                 1.6248                 1.5177
 IR Inten    --      3.8212                 2.4617                 3.0805

                     34                     35                     36
                      A                      A                      A
 Frequencies --   1412.9067              1447.6999              1457.5805
 Red. masses --      1.2343                 1.4266                 1.8604
 Frc consts  --      1.4518                 1.7616                 2.3287
 IR Inten    --      2.2616                 9.7677                 7.0111

                     37                     38                     39
                      A                      A                      A
 Frequencies --   1478.7322              1490.9144              1498.3506
 Red. masses --      1.1087                 1.1231                 1.0530
 Frc consts  --      1.4284                 1.4708                 1.3928
 IR Inten    --      7.7229                 4.1575                 2.4430

                     40                     41                     42
                      A                      A                      A
 Frequencies --   1499.6179              1841.5135              3030.2026
 Red. masses --      1.0462                12.6574                 1.0366
 Frc consts  --      1.3862                25.2897                 5.6078
 IR Inten    --      6.0805               208.4985                17.9342

                     43                     44                     45
                      A                      A                      A
 Frequencies --   3044.1797              3047.7327              3065.9862
 Red. masses --      1.0824                 1.0351                 1.0636
 Frc consts  --      5.9101                 5.6647                 5.8909
 IR Inten    --     18.5991                13.1492                 6.7536

                     46                     47                     48
                      A                      A                      A
 Frequencies --   3096.8982              3109.5369              3114.9159
 Red. masses --      1.1010                 1.1013                 1.1006
 Frc consts  --      6.2212                 6.2739                 6.2915
 IR Inten    --     28.9514                19.2111                 9.4916

                     49                     50                     51
                      A                      A                      A
 Frequencies --   3118.1472              3131.1869              3133.0702
 Red. masses --      1.1010                 1.0949                 1.0983
 Frc consts  --      6.3074                 6.3250                 6.3520
 IR Inten    --      9.3890                 6.5725                26.1235

 - Thermochemistry -
 -------------------
 Temperature   298.150 Kelvin.  Pressure   1.00000 Atm.
 Atom     1 has atomic number  6 and mass  12.00000

 Molecular mass:   126.06808 amu.
 Principal axes and moments of inertia in atomic units:
                           1         2         3
     Eigenvalues --   775.786421131.131751456.21352
           X            0.99805  -0.06205   0.00667
           Y            0.06235   0.99595  -0.06476
           Z           -0.00262   0.06505   0.99788
 This molecule is an asymmetric top.
 Rotational symmetry number  1.
 Warning -- assumption of classical behavior for rotation
           may cause significant error
 Rotational temperatures (Kelvin)      0.11165     0.07657     0.05948
 Rotational constants (GHZ):           2.32634     1.59552     1.23934
 Zero-point vibrational energy     414726.8 (Joules/Mol)
                                   99.12209 (Kcal/Mol)
 Warning -- explicit consideration of  11 degrees of freedom as
           vibrations may cause significant error
 Vibrational temperatures:    123.73   171.99   221.92   331.48   355.86
          (Kelvin)            410.12   478.49   512.72   677.72   715.02
                              756.87   915.69   937.50  1005.38  1173.90
                             1204.60  1238.85  1307.31  1367.25  1441.50
                             1472.63  1502.06  1559.46  1579.71  1600.75
                             1661.87  1735.91  1800.56  1856.01  1863.65
                             1911.83  1947.79  2025.19  2032.86  2082.91
                             2097.13  2127.56  2145.09  2155.79  2157.61
                             2649.52  4359.78  4379.89  4385.00  4411.26
                             4455.74  4473.92  4481.66  4486.31  4505.07
                             4507.78

 Zero-point correction=                           0.157961 (Hartree/Particle)
 Thermal correction to Energy=                    0.166753
 Thermal correction to Enthalpy=                  0.167697
 Thermal correction to Gibbs Free Energy=         0.124616
 Sum of electronic and zero-point Energies=           -423.052309
 Sum of electronic and thermal Energies=              -423.043517
 Sum of electronic and thermal Enthalpies=            -423.042573
 Sum of electronic and thermal Free Energies=         -423.085654

                     E (Thermal)             CV                S
                      KCal/Mol        Cal/Mol-Kelvin    Cal/Mol-Kelvin
 Total                  104.639             33.146             90.671
 Electronic               0.000              0.000              0.000
 Translational            0.889              2.981             40.409
 Rotational               0.889              2.981             28.637
 Vibrational            102.862             27.184             21.626
 Vibration     1          0.601              1.959              3.749
 Vibration     2          0.609              1.933              3.108
 Vibration     3          0.620              1.898              2.619
 Vibration     4          0.652              1.795              1.876
 Vibration     5          0.661              1.767              1.750
 Vibration     6          0.683              1.701              1.503
 Vibration     7          0.715              1.610              1.248
 Vibration     8          0.732              1.562              1.138
 Vibration     9          0.828              1.314              0.735
 Vibration    10          0.852              1.257              0.666
 Vibration    11          0.881              1.192              0.596

 Optimization completed.
    -- Stationary point found.
 Normal termination of Gaussian 09 at Tue Jan 28 02:57:23 2020.
