 Gaussian 09, Revision D.01,
 Gaussian 09:  ES64L-G09RevD.01 24-Apr-2013

 -----------------------------
 # b3lyp 6-31G(2df,p) opt Freq
 -----------------------------

 -----
 titel
 -----
 Symbolic Z-matrix:
 Charge =  0 Multiplicity = 1

 SCF Done:  E(RB3LYP) =  -423.132227508     A.U. after   14 cycles
 Optimization completed.
    -- Stationary point found.
 Normal termination of Gaussian 09 at Mon Jan 27 23:04:24 2020.

 ----------------------------------------------------------------------
 #N Geom=AllCheck Guess=TCheck SCRF=Check GenChk RB3LYP/6-31G(2df,p) Fr
 eq
 ----------------------------------------------------------------------

 Structure from the checkpoint file:  "/scratch/puck/g09_b336807b-e2d1-4138-90e1-588ae2ff6ac7/Gau-179065.chk"
 -----
 titel
 -----
 Charge =  0 Multiplicity = 1

                         Standard orientation:
 ---------------------------------------------------------------------
 Center     Atomic      Atomic             Coordinates (Angstroms)
 Number     Number       Type             X           Y           Z
 ---------------------------------------------------------------------
      1          6           0       -0.989696    1.929457    0.170126
      2          6           0       -0.335292    0.543475    0.135006
      3          6           0       -1.472836   -0.449451    0.350109
      4          8           0       -2.330450   -0.653313   -0.471621
      5          6           0        1.020437    0.290935    0.886626
      6          6           0        1.735787    1.103582   -0.230944
      7          6           0        0.719684    0.194735   -0.982973
      8          6           0        1.232736   -0.936345   -0.059389
      9          8           0        0.397671   -2.060151    0.048969
     10          1           0       -1.490840    2.090635    1.131972
     11          1           0       -0.285871    2.750182    0.026090
     12          1           0       -1.754467    1.985642   -0.609464
     13          1           0       -1.535172   -0.889557    1.371573
     14          1           0        1.205803    0.341196    1.961834
     15          1           0        1.569915    2.177413   -0.260440
     16          1           0        2.792514    0.873013   -0.389530
     17          1           0        0.539339    0.133658   -2.055838
     18          1           0        2.277783   -1.231311   -0.214838
     19          1           0        0.678314   -2.581490    0.808488
 ---------------------------------------------------------------------

 SCF Done:  E(RB3LYP) =  -423.132227508     A.U. after    1 cycles

 The electronic state is 1-A.
 Alpha  occ. eigenvalues --  -19.15634 -19.11854 -10.25538 -10.24741 -10.20790
 Alpha  occ. eigenvalues --  -10.20743 -10.20724 -10.19724 -10.18071  -1.04349
 Alpha  occ. eigenvalues --   -1.02673  -0.91586  -0.75328  -0.67546  -0.64582
 Alpha  occ. eigenvalues --   -0.63490  -0.58832  -0.53432  -0.50865  -0.50614
 Alpha  occ. eigenvalues --   -0.47010  -0.43420  -0.42980  -0.40751  -0.40356
 Alpha  occ. eigenvalues --   -0.38044  -0.35911  -0.35061  -0.34477  -0.33067
 Alpha  occ. eigenvalues --   -0.30937  -0.30466  -0.27709  -0.23132
 Alpha virt. eigenvalues --   -0.00021   0.07095   0.10251   0.11300   0.12200
 Alpha virt. eigenvalues --    0.13024   0.13867   0.14317   0.15313   0.15969
 Alpha virt. eigenvalues --    0.17367   0.17588   0.18994   0.19844   0.22363

 Mulliken charges:
               1
     1  C   -0.481576
     2  C    0.275858
     3  C    0.116543
     4  O   -0.280896
     5  C   -0.161272
     6  C   -0.253212
     7  C   -0.101381
     8  C    0.141637
     9  O   -0.420736
    10  H    0.120150
    11  H    0.118236
    12  H    0.145566
    13  H    0.056045
    14  H    0.069143
    15  H    0.107776
    16  H    0.096901
    17  H    0.088165
    18  H    0.073676
    19  H    0.289375
 Sum of Mulliken charges =   0.00000

 Dipole moment (field-independent basis, Debye):
    X=              3.2513    Y=              0.7063    Z=              2.1193  Tot=              3.9448
 Quadrupole moment (field-independent basis, Debye-Ang):
   XX=            -58.4246   YY=            -50.9037   ZZ=            -51.4957
   XY=             -4.4925   XZ=             -2.1661   YZ=             -4.1865

  Exact polarizability:  83.542  -0.008  77.690   0.329  -2.403  68.199
 Approx polarizability: 120.257   2.407 110.392   6.550  -1.858 111.728

                      1                      2                      3
                      A                      A                      A
 Frequencies --    103.8055               159.6414               198.8916
 Red. masses --      4.5064                 5.4346                 1.0437
 Frc consts  --      0.0286                 0.0816                 0.0243
 IR Inten    --      3.2807                 0.9660                 0.4469

                      4                      5                      6
                      A                      A                      A
 Frequencies --    251.8746               275.0547               327.3053
 Red. masses --      2.4664                 2.8064                 1.4631
 Frc consts  --      0.0922                 0.1251                 0.0923
 IR Inten    --      1.5140                13.5573                76.3085

                      7                      8                      9
                      A                      A                      A
 Frequencies --    366.1125               376.9306               393.4476
 Red. masses --      3.1302                 2.4155                 2.7924
 Frc consts  --      0.2472                 0.2022                 0.2547
 IR Inten    --      8.3402                15.7304                13.9183

                     10                     11                     12
                      A                      A                      A
 Frequencies --    477.9912               573.1164               643.3711
 Red. masses --      3.3094                 2.8934                 4.7170
 Frc consts  --      0.4455                 0.5599                 1.1504
 IR Inten    --      0.2157                 3.6516                 3.3258

                     13                     14                     15
                      A                      A                      A
 Frequencies --    696.0685               781.0857               826.8440
 Red. masses --      3.7684                 2.8885                 2.6673
 Frc consts  --      1.0758                 1.0383                 1.0744
 IR Inten    --      5.0421                 0.1311                 7.8490

                     16                     17                     18
                      A                      A                      A
 Frequencies --    881.2355               893.0925               896.4350
 Red. masses --      2.3261                 2.2455                 1.9670
 Frc consts  --      1.0643                 1.0552                 0.9313
 IR Inten    --      9.4362                 4.1763                 3.0961

                     19                     20                     21
                      A                      A                      A
 Frequencies --    942.7238               974.8669              1017.6715
 Red. masses --      1.6248                 2.0146                 1.0511
 Frc consts  --      0.8508                 1.1281                 0.6414
 IR Inten    --     29.2457                 2.7575                 0.7583

                     22                     23                     24
                      A                      A                      A
 Frequencies --   1030.9443              1073.2285              1082.5200
 Red. masses --      1.5038                 1.8472                 1.8955
 Frc consts  --      0.9417                 1.2536                 1.3087
 IR Inten    --      7.9618                15.4995                 2.8106

                     25                     26                     27
                      A                      A                      A
 Frequencies --   1092.9410              1141.9461              1148.3945
 Red. masses --      1.4095                 1.8544                 2.9682
 Frc consts  --      0.9920                 1.4248                 2.3063
 IR Inten    --      1.4661                 3.2622                46.6282

                     28                     29                     30
                      A                      A                      A
 Frequencies --   1186.3731              1189.7825              1211.3032
 Red. masses --      2.3430                 1.6880                 1.9610
 Frc consts  --      1.9430                 1.4079                 1.6952
 IR Inten    --     58.8820                 4.6297                 0.3178

                     31                     32                     33
                      A                      A                      A
 Frequencies --   1219.2465              1252.0226              1279.3625
 Red. masses --      1.7315                 2.0064                 2.2916
 Frc consts  --      1.5165                 1.8531                 2.2100
 IR Inten    --      8.2028                34.1916                12.9850

                     34                     35                     36
                      A                      A                      A
 Frequencies --   1311.2417              1402.8419              1415.3285
 Red. masses --      1.5035                 1.2064                 1.2231
 Frc consts  --      1.5231                 1.3988                 1.4435
 IR Inten    --     17.6448                 3.3871                 4.9552

                     37                     38                     39
                      A                      A                      A
 Frequencies --   1431.5314              1492.5589              1495.2212
 Red. masses --      1.2874                 1.0489                 1.0748
 Frc consts  --      1.5544                 1.3767                 1.4158
 IR Inten    --      9.1688                 5.5203                 1.3238

                     40                     41                     42
                      A                      A                      A
 Frequencies --   1534.4448              1815.3229              2855.5009
 Red. masses --      1.1030                10.7888                 1.0830
 Frc consts  --      1.5301                20.9475                 5.2028
 IR Inten    --      4.1381               167.1847               127.9918

                     43                     44                     45
                      A                      A                      A
 Frequencies --   3028.2406              3037.3440              3071.4918
 Red. masses --      1.0846                 1.0414                 1.0647
 Frc consts  --      5.8600                 5.6605                 5.9178
 IR Inten    --     61.3869                20.0900                42.4256

                     46                     47                     48
                      A                      A                      A
 Frequencies --   3090.8669              3102.1727              3124.0862
 Red. masses --      1.0905                 1.0941                 1.0925
 Frc consts  --      6.1379                 6.2034                 6.2825
 IR Inten    --     61.7008                13.1621                30.3760

                     49                     50                     51
                      A                      A                      A
 Frequencies --   3133.5851              3166.2987              3811.3312
 Red. masses --      1.1018                 1.0982                 1.0662
 Frc consts  --      6.3746                 6.4869                 9.1248
 IR Inten    --     16.0608                26.9800                39.7289

 - Thermochemistry -
 -------------------
 Temperature   298.150 Kelvin.  Pressure   1.00000 Atm.
 Atom     1 has atomic number  6 and mass  12.00000

 Molecular mass:   126.06808 amu.
 Principal axes and moments of inertia in atomic units:
                           1         2         3
     Eigenvalues --   792.69142 954.840371462.77029
           X            0.99584  -0.08994  -0.01478
           Y            0.08972   0.99585  -0.01522
           Z            0.01608   0.01383   0.99977
 This molecule is an asymmetric top.
 Rotational symmetry number  1.
 Warning -- assumption of classical behavior for rotation
           may cause significant error
 Rotational temperatures (Kelvin)      0.10927     0.09071     0.05921
 Rotational constants (GHZ):           2.27673     1.89010     1.23378
 Zero-point vibrational energy     414416.6 (Joules/Mol)
                                   99.04794 (Kcal/Mol)
 Warning -- explicit consideration of  11 degrees of freedom as
           vibrations may cause significant error
 Vibrational temperatures:    149.35   229.69   286.16   362.39   395.74
          (Kelvin)            470.92   526.75   542.32   566.08   687.72
                              824.59   925.67  1001.49  1123.81  1189.64
                             1267.90  1284.96  1289.77  1356.37  1402.61
                             1464.20  1483.30  1544.13  1557.50  1572.50
                             1643.00  1652.28  1706.92  1711.83  1742.79
                             1754.22  1801.38  1840.71  1886.58  2018.37
                             2036.34  2059.65  2147.46  2151.29  2207.72
                             2611.84  4108.42  4356.96  4370.06  4419.19
                             4447.06  4463.33  4494.86  4508.52  4555.59
                             5483.65

 Zero-point correction=                           0.157843 (Hartree/Particle)
 Thermal correction to Energy=                    0.166314
 Thermal correction to Enthalpy=                  0.167258
 Thermal correction to Gibbs Free Energy=         0.125228
 Sum of electronic and zero-point Energies=           -422.974385
 Sum of electronic and thermal Energies=              -422.965914
 Sum of electronic and thermal Enthalpies=            -422.964970
 Sum of electronic and thermal Free Energies=         -423.006999

                     E (Thermal)             CV                S
                      KCal/Mol        Cal/Mol-Kelvin    Cal/Mol-Kelvin
 Total                  104.363             33.043             88.459
 Electronic               0.000              0.000              0.000
 Translational            0.889              2.981             40.409
 Rotational               0.889              2.981             28.495
 Vibrational            102.586             27.082             19.556
 Vibration     1          0.605              1.946              3.382
 Vibration     2          0.622              1.892              2.554
 Vibration     3          0.637              1.841              2.143
 Vibration     4          0.664              1.760              1.717
 Vibration     5          0.677              1.719              1.564
 Vibration     6          0.711              1.621              1.273
 Vibration     7          0.739              1.542              1.096
 Vibration     8          0.747              1.519              1.051
 Vibration     9          0.761              1.484              0.987
 Vibration    10          0.834              1.299              0.716
 Vibration    11          0.929              1.089              0.498

 Normal termination of Gaussian 09 at Mon Jan 27 23:52:32 2020.
