 Gaussian 09, Revision D.01,
 Gaussian 09:  ES64L-G09RevD.01 24-Apr-2013

 -----------------------------
 # b3lyp 6-31G(2df,p) opt Freq
 -----------------------------

 -----
 titel
 -----
 Symbolic Z-matrix:
 Charge =  0 Multiplicity = 1

 SCF Done:  E(RB3LYP) =  -423.156963692     A.U. after   14 cycles
 Optimization completed.
    -- Stationary point found.
 Normal termination of Gaussian 09 at Mon Jan 27 23:04:54 2020.

 ----------------------------------------------------------------------
 #N Geom=AllCheck Guess=TCheck SCRF=Check GenChk RB3LYP/6-31G(2df,p) Fr
 eq
 ----------------------------------------------------------------------

 Structure from the checkpoint file:  "/scratch/puck/g09_e50273c7-f038-4b39-99d0-980673aa62e1/Gau-48927.chk"
 -----
 titel
 -----
 Charge =  0 Multiplicity = 1

                         Standard orientation:
 ---------------------------------------------------------------------
 Center     Atomic      Atomic             Coordinates (Angstroms)
 Number     Number       Type             X           Y           Z
 ---------------------------------------------------------------------
      1          6           0        2.726585   -0.192879   -0.343059
      2          6           0        1.231989   -0.026935   -0.576223
      3          6           0        0.546039    0.999552    0.367803
      4          6           0       -0.805841    1.492816   -0.160158
      5          6           0       -1.633878    0.302277   -0.639660
      6          8           0       -2.142389   -0.591230    0.359344
      7          6           0       -1.048353   -1.032143   -0.434844
      8          6           0        0.329947   -1.001768    0.226016
      9          8           0        0.303885   -0.067989    1.328750
     10          1           0        3.282679    0.667860   -0.729910
     11          1           0        2.941833   -0.285348    0.725654
     12          1           0        3.106618   -1.088240   -0.846453
     13          1           0        1.001159    0.067548   -1.642652
     14          1           0        1.160082    1.802166    0.788176
     15          1           0       -1.341650    2.035247    0.626629
     16          1           0       -0.651513    2.187642   -0.994983
     17          1           0       -2.322466    0.477293   -1.464789
     18          1           0       -1.256773   -1.850531   -1.123455
     19          1           0        0.709130   -1.985408    0.517770
 ---------------------------------------------------------------------

 SCF Done:  E(RB3LYP) =  -423.156963692     A.U. after    1 cycles

 The electronic state is 1-A.
 Alpha  occ. eigenvalues --  -19.14692 -19.13251 -10.23748 -10.23694 -10.23597
 Alpha  occ. eigenvalues --  -10.23403 -10.19758 -10.19030 -10.18140  -1.07609
 Alpha  occ. eigenvalues --   -1.03662  -0.78952  -0.76201  -0.71972  -0.65664
 Alpha  occ. eigenvalues --   -0.61076  -0.60693  -0.53341  -0.51886  -0.47823
 Alpha  occ. eigenvalues --   -0.46888  -0.45761  -0.43142  -0.41389  -0.39906
 Alpha  occ. eigenvalues --   -0.38915  -0.38334  -0.37361  -0.35209  -0.32997
 Alpha  occ. eigenvalues --   -0.30327  -0.27889  -0.26357  -0.24604
 Alpha virt. eigenvalues --    0.07424   0.09306   0.10371   0.11601   0.12205
 Alpha virt. eigenvalues --    0.12378   0.14210   0.14929   0.15476   0.16226
 Alpha virt. eigenvalues --    0.17328   0.17615   0.18025   0.18890   0.21763

 Mulliken charges:
               1
     1  C   -0.424527
     2  C    0.006617
     3  C    0.086450
     4  C   -0.257334
     5  C    0.042617
     6  O   -0.239715
     7  C    0.039213
     8  C    0.033218
     9  O   -0.281639
    10  H    0.115832
    11  H    0.135510
    12  H    0.115663
    13  H    0.068714
    14  H    0.074783
    15  H    0.123185
    16  H    0.101070
    17  H    0.093802
    18  H    0.090397
    19  H    0.076144
 Sum of Mulliken charges =   0.00000

 Dipole moment (field-independent basis, Debye):
    X=              1.5436    Y=              0.6667    Z=             -2.7061  Tot=              3.1859
 Quadrupole moment (field-independent basis, Debye-Ang):
   XX=            -55.8427   YY=            -48.8729   ZZ=            -55.4403
   XY=             -1.7409   XZ=              2.4539   YZ=              1.0749

  Exact polarizability:  80.883  -2.183  76.831   1.607   0.497  62.822
 Approx polarizability: 105.387  -1.881 114.953  -1.774  -1.695 103.073

                      1                      2                      3
                      A                      A                      A
 Frequencies --    179.8338               221.5047               245.9773
 Red. masses --      3.3170                 1.9980                 1.2759
 Frc consts  --      0.0632                 0.0578                 0.0455
 IR Inten    --      1.5861                 0.3785                 0.0405

                      4                      5                      6
                      A                      A                      A
 Frequencies --    279.0005               332.6047               406.6017
 Red. masses --      2.4950                 3.5533                 3.2622
 Frc consts  --      0.1144                 0.2316                 0.3178
 IR Inten    --      0.3872                 2.3596                 2.4933

                      7                      8                      9
                      A                      A                      A
 Frequencies --    424.6212               491.8809               612.4672
 Red. masses --      3.5199                 5.3804                 4.2288
 Frc consts  --      0.3739                 0.7670                 0.9346
 IR Inten    --      1.2971                 7.9987                11.2079

                     10                     11                     12
                      A                      A                      A
 Frequencies --    731.3661               790.7695               813.9093
 Red. masses --      4.5698                 3.4271                 2.5039
 Frc consts  --      1.4402                 1.2626                 0.9773
 IR Inten    --      4.8384                 5.1659                16.6547

                     13                     14                     15
                      A                      A                      A
 Frequencies --    827.3162               873.0049               897.6675
 Red. masses --      2.4408                 2.5759                 3.2500
 Frc consts  --      0.9843                 1.1567                 1.5430
 IR Inten    --      7.2191                 2.5897                19.7370

                     16                     17                     18
                      A                      A                      A
 Frequencies --    911.4537               933.8307               973.3882
 Red. masses --      2.5441                 2.8598                 2.8254
 Frc consts  --      1.2452                 1.4694                 1.5773
 IR Inten    --     11.4227                 4.8439                47.2902

                     19                     20                     21
                      A                      A                      A
 Frequencies --    996.4940              1007.8436              1052.8062
 Red. masses --      2.6573                 2.0925                 1.5875
 Frc consts  --      1.5547                 1.2523                 1.0367
 IR Inten    --      6.2598                 8.6536                 3.7635

                     22                     23                     24
                      A                      A                      A
 Frequencies --   1063.5077              1083.6913              1088.9319
 Red. masses --      1.7315                 1.7615                 1.7162
 Frc consts  --      1.1538                 1.2189                 1.1990
 IR Inten    --      2.9367                 2.5695                 8.9173

                     25                     26                     27
                      A                      A                      A
 Frequencies --   1118.5011              1150.8474              1196.7071
 Red. masses --      1.9492                 1.9051                 1.2762
 Frc consts  --      1.4368                 1.4866                 1.0768
 IR Inten    --      2.0825                 0.5093                 3.3106

                     28                     29                     30
                      A                      A                      A
 Frequencies --   1227.8310              1246.2062              1269.1627
 Red. masses --      1.3734                 1.6173                 1.3500
 Frc consts  --      1.2199                 1.4799                 1.2812
 IR Inten    --      0.1882                 1.9479                 4.1582

                     31                     32                     33
                      A                      A                      A
 Frequencies --   1287.3341              1305.0999              1336.7944
 Red. masses --      1.6151                 1.3015                 1.5458
 Frc consts  --      1.5770                 1.3061                 1.6275
 IR Inten    --     11.5256                 1.2418                 4.3150

                     34                     35                     36
                      A                      A                      A
 Frequencies --   1347.8415              1365.5695              1403.5399
 Red. masses --      1.4028                 1.5139                 1.5266
 Frc consts  --      1.5015                 1.6633                 1.7719
 IR Inten    --      1.0096                 1.2322                 2.4100

                     37                     38                     39
                      A                      A                      A
 Frequencies --   1408.4860              1453.0720              1463.3456
 Red. masses --      1.3124                 2.3304                 1.2398
 Frc consts  --      1.5340                 2.8991                 1.5642
 IR Inten    --      1.0213                14.7965                 3.8245

                     40                     41                     42
                      A                      A                      A
 Frequencies --   1494.6306              1503.7562              3031.5971
 Red. masses --      1.0475                 1.0504                 1.0402
 Frc consts  --      1.3787                 1.3994                 5.6325
 IR Inten    --      4.5221                 3.1498                18.1772

                     43                     44                     45
                      A                      A                      A
 Frequencies --   3032.5803              3049.1435              3062.6895
 Red. masses --      1.0567                 1.0840                 1.0869
 Frc consts  --      5.7259                 5.9381                 6.0070
 IR Inten    --     25.2543                27.0643                66.6762

                     46                     47                     48
                      A                      A                      A
 Frequencies --   3070.3796              3079.1796              3095.6098
 Red. masses --      1.0890                 1.1019                 1.1012
 Frc consts  --      6.0485                 6.1555                 6.2176
 IR Inten    --     28.1617                14.4634                25.9119

                     49                     50                     51
                      A                      A                      A
 Frequencies --   3111.9483              3113.3517              3124.6396
 Red. masses --      1.0865                 1.1008                 1.0931
 Frc consts  --      6.1993                 6.2868                 6.2879
 IR Inten    --     27.7054                20.9607                45.5910

 - Thermochemistry -
 -------------------
 Temperature   298.150 Kelvin.  Pressure   1.00000 Atm.
 Atom     1 has atomic number  6 and mass  12.00000

 Molecular mass:   126.06808 amu.
 Principal axes and moments of inertia in atomic units:
                           1         2         3
     Eigenvalues --   527.903581203.153841334.68399
           X            0.99975  -0.02168   0.00462
           Y            0.02156   0.99947   0.02420
           Z           -0.00514  -0.02409   0.99970
 This molecule is an asymmetric top.
 Rotational symmetry number  1.
 Warning -- assumption of classical behavior for rotation
           may cause significant error
 Rotational temperatures (Kelvin)      0.16407     0.07199     0.06489
 Rotational constants (GHZ):           3.41869     1.50001     1.35219
 Zero-point vibrational energy     422223.9 (Joules/Mol)
                                  100.91392 (Kcal/Mol)
 Warning -- explicit consideration of   9 degrees of freedom as
           vibrations may cause significant error
 Vibrational temperatures:    258.74   318.70   353.91   401.42   478.54
          (Kelvin)            585.01   610.93   707.71   881.20  1052.27
                             1137.74  1171.03  1190.32  1256.06  1291.54
                             1311.38  1343.57  1400.49  1433.73  1450.06
                             1514.75  1530.15  1559.19  1566.73  1609.27
                             1655.81  1721.79  1766.57  1793.01  1826.04
                             1852.18  1877.75  1923.35  1939.24  1964.75
                             2019.38  2026.49  2090.64  2105.43  2150.44
                             2163.57  4361.79  4363.20  4387.03  4406.52
                             4417.59  4430.25  4453.89  4477.39  4479.41
                             4495.65

 Zero-point correction=                           0.160817 (Hartree/Particle)
 Thermal correction to Energy=                    0.168017
 Thermal correction to Enthalpy=                  0.168961
 Thermal correction to Gibbs Free Energy=         0.129604
 Sum of electronic and zero-point Energies=           -422.996147
 Sum of electronic and thermal Energies=              -422.988947
 Sum of electronic and thermal Enthalpies=            -422.988003
 Sum of electronic and thermal Free Energies=         -423.027360

                     E (Thermal)             CV                S
                      KCal/Mol        Cal/Mol-Kelvin    Cal/Mol-Kelvin
 Total                  105.432             29.351             82.835
 Electronic               0.000              0.000              0.000
 Translational            0.889              2.981             40.409
 Rotational               0.889              2.981             28.229
 Vibrational            103.655             23.390             14.197
 Vibration     1          0.629              1.867              2.330
 Vibration     2          0.648              1.808              1.947
 Vibration     3          0.660              1.769              1.759
 Vibration     4          0.679              1.712              1.540
 Vibration     5          0.715              1.610              1.247
 Vibration     6          0.771              1.456              0.939
 Vibration     7          0.787              1.417              0.876
 Vibration     8          0.848              1.268              0.679
 Vibration     9          0.972              1.005              0.429

 Optimization completed.
    -- Stationary point found.
 Normal termination of Gaussian 09 at Mon Jan 27 23:56:50 2020.
