 Gaussian 09, Revision D.01,
 Gaussian 09:  ES64L-G09RevD.01 24-Apr-2013

 -----------------------------
 # b3lyp 6-31G(2df,p) opt Freq
 -----------------------------

 -----
 titel
 -----
 Symbolic Z-matrix:
 Charge =  0 Multiplicity = 1

 SCF Done:  E(RB3LYP) =  -423.187655399     A.U. after   14 cycles
 Optimization completed.
    -- Stationary point found.
 Normal termination of Gaussian 09 at Mon Jan 27 17:06:25 2020.

 ----------------------------------------------------------------------
 #N Geom=AllCheck Guess=TCheck SCRF=Check GenChk RB3LYP/6-31G(2df,p) Fr
 eq
 ----------------------------------------------------------------------

 Structure from the checkpoint file:  "/scratch/puck/g09_b5d347ee-277a-41e9-9044-353214979713/Gau-59736.chk"
 -----
 titel
 -----
 Charge =  0 Multiplicity = 1

                         Standard orientation:
 ---------------------------------------------------------------------
 Center     Atomic      Atomic             Coordinates (Angstroms)
 Number     Number       Type             X           Y           Z
 ---------------------------------------------------------------------
      1          6           0       -2.510484    0.149542    0.379798
      2          6           0       -1.050309   -0.142041    0.155699
      3          6           0        0.010369   -0.376879    1.296255
      4          6           0        1.044305   -0.098368    0.159841
      5          6           0        2.505202    0.176115    0.339642
      6          8           0        0.807755   -1.200215   -0.741574
      7          6           0       -0.638421   -1.280376   -0.795309
      8          6           0       -0.023347    0.919545   -0.314710
      9          8           0       -0.065202    2.059007   -0.670331
     10          1           0       -3.008533    0.383693   -0.567065
     11          1           0       -3.026304   -0.706815    0.827441
     12          1           0       -2.640342    1.009845    1.043049
     13          1           0       -0.012712    0.389714    2.073830
     14          1           0        0.049806   -1.382671    1.721301
     15          1           0        2.966768    0.402367   -0.625708
     16          1           0        2.652045    1.033348    1.002061
     17          1           0        3.014121   -0.692363    0.768342
     18          1           0       -0.989290   -1.124149   -1.822803
     19          1           0       -0.969865   -2.268531   -0.452505
 ---------------------------------------------------------------------

 SCF Done:  E(RB3LYP) =  -423.187655399     A.U. after    1 cycles

 The electronic state is 1-A.
 Alpha  occ. eigenvalues --  -19.14626 -19.14399 -10.26871 -10.24831 -10.23843
 Alpha  occ. eigenvalues --  -10.21229 -10.20087 -10.18963 -10.18467  -1.06139
 Alpha  occ. eigenvalues --   -1.04054  -0.84611  -0.77807  -0.71990  -0.67943
 Alpha  occ. eigenvalues --   -0.64183  -0.55535  -0.53714  -0.48997  -0.46785
 Alpha  occ. eigenvalues --   -0.46382  -0.45720  -0.42890  -0.41240  -0.40884
 Alpha  occ. eigenvalues --   -0.38586  -0.38367  -0.38214  -0.37405  -0.35009
 Alpha  occ. eigenvalues --   -0.34214  -0.31954  -0.27758  -0.22114
 Alpha virt. eigenvalues --   -0.01477   0.08137   0.09390   0.12302   0.12710
 Alpha virt. eigenvalues --    0.13116   0.14084   0.14996   0.16402   0.16972
 Alpha virt. eigenvalues --    0.17543   0.17879   0.18537   0.19959   0.20910

 Mulliken charges:
               1
     1  C   -0.502251
     2  C    0.139810
     3  C   -0.324488
     4  C    0.306148
     5  C   -0.496943
     6  O   -0.310474
     7  C   -0.109698
     8  C    0.385014
     9  O   -0.323643
    10  H    0.132665
    11  H    0.122824
    12  H    0.132090
    13  H    0.116904
    14  H    0.113757
    15  H    0.141540
    16  H    0.130048
    17  H    0.131308
    18  H    0.111228
    19  H    0.104161
 Sum of Mulliken charges =   0.00000

 Dipole moment (field-independent basis, Debye):
    X=             -0.8957    Y=             -1.5943    Z=              1.6833  Tot=              2.4855
 Quadrupole moment (field-independent basis, Debye-Ang):
   XX=            -50.1810   YY=            -59.4443   ZZ=            -52.3732
   XY=              2.5776   XZ=              1.6863   YZ=              1.4829

  Exact polarizability:  85.081   2.337  74.696   2.109  -1.200  67.823
 Approx polarizability: 109.512   1.375 120.224   1.764  -4.882 104.893

                      1                      2                      3
                      A                      A                      A
 Frequencies --    130.9189               165.6459               176.9558
 Red. masses --      2.7956                 1.0433                 1.2325
 Frc consts  --      0.0282                 0.0169                 0.0227
 IR Inten    --      2.4875                 0.1973                 0.3895

                      4                      5                      6
                      A                      A                      A
 Frequencies --    209.1110               213.9199               254.7678
 Red. masses --      3.4173                 2.8592                 2.5725
 Frc consts  --      0.0880                 0.0771                 0.0984
 IR Inten    --      1.9875                 1.8590                 0.2189

                      7                      8                      9
                      A                      A                      A
 Frequencies --    286.2069               360.5715               451.4173
 Red. masses --      2.9019                 2.5470                 2.2356
 Frc consts  --      0.1401                 0.1951                 0.2684
 IR Inten    --      4.0991                 1.7948                 0.3514

                     10                     11                     12
                      A                      A                      A
 Frequencies --    529.4142               578.5181               596.2614
 Red. masses --      2.7967                 4.3222                 4.3732
 Frc consts  --      0.4618                 0.8523                 0.9161
 IR Inten    --      3.0664                 3.1010                 4.6103

                     13                     14                     15
                      A                      A                      A
 Frequencies --    679.0659               717.4124               805.3081
 Red. masses --      3.9256                 3.5322                 4.1122
 Frc consts  --      1.0666                 1.0711                 1.5712
 IR Inten    --      1.7499                 1.0750                 3.6978

                     16                     17                     18
                      A                      A                      A
 Frequencies --    862.7985               873.6198               891.8018
 Red. masses --      4.1700                 2.8734                 3.0794
 Frc consts  --      1.8290                 1.2921                 1.4430
 IR Inten    --      7.8855                17.0916                12.3747

                     19                     20                     21
                      A                      A                      A
 Frequencies --    926.5251               975.1772              1000.1984
 Red. masses --      2.1372                 2.0884                 1.3929
 Frc consts  --      1.0810                 1.1701                 0.8210
 IR Inten    --      5.3105                37.5033                 8.8397

                     22                     23                     24
                      A                      A                      A
 Frequencies --   1011.1150              1039.9117              1090.0939
 Red. masses --      2.6733                 1.3323                 1.6246
 Frc consts  --      1.6103                 0.8489                 1.1374
 IR Inten    --     48.6909                 1.6192                17.3846

                     25                     26                     27
                      A                      A                      A
 Frequencies --   1150.4557              1160.6911              1178.6828
 Red. masses --      1.5829                 1.5734                 1.9894
 Frc consts  --      1.2343                 1.2489                 1.6284
 IR Inten    --      2.3454                10.7735                 7.8704

                     28                     29                     30
                      A                      A                      A
 Frequencies --   1202.3339              1232.6273              1288.0555
 Red. masses --      2.1015                 1.7705                 2.3149
 Frc consts  --      1.7899                 1.5850                 2.2629
 IR Inten    --      1.9259                 2.6137                 9.5740

                     31                     32                     33
                      A                      A                      A
 Frequencies --   1346.8767              1385.4684              1414.9131
 Red. masses --      2.4980                 1.7134                 1.3124
 Frc consts  --      2.6699                 1.9377                 1.5481
 IR Inten    --      5.6309                 0.5714                 2.7358

                     34                     35                     36
                      A                      A                      A
 Frequencies --   1425.6995              1475.5231              1477.1501
 Red. masses --      1.7810                 1.1671                 1.0467
 Frc consts  --      2.1330                 1.4971                 1.3457
 IR Inten    --      9.7508                 2.5795                 3.6977

                     37                     38                     39
                      A                      A                      A
 Frequencies --   1489.8456              1490.8955              1491.3094
 Red. masses --      1.0466                 1.0537                 1.0485
 Frc consts  --      1.3688                 1.3799                 1.3739
 IR Inten    --      5.1886                 0.0485                 8.0985

                     40                     41                     42
                      A                      A                      A
 Frequencies --   1528.9262              1898.2217              3013.0525
 Red. masses --      1.0976                12.6969                 1.0557
 Frc consts  --      1.5117                26.9551                 5.6467
 IR Inten    --      0.4521               257.2458                62.6559

                     43                     44                     45
                      A                      A                      A
 Frequencies --   3033.5686              3045.9926              3055.1728
 Red. masses --      1.0359                 1.0352                 1.1105
 Frc consts  --      5.6165                 5.6589                 6.1070
 IR Inten    --     30.4119                15.6197                28.9988

                     46                     47                     48
                      A                      A                      A
 Frequencies --   3065.1324              3097.8669              3108.2664
 Red. masses --      1.0554                 1.1008                 1.1010
 Frc consts  --      5.8419                 6.2240                 6.2672
 IR Inten    --     12.7214                16.4674                13.9374

                     49                     50                     51
                      A                      A                      A
 Frequencies --   3117.2990              3125.3692              3136.5264
 Red. masses --      1.1015                 1.1016                 1.1109
 Frc consts  --      6.3063                 6.3396                 6.4390
 IR Inten    --     10.5449                 8.9125                14.5759

 - Thermochemistry -
 -------------------
 Temperature   298.150 Kelvin.  Pressure   1.00000 Atm.
 Atom     1 has atomic number  6 and mass  12.00000

 Molecular mass:   126.06808 amu.
 Principal axes and moments of inertia in atomic units:
                           1         2         3
     Eigenvalues --   709.314441102.126721358.39035
           X            0.99948   0.03063   0.01035
           Y           -0.03090   0.99916   0.02690
           Z           -0.00952  -0.02720   0.99958
 This molecule is an asymmetric top.
 Rotational symmetry number  1.
 Warning -- assumption of classical behavior for rotation
           may cause significant error
 Rotational temperatures (Kelvin)      0.12211     0.07859     0.06376
 Rotational constants (GHZ):           2.54435     1.63751     1.32859
 Zero-point vibrational energy     414282.7 (Joules/Mol)
                                   99.01594 (Kcal/Mol)
 Warning -- explicit consideration of  12 degrees of freedom as
           vibrations may cause significant error
 Vibrational temperatures:    188.36   238.33   254.60   300.86   307.78
          (Kelvin)            366.55   411.79   518.78   649.49   761.71
                              832.36   857.89   977.02  1032.20  1158.66
                             1241.37  1256.94  1283.10  1333.06  1403.06
                             1439.06  1454.77  1496.20  1568.40  1655.25
                             1669.97  1695.86  1729.89  1773.47  1853.22
                             1937.85  1993.38  2035.74  2051.26  2122.95
                             2125.29  2143.55  2145.06  2145.66  2199.78
                             2731.11  4335.11  4364.62  4382.50  4395.71
                             4410.04  4457.13  4472.10  4485.09  4496.70
                             4512.76

 Zero-point correction=                           0.157792 (Hartree/Particle)
 Thermal correction to Energy=                    0.166533
 Thermal correction to Enthalpy=                  0.167477
 Thermal correction to Gibbs Free Energy=         0.124917
 Sum of electronic and zero-point Energies=           -423.029863
 Sum of electronic and thermal Energies=              -423.021122
 Sum of electronic and thermal Enthalpies=            -423.020178
 Sum of electronic and thermal Free Energies=         -423.062739

                     E (Thermal)             CV                S
                      KCal/Mol        Cal/Mol-Kelvin    Cal/Mol-Kelvin
 Total                  104.501             33.249             89.577
 Electronic               0.000              0.000              0.000
 Translational            0.889              2.981             40.409
 Rotational               0.889              2.981             28.453
 Vibrational            102.724             27.287             20.715
 Vibration     1          0.612              1.922              2.933
 Vibration     2          0.624              1.885              2.484
 Vibration     3          0.628              1.871              2.360
 Vibration     4          0.642              1.827              2.051
 Vibration     5          0.644              1.820              2.010
 Vibration     6          0.665              1.755              1.697
 Vibration     7          0.684              1.699              1.496
 Vibration     8          0.735              1.553              1.120
 Vibration     9          0.810              1.358              0.792
 Vibration    10          0.884              1.185              0.589
 Vibration    11          0.935              1.078              0.488
 Vibration    12          0.954              1.040              0.456

 Optimization completed.
    -- Stationary point found.
 Normal termination of Gaussian 09 at Mon Jan 27 17:51:24 2020.
