 Gaussian 09, Revision D.01,
 Gaussian 09:  ES64L-G09RevD.01 24-Apr-2013

 -----------------------------
 # b3lyp 6-31G(2df,p) opt Freq
 -----------------------------

 -----
 titel
 -----
 Symbolic Z-matrix:
 Charge =  0 Multiplicity = 1

 SCF Done:  E(RB3LYP) =  -423.135216773     A.U. after   14 cycles
 Optimization completed.
    -- Stationary point found.
 Normal termination of Gaussian 09 at Mon Jan 27 15:37:16 2020.

 ----------------------------------------------------------------------
 #N Geom=AllCheck Guess=TCheck SCRF=Check GenChk RB3LYP/6-31G(2df,p) Fr
 eq
 ----------------------------------------------------------------------

 Structure from the checkpoint file:  "/scratch/puck/g09_10cc56d0-5fb4-4bdb-9f38-7556c4e7a5ac/Gau-164817.chk"
 -----
 titel
 -----
 Charge =  0 Multiplicity = 1

                         Standard orientation:
 ---------------------------------------------------------------------
 Center     Atomic      Atomic             Coordinates (Angstroms)
 Number     Number       Type             X           Y           Z
 ---------------------------------------------------------------------
      1          8           0       -1.288849    1.871806    0.075755
      2          6           0       -1.008381    0.578908   -0.442894
      3          6           0       -2.073579   -0.410895    0.037602
      4          8           0       -1.953143   -1.607690    0.060657
      5          6           0        0.404434    0.124652   -0.155206
      6          6           0        1.117125   -1.173916   -0.638808
      7          6           0        2.169130   -0.404437    0.211059
      8          6           0        1.711201    0.891990   -0.516815
      9          6           0        1.040819   -0.143689    1.249691
     10          1           0       -0.997326    1.888712    0.994324
     11          1           0       -1.141693    0.667420   -1.531800
     12          1           0       -3.005356    0.099510    0.374969
     13          1           0        0.735688   -2.112270   -0.235214
     14          1           0        1.312801   -1.244173   -1.712729
     15          1           0        3.193161   -0.708809    0.426558
     16          1           0        1.882584    1.838832    0.002148
     17          1           0        1.949708    0.969887   -1.581295
     18          1           0        0.663448   -1.010191    1.798202
     19          1           0        1.178421    0.722481    1.905762
 ---------------------------------------------------------------------

 SCF Done:  E(RB3LYP) =  -423.135216773     A.U. after    1 cycles

 The electronic state is 1-A.
 Alpha  occ. eigenvalues --  -19.15283 -19.14839 -10.27338 -10.24564 -10.21399
 Alpha  occ. eigenvalues --  -10.20557 -10.19343 -10.19022 -10.18784  -1.05622
 Alpha  occ. eigenvalues --   -1.03358  -0.91704  -0.74246  -0.67264  -0.66881
 Alpha  occ. eigenvalues --   -0.63046  -0.57921  -0.53995  -0.52962  -0.48040
 Alpha  occ. eigenvalues --   -0.46833  -0.45417  -0.44829  -0.44398  -0.38853
 Alpha  occ. eigenvalues --   -0.37652  -0.35602  -0.33077  -0.32864  -0.32206
 Alpha  occ. eigenvalues --   -0.32140  -0.31637  -0.29370  -0.24650
 Alpha virt. eigenvalues --   -0.03261   0.06726   0.10404   0.11301   0.12110
 Alpha virt. eigenvalues --    0.13092   0.14761   0.15412   0.15807   0.15933
 Alpha virt. eigenvalues --    0.16610   0.17595   0.18134   0.19682   0.21557

 Mulliken charges:
               1
     1  O   -0.422737
     2  C   -0.133457
     3  C    0.127967
     4  O   -0.241056
     5  C    0.357780
     6  C   -0.252714
     7  C   -0.048650
     8  C   -0.259770
     9  C   -0.274263
    10  H    0.287626
    11  H    0.120143
    12  H    0.086843
    13  H    0.114651
    14  H    0.089637
    15  H    0.076225
    16  H    0.091353
    17  H    0.091692
    18  H    0.105455
    19  H    0.083277
 Sum of Mulliken charges =   0.00000

 Dipole moment (field-independent basis, Debye):
    X=              1.0722    Y=              1.1014    Z=              0.5678  Tot=              1.6386
 Quadrupole moment (field-independent basis, Debye-Ang):
   XX=            -54.5862   YY=            -59.8612   ZZ=            -49.9062
   XY=             -2.1588   XZ=             -0.4068   YZ=              2.2731

  Exact polarizability:  81.438  -0.220  76.819  -2.112   1.156  69.025
 Approx polarizability: 107.763  -1.492 123.160  -1.908   1.300 106.561

                      1                      2                      3
                      A                      A                      A
 Frequencies --     13.9161                74.5286               146.4761
 Red. masses --      3.6882                 2.7297                 5.1257
 Frc consts  --      0.0004                 0.0089                 0.0648
 IR Inten    --      6.5294                 5.4955                 0.8912

                      4                      5                      6
                      A                      A                      A
 Frequencies --    186.1470               264.3780               297.0242
 Red. masses --      3.1196                 4.7042                 1.1001
 Frc consts  --      0.0637                 0.1937                 0.0572
 IR Inten    --      3.1095                 8.5254                92.8802

                      7                      8                      9
                      A                      A                      A
 Frequencies --    383.6738               449.8140               536.8807
 Red. masses --      4.9799                 3.1048                 2.0418
 Frc consts  --      0.4319                 0.3701                 0.3468
 IR Inten    --     11.0113                 9.2309                 1.0798

                     10                     11                     12
                      A                      A                      A
 Frequencies --    544.1719               610.6996               629.4737
 Red. masses --      1.9193                 3.9719                 3.3652
 Frc consts  --      0.3349                 0.8728                 0.7856
 IR Inten    --      1.4176                17.9630                 5.0119

                     13                     14                     15
                      A                      A                      A
 Frequencies --    786.1650               807.0524               880.6853
 Red. masses --      2.6673                 2.7474                 2.8783
 Frc consts  --      0.9713                 1.0543                 1.3153
 IR Inten    --      0.7382                 0.8218                 4.8526

                     16                     17                     18
                      A                      A                      A
 Frequencies --    907.6488               944.0136               958.7328
 Red. masses --      2.4436                 2.4335                 1.7170
 Frc consts  --      1.1861                 1.2777                 0.9298
 IR Inten    --      1.1965                 2.0836                 1.9651

                     19                     20                     21
                      A                      A                      A
 Frequencies --    962.2069               997.1712               998.0332
 Red. masses --      1.2930                 1.4355                 1.1229
 Frc consts  --      0.7053                 0.8410                 0.6590
 IR Inten    --      0.2195                 4.3803                 2.4791

                     22                     23                     24
                      A                      A                      A
 Frequencies --   1053.9407              1074.3555              1096.2833
 Red. masses --      2.5314                 3.2227                 1.5580
 Frc consts  --      1.6567                 2.1916                 1.1032
 IR Inten    --     10.0502                72.7576                 0.0565

                     25                     26                     27
                      A                      A                      A
 Frequencies --   1102.7121              1135.2756              1148.1064
 Red. masses --      1.6672                 1.4352                 1.3437
 Frc consts  --      1.1944                 1.0898                 1.0436
 IR Inten    --      4.7854                 0.7465                 0.2974

                     28                     29                     30
                      A                      A                      A
 Frequencies --   1155.2786              1165.5635              1226.6721
 Red. masses --      1.5347                 1.6705                 1.5479
 Frc consts  --      1.2068                 1.3371                 1.3723
 IR Inten    --      5.8344                 6.3290                 6.6949

                     31                     32                     33
                      A                      A                      A
 Frequencies --   1232.5523              1236.8573              1261.7143
 Red. masses --      1.6719                 1.8263                 1.5581
 Frc consts  --      1.4965                 1.6461                 1.4614
 IR Inten    --      2.0807                 8.6941                17.1602

                     34                     35                     36
                      A                      A                      A
 Frequencies --   1287.2368              1325.9751              1386.2847
 Red. masses --      1.7530                 2.7328                 1.1688
 Frc consts  --      1.7113                 2.8309                 1.3234
 IR Inten    --     16.0182                14.1295                 9.8835

                     37                     38                     39
                      A                      A                      A
 Frequencies --   1407.9733              1496.2168              1500.3548
 Red. masses --      1.3210                 1.0983                 1.0972
 Frc consts  --      1.5429                 1.4486                 1.4553
 IR Inten    --     49.0587                 0.1714                 0.5649

                     40                     41                     42
                      A                      A                      A
 Frequencies --   1555.2160              1831.7248              2872.3151
 Red. masses --      1.1835                11.1266                 1.0839
 Frc consts  --      1.6865                21.9955                 5.2689
 IR Inten    --      0.1040               103.9610               128.3829

                     43                     44                     45
                      A                      A                      A
 Frequencies --   3005.0471              3038.1649              3049.3883
 Red. masses --      1.0813                 1.0560                 1.0542
 Frc consts  --      5.7532                 5.7432                 5.7758
 IR Inten    --     14.4404                51.1297                44.3482

                     46                     47                     48
                      A                      A                      A
 Frequencies --   3059.9757              3111.5152              3114.5531
 Red. masses --      1.0576                 1.1075                 1.0978
 Frc consts  --      5.8346                 6.3171                 6.2744
 IR Inten    --     25.5842                24.8761                53.4989

                     49                     50                     51
                      A                      A                      A
 Frequencies --   3115.8058              3139.6962              3800.0713
 Red. masses --      1.1065                 1.1072                 1.0661
 Frc consts  --      6.3290                 6.4305                 9.0706
 IR Inten    --     48.7998                24.6519                16.1366

 - Thermochemistry -
 -------------------
 Temperature   298.150 Kelvin.  Pressure   1.00000 Atm.
 Atom     1 has atomic number  8 and mass  15.99491

 Molecular mass:   126.06808 amu.
 Principal axes and moments of inertia in atomic units:
                           1         2         3
     Eigenvalues --   695.286721257.893351622.46768
           X            0.99984  -0.01760  -0.00415
           Y            0.01765   0.99977   0.01229
           Z            0.00393  -0.01236   0.99992
 This molecule is an asymmetric top.
 Rotational symmetry number  1.
 Warning -- assumption of classical behavior for rotation
           may cause significant error
 Rotational temperatures (Kelvin)      0.12457     0.06886     0.05338
 Rotational constants (GHZ):           2.59568     1.43473     1.11234
 Zero-point vibrational energy     414899.1 (Joules/Mol)
                                   99.16327 (Kcal/Mol)
 Warning -- explicit consideration of  11 degrees of freedom as
           vibrations may cause significant error
 Vibrational temperatures:     20.02   107.23   210.75   267.82   380.38
          (Kelvin)            427.35   552.02   647.18   772.45   782.94
                              878.66   905.67  1131.11  1161.17  1267.11
                             1305.90  1358.22  1379.40  1384.40  1434.71
                             1435.95  1516.38  1545.76  1577.31  1586.55
                             1633.41  1651.87  1662.19  1676.98  1764.91
                             1773.37  1779.56  1815.32  1852.04  1907.78
                             1994.55  2025.76  2152.72  2158.67  2237.61
                             2635.44  4132.62  4323.59  4371.24  4387.38
                             4402.62  4476.77  4481.14  4482.94  4517.32
                             5467.45

 Zero-point correction=                           0.158027 (Hartree/Particle)
 Thermal correction to Energy=                    0.166733
 Thermal correction to Enthalpy=                  0.167677
 Thermal correction to Gibbs Free Energy=         0.122854
 Sum of electronic and zero-point Energies=           -422.977190
 Sum of electronic and thermal Energies=              -422.968484
 Sum of electronic and thermal Enthalpies=            -422.967540
 Sum of electronic and thermal Free Energies=         -423.012362

                     E (Thermal)             CV                S
                      KCal/Mol        Cal/Mol-Kelvin    Cal/Mol-Kelvin
 Total                  104.626             32.246             94.337
 Electronic               0.000              0.000              0.000
 Translational            0.889              2.981             40.409
 Rotational               0.889              2.981             28.741
 Vibrational            102.849             26.284             25.187
 Vibration     1          0.593              1.986              7.355
 Vibration     2          0.599              1.966              4.030
 Vibration     3          0.617              1.906              2.718
 Vibration     4          0.632              1.859              2.266
 Vibration     5          0.671              1.738              1.633
 Vibration     6          0.691              1.679              1.434
 Vibration     7          0.753              1.505              1.025
 Vibration     8          0.809              1.361              0.796
 Vibration     9          0.892              1.168              0.572
 Vibration    10          0.899              1.152              0.556
 Vibration    11          0.970              1.009              0.432

 Optimization completed.
    -- Stationary point found.
 Normal termination of Gaussian 09 at Mon Jan 27 16:23:45 2020.
 Normal termination of Gaussian 09 at Mon Jan 27 15:28:54 2020.
