 Gaussian 09, Revision D.01,
 Gaussian 09:  ES64L-G09RevD.01 24-Apr-2013

 -----------------------------
 # b3lyp 6-31G(2df,p) opt Freq
 -----------------------------

 -----
 titel
 -----
 Symbolic Z-matrix:
 Charge =  0 Multiplicity = 1

 SCF Done:  E(RB3LYP) =  -423.166643144     A.U. after   14 cycles
 Optimization completed.
    -- Stationary point found.
 Normal termination of Gaussian 09 at Tue Jan 28 12:40:33 2020.

 ----------------------------------------------------------------------
 #N Geom=AllCheck Guess=TCheck SCRF=Check GenChk RB3LYP/6-31G(2df,p) Fr
 eq
 ----------------------------------------------------------------------

 Structure from the checkpoint file:  "/scratch/puck/g09_0e2bda20-4a0b-4074-b012-5e3f71eb0e59/Gau-30221.chk"
 -----
 titel
 -----
 Charge =  0 Multiplicity = 1

                         Standard orientation:
 ---------------------------------------------------------------------
 Center     Atomic      Atomic             Coordinates (Angstroms)
 Number     Number       Type             X           Y           Z
 ---------------------------------------------------------------------
      1          8           0        2.553105   -0.270565   -0.531402
      2          6           0        1.733754   -0.789943    0.514775
      3          6           0        0.267776   -0.678947    0.225269
      4          6           0       -0.603901   -1.681333    0.104731
      5          6           0       -1.977446   -1.140231   -0.170096
      6          8           0       -1.808598    0.273470   -0.244804
      7          6           0       -0.458805    0.604277    0.029665
      8          6           0       -0.203194    1.856364    0.832189
      9          6           0        0.100894    1.822662   -0.653662
     10          1           0        2.294569   -0.717497   -1.344730
     11          1           0        1.983606   -1.838476    0.732839
     12          1           0        1.998497   -0.202050    1.401124
     13          1           0       -0.386415   -2.737617    0.205479
     14          1           0       -2.401195   -1.512021   -1.116184
     15          1           0       -2.695310   -1.394811    0.626890
     16          1           0       -1.086349    2.398822    1.150236
     17          1           0        0.624026    1.877466    1.533847
     18          1           0       -0.579700    2.352102   -1.311236
     19          1           0        1.137740    1.793763   -0.965846
 ---------------------------------------------------------------------

 SCF Done:  E(RB3LYP) =  -423.166643144     A.U. after    1 cycles

 The electronic state is 1-A.
 Alpha  occ. eigenvalues --  -19.14390 -19.13629 -10.23919 -10.23868 -10.23248
 Alpha  occ. eigenvalues --  -10.19328 -10.18844 -10.17930 -10.17585  -1.03809
 Alpha  occ. eigenvalues --   -1.02254  -0.84622  -0.80131  -0.71162  -0.66708
 Alpha  occ. eigenvalues --   -0.59843  -0.58132  -0.54859  -0.51620  -0.48062
 Alpha  occ. eigenvalues --   -0.46287  -0.45977  -0.45452  -0.43188  -0.40749
 Alpha  occ. eigenvalues --   -0.38397  -0.36522  -0.34781  -0.33978  -0.32457
 Alpha  occ. eigenvalues --   -0.29697  -0.27903  -0.26934  -0.21101
 Alpha virt. eigenvalues --    0.00580   0.08281   0.10156   0.10621   0.11993
 Alpha virt. eigenvalues --    0.13428   0.14069   0.15572   0.16704   0.17328
 Alpha virt. eigenvalues --    0.18068   0.18510   0.21362   0.22373   0.23408

 Mulliken charges:
               1
     1  O   -0.403713
     2  C   -0.184480
     3  C    0.230626
     4  C   -0.231865
     5  C   -0.130826
     6  O   -0.312613
     7  C    0.383756
     8  C   -0.331708
     9  C   -0.330820
    10  H    0.284899
    11  H    0.099039
    12  H    0.121143
    13  H    0.102695
    14  H    0.107250
    15  H    0.106704
    16  H    0.123835
    17  H    0.113453
    18  H    0.120378
    19  H    0.132247
 Sum of Mulliken charges =   0.00000

 Dipole moment (field-independent basis, Debye):
    X=              0.0406    Y=             -1.9179    Z=              0.0069  Tot=              1.9183
 Quadrupole moment (field-independent basis, Debye-Ang):
   XX=            -58.2410   YY=            -49.7039   ZZ=            -50.8077
   XY=              0.1017   XZ=             -0.4402   YZ=              1.3014

  Exact polarizability:  84.904  10.250  89.656   1.962   0.767  63.100
 Approx polarizability: 121.173  21.473 130.883   2.607   2.065  96.493

                      1                      2                      3
                      A                      A                      A
 Frequencies --     64.4418                86.3255               173.3381
 Red. masses --      4.1559                 3.0583                 3.8768
 Frc consts  --      0.0102                 0.0134                 0.0686
 IR Inten    --      4.7959                 0.2118                 0.2298

                      4                      5                      6
                      A                      A                      A
 Frequencies --    229.3959               261.7524               312.9298
 Red. masses --      2.1967                 2.1349                 2.3119
 Frc consts  --      0.0681                 0.0862                 0.1334
 IR Inten    --      4.2843                 0.9508                17.5467

                      7                      8                      9
                      A                      A                      A
 Frequencies --    354.9516               393.9214               431.2740
 Red. masses --      1.7418                 1.7917                 3.8226
 Frc consts  --      0.1293                 0.1638                 0.4189
 IR Inten    --     54.6170                49.7181                 6.5310

                     10                     11                     12
                      A                      A                      A
 Frequencies --    542.8825               613.8688               701.7567
 Red. masses --      3.9218                 4.0722                 3.4281
 Frc consts  --      0.6810                 0.9041                 0.9947
 IR Inten    --      9.9829                 1.6517                11.2578

                     13                     14                     15
                      A                      A                      A
 Frequencies --    771.8499               781.8916               819.1622
 Red. masses --      1.2181                 2.9844                 1.4217
 Frc consts  --      0.4276                 1.0750                 0.5621
 IR Inten    --      5.1655                 3.8776                 7.6309

                     16                     17                     18
                      A                      A                      A
 Frequencies --    866.4609               895.1164               926.5857
 Red. masses --      2.1225                 1.4926                 3.0531
 Frc consts  --      0.9388                 0.7046                 1.5444
 IR Inten    --     11.3745                10.3055                20.3191

                     19                     20                     21
                      A                      A                      A
 Frequencies --    943.8833               971.9471               989.2816
 Red. masses --      2.0877                 2.5978                 1.8099
 Frc consts  --      1.0958                 1.4459                 1.0436
 IR Inten    --     10.4209                13.7948                38.6350

                     22                     23                     24
                      A                      A                      A
 Frequencies --   1044.0586              1045.9775              1050.0586
 Red. masses --      1.6788                 3.4739                 1.7004
 Frc consts  --      1.0782                 2.2393                 1.1047
 IR Inten    --      3.4808                56.2069                 4.5939

                     25                     26                     27
                      A                      A                      A
 Frequencies --   1070.4252              1092.4924              1155.2085
 Red. masses --      1.4297                 5.6502                 2.3761
 Frc consts  --      0.9652                 3.9733                 1.8683
 IR Inten    --      4.5232                57.2877                 7.5204

                     28                     29                     30
                      A                      A                      A
 Frequencies --   1193.7312              1198.4848              1203.1918
 Red. masses --      1.1170                 1.2115                 1.1667
 Frc consts  --      0.9378                 1.0252                 0.9952
 IR Inten    --      4.1182                 0.2772                 2.2984

                     31                     32                     33
                      A                      A                      A
 Frequencies --   1237.7293              1303.3055              1360.5199
 Red. masses --      1.9000                 2.5308                 1.3740
 Frc consts  --      1.7150                 2.5328                 1.4984
 IR Inten    --     48.8529                23.7939                 1.4304

                     34                     35                     36
                      A                      A                      A
 Frequencies --   1381.7951              1408.5198              1419.8788
 Red. masses --      1.5047                 2.4125                 1.2699
 Frc consts  --      1.6928                 2.8199                 1.5084
 IR Inten    --     15.0640                 3.2019                62.6264

                     37                     38                     39
                      A                      A                      A
 Frequencies --   1447.0436              1487.3630              1501.1998
 Red. masses --      1.0897                 1.4812                 1.0928
 Frc consts  --      1.3444                 1.9307                 1.4510
 IR Inten    --      1.9736                 8.8645                 2.1184

                     40                     41                     42
                      A                      A                      A
 Frequencies --   1520.7635              1709.8837              2966.0908
 Red. masses --      1.0897                 7.8340                 1.0623
 Frc consts  --      1.4849                13.4948                 5.5063
 IR Inten    --      2.2855                 0.7125                97.7638

                     43                     44                     45
                      A                      A                      A
 Frequencies --   2986.0210              2998.3741              3061.4144
 Red. masses --      1.0990                 1.0668                 1.0953
 Frc consts  --      5.7732                 5.6506                 6.0481
 IR Inten    --     53.6869                53.2853                22.1329

                     46                     47                     48
                      A                      A                      A
 Frequencies --   3131.9036              3140.0637              3210.2332
 Red. masses --      1.0532                 1.0541                 1.0950
 Frc consts  --      6.0869                 6.1236                 6.6489
 IR Inten    --     11.9919                 7.0452                 6.1696

                     49                     50                     51
                      A                      A                      A
 Frequencies --   3220.4657              3240.8509              3808.1736
 Red. masses --      1.1179                 1.1167                 1.0662
 Frc consts  --      6.8313                 6.9102                 9.1103
 IR Inten    --      3.4518                 3.4803                18.8115

 - Thermochemistry -
 -------------------
 Temperature   298.150 Kelvin.  Pressure   1.00000 Atm.
 Atom     1 has atomic number  8 and mass  15.99491

 Molecular mass:   126.06808 amu.
 Principal axes and moments of inertia in atomic units:
                           1         2         3
     Eigenvalues --   785.685341119.146491650.65006
           X            0.99976   0.02108   0.00596
           Y           -0.02110   0.99977   0.00280
           Z           -0.00590  -0.00292   0.99998
 This molecule is an asymmetric top.
 Rotational symmetry number  1.
 Warning -- assumption of classical behavior for rotation
           may cause significant error
 Rotational temperatures (Kelvin)      0.11024     0.07739     0.05247
 Rotational constants (GHZ):           2.29703     1.61260     1.09335
 Zero-point vibrational energy     417067.5 (Joules/Mol)
                                   99.68152 (Kcal/Mol)
 Warning -- explicit consideration of  11 degrees of freedom as
           vibrations may cause significant error
 Vibrational temperatures:     92.72   124.20   249.39   330.05   376.60
          (Kelvin)            450.24   510.70   566.76   620.51   781.09
                              883.22  1009.67  1110.52  1124.97  1178.59
                             1246.64  1287.87  1333.15  1358.04  1398.41
                             1423.35  1502.17  1504.93  1510.80  1540.10
                             1571.85  1662.09  1717.51  1724.35  1731.12
                             1780.81  1875.16  1957.48  1988.09  2026.54
                             2042.89  2081.97  2139.98  2159.89  2188.04
                             2460.14  4267.54  4296.21  4313.99  4404.69
                             4506.11  4517.85  4618.80  4633.53  4662.86
                             5479.11

 Zero-point correction=                           0.158853 (Hartree/Particle)
 Thermal correction to Energy=                    0.167485
 Thermal correction to Enthalpy=                  0.168429
 Thermal correction to Gibbs Free Energy=         0.125235
 Sum of electronic and zero-point Energies=           -423.007791
 Sum of electronic and thermal Energies=              -422.999158
 Sum of electronic and thermal Enthalpies=            -422.998214
 Sum of electronic and thermal Free Energies=         -423.041408

                     E (Thermal)             CV                S
                      KCal/Mol        Cal/Mol-Kelvin    Cal/Mol-Kelvin
 Total                  105.098             32.693             90.909
 Electronic               0.000              0.000              0.000
 Translational            0.889              2.981             40.409
 Rotational               0.889              2.981             28.764
 Vibrational            103.321             26.731             21.737
 Vibration     1          0.597              1.971              4.316
 Vibration     2          0.601              1.959              3.742
 Vibration     3          0.627              1.875              2.399
 Vibration     4          0.652              1.796              1.884
 Vibration     5          0.669              1.743              1.650
 Vibration     6          0.701              1.649              1.347
 Vibration     7          0.731              1.565              1.144
 Vibration     8          0.761              1.483              0.985
 Vibration     9          0.792              1.402              0.855
 Vibration    10          0.898              1.155              0.559
 Vibration    11          0.973              1.003              0.426

 Normal termination of Gaussian 09 at Tue Jan 28 13:24:59 2020.
