 Gaussian 09, Revision D.01,
 Gaussian 09:  ES64L-G09RevD.01 24-Apr-2013

 -----------------------------
 # b3lyp 6-31G(2df,p) opt Freq
 -----------------------------

 -----
 titel
 -----
 Symbolic Z-matrix:
 Charge =  0 Multiplicity = 1

 SCF Done:  E(RB3LYP) =  -423.167144116     A.U. after   14 cycles
 Optimization completed.
    -- Stationary point found.
 Normal termination of Gaussian 09 at Tue Jan 28 14:08:27 2020.

 ----------------------------------------------------------------------
 #N Geom=AllCheck Guess=TCheck SCRF=Check GenChk RB3LYP/6-31G(2df,p) Fr
 eq
 ----------------------------------------------------------------------

 Structure from the checkpoint file:  "/scratch/puck/g09_5be9c1c6-1c59-44b7-9d86-9e543a9a0915/Gau-144665.chk"
 -----
 titel
 -----
 Charge =  0 Multiplicity = 1

                         Standard orientation:
 ---------------------------------------------------------------------
 Center     Atomic      Atomic             Coordinates (Angstroms)
 Number     Number       Type             X           Y           Z
 ---------------------------------------------------------------------
      1          8           0        2.905191   -0.816894   -0.157112
      2          6           0        2.134534    0.279281    0.306408
      3          6           0        0.825316    0.458580   -0.476867
      4          6           0       -0.009304    1.636694    0.000438
      5          6           0       -1.271060    1.291615    0.264284
      6          6           0       -1.501823   -0.170775    0.048641
      7          8           0       -2.729372   -0.620326   -0.432314
      8          6           0       -0.744002   -1.080159    0.969350
      9          6           0       -0.144825   -0.719501   -0.379518
     10          1           0        3.160663   -0.633936   -1.067052
     11          1           0        1.916682    0.065826    1.357556
     12          1           0        2.713258    1.216897    0.276571
     13          1           0        1.110026    0.616915   -1.530927
     14          1           0        0.414544    2.625141    0.142591
     15          1           0       -2.055657    1.950247    0.620201
     16          1           0       -2.864656   -0.232413   -1.304349
     17          1           0       -0.330857   -0.671529    1.885449
     18          1           0       -1.118803   -2.095314    1.046511
     19          1           0       -0.084779   -1.518483   -1.107570
 ---------------------------------------------------------------------

 SCF Done:  E(RB3LYP) =  -423.167144116     A.U. after    1 cycles

 The electronic state is 1-A.
 Alpha  occ. eigenvalues --  -19.14313 -19.13399 -10.23607 -10.22641 -10.19413
 Alpha  occ. eigenvalues --  -10.18413 -10.18379 -10.18240 -10.18121  -1.02888
 Alpha  occ. eigenvalues --   -1.01506  -0.87687  -0.77376  -0.72963  -0.64454
 Alpha  occ. eigenvalues --   -0.60245  -0.56857  -0.54552  -0.52462  -0.49798
 Alpha  occ. eigenvalues --   -0.46076  -0.44954  -0.43397  -0.41201  -0.40804
 Alpha  occ. eigenvalues --   -0.37937  -0.36784  -0.34536  -0.32773  -0.31866
 Alpha  occ. eigenvalues --   -0.30143  -0.27251  -0.25196  -0.22931
 Alpha virt. eigenvalues --    0.00801   0.07273   0.08919   0.10850   0.11668
 Alpha virt. eigenvalues --    0.13610   0.14430   0.14943   0.16773   0.17285
 Alpha virt. eigenvalues --    0.18047   0.19755   0.21488   0.22260   0.23578

 Mulliken charges:
               1
     1  O   -0.415341
     2  C   -0.057999
     3  C   -0.085229
     4  C   -0.089986
     5  C   -0.185141
     6  C    0.386881
     7  O   -0.468761
     8  C   -0.307728
     9  C   -0.119808
    10  H    0.279540
    11  H    0.114498
    12  H    0.082654
    13  H    0.067487
    14  H    0.095872
    15  H    0.101320
    16  H    0.279190
    17  H    0.112162
    18  H    0.120825
    19  H    0.089565
 Sum of Mulliken charges =   0.00000

 Dipole moment (field-independent basis, Debye):
    X=              0.3772    Y=              1.7770    Z=             -1.7986  Tot=              2.5563
 Quadrupole moment (field-independent basis, Debye-Ang):
   XX=            -56.9146   YY=            -53.5924   ZZ=            -48.6074
   XY=              1.0772   XZ=             -1.0966   YZ=              0.9355

  Exact polarizability:  90.224   2.863  75.212  -3.680  -0.299  63.872
 Approx polarizability: 131.207   5.972 109.791  -8.477  -2.046 101.055

                      1                      2                      3
                      A                      A                      A
 Frequencies --     94.2197               131.9849               184.0052
 Red. masses --      4.0097                 3.7602                 2.5952
 Frc consts  --      0.0210                 0.0386                 0.0518
 IR Inten    --      0.8590                 0.2647                 3.5278

                      4                      5                      6
                      A                      A                      A
 Frequencies --    276.2972               291.7357               324.3891
 Red. masses --      2.6779                 1.3653                 1.3551
 Frc consts  --      0.1204                 0.0685                 0.0840
 IR Inten    --     37.6487                62.5831                53.7054

                      7                      8                      9
                      A                      A                      A
 Frequencies --    364.6106               392.8400               424.4509
 Red. masses --      1.7754                 3.3863                 3.9508
 Frc consts  --      0.1391                 0.3079                 0.4194
 IR Inten    --     49.2684                17.9109                 1.3611

                     10                     11                     12
                      A                      A                      A
 Frequencies --    491.2462               552.3064               624.6529
 Red. masses --      2.6676                 2.6137                 3.5657
 Frc consts  --      0.3793                 0.4698                 0.8197
 IR Inten    --      2.8732                19.6983                 7.0775

                     13                     14                     15
                      A                      A                      A
 Frequencies --    721.3144               745.9692               783.6181
 Red. masses --      3.4701                 2.2138                 1.9493
 Frc consts  --      1.0638                 0.7258                 0.7053
 IR Inten    --      4.3775                16.8746                15.1700

                     16                     17                     18
                      A                      A                      A
 Frequencies --    822.2582               909.6907               930.2656
 Red. masses --      2.4016                 2.7757                 1.6818
 Frc consts  --      0.9567                 1.3534                 0.8575
 IR Inten    --      0.8058                 8.7986                19.1120

                     19                     20                     21
                      A                      A                      A
 Frequencies --    957.0473               959.6739               991.0903
 Red. masses --      1.5903                 1.6085                 1.7826
 Frc consts  --      0.8582                 0.8728                 1.0316
 IR Inten    --      1.8089                 4.4743                 8.2449

                     22                     23                     24
                      A                      A                      A
 Frequencies --    999.1492              1035.2469              1063.6069
 Red. masses --      1.9824                 3.1021                 1.4022
 Frc consts  --      1.1660                 1.9588                 0.9346
 IR Inten    --      2.0442                75.4672                15.2480

                     25                     26                     27
                      A                      A                      A
 Frequencies --   1075.2289              1085.4514              1100.3959
 Red. masses --      1.3711                 1.5623                 2.9805
 Frc consts  --      0.9340                 1.0845                 2.1264
 IR Inten    --      5.0819                 6.4417                33.6514

                     28                     29                     30
                      A                      A                      A
 Frequencies --   1137.8225              1191.1478              1230.8467
 Red. masses --      1.2726                 1.3238                 1.8354
 Frc consts  --      0.9707                 1.1066                 1.6383
 IR Inten    --      1.2602                18.7544                12.8916

                     31                     32                     33
                      A                      A                      A
 Frequencies --   1255.3032              1286.6523              1308.8486
 Red. masses --      1.7236                 1.9785                 1.4451
 Frc consts  --      1.6002                 1.9298                 1.4586
 IR Inten    --     95.4601                50.9677                10.9177

                     34                     35                     36
                      A                      A                      A
 Frequencies --   1350.1551              1379.4094              1386.4403
 Red. masses --      1.4599                 1.9178                 1.3128
 Frc consts  --      1.5680                 2.1500                 1.4868
 IR Inten    --      5.5076                36.8200                 2.9500

                     37                     38                     39
                      A                      A                      A
 Frequencies --   1406.5434              1415.9482              1475.9457
 Red. masses --      1.5813                 1.3210                 1.4213
 Frc consts  --      1.8432                 1.5605                 1.8242
 IR Inten    --      5.5471                60.1744                12.6925

                     40                     41                     42
                      A                      A                      A
 Frequencies --   1502.1049              1666.0512              2954.5774
 Red. masses --      1.0897                 6.7591                 1.0812
 Frc consts  --      1.4487                11.0539                 5.5607
 IR Inten    --      1.5218                 5.3199                42.9821

                     43                     44                     45
                      A                      A                      A
 Frequencies --   2972.2013              3081.8946              3128.3453
 Red. masses --      1.0711                 1.0914                 1.0538
 Frc consts  --      5.5750                 6.1078                 6.0762
 IR Inten    --     72.9396                25.4585                12.2372

                     46                     47                     48
                      A                      A                      A
 Frequencies --   3180.0507              3191.4342              3205.5514
 Red. masses --      1.0846                 1.0920                 1.1038
 Frc consts  --      6.4622                 6.5532                 6.6826
 IR Inten    --      6.0820                 6.7646                17.8813

                     49                     50                     51
                      A                      A                      A
 Frequencies --   3219.8912              3788.0985              3811.6914
 Red. masses --      1.1158                 1.0659                 1.0661
 Frc consts  --      6.8160                 9.0120                 9.1257
 IR Inten    --      7.6677                15.3741                16.3249

 - Thermochemistry -
 -------------------
 Temperature   298.150 Kelvin.  Pressure   1.00000 Atm.
 Atom     1 has atomic number  8 and mass  15.99491

 Molecular mass:   126.06808 amu.
 Principal axes and moments of inertia in atomic units:
                           1         2         3
     Eigenvalues --   528.154061576.336371857.40010
           X            0.99996   0.00872  -0.00235
           Y           -0.00871   0.99996   0.00337
           Z            0.00238  -0.00335   0.99999
 This molecule is an asymmetric top.
 Rotational symmetry number  1.
 Warning -- assumption of classical behavior for rotation
           may cause significant error
 Rotational temperatures (Kelvin)      0.16399     0.05495     0.04663
 Rotational constants (GHZ):           3.41707     1.14490     0.97165
 Zero-point vibrational energy     417853.8 (Joules/Mol)
                                   99.86946 (Kcal/Mol)
 Warning -- explicit consideration of  11 degrees of freedom as
           vibrations may cause significant error
 Vibrational temperatures:    135.56   189.90   264.74   397.53   419.74
          (Kelvin)            466.72   524.59   565.21   610.69   706.79
                              794.64   898.74  1037.81  1073.28  1127.45
                             1183.04  1308.84  1338.44  1376.98  1380.75
                             1425.96  1437.55  1489.49  1530.29  1547.01
                             1561.72  1583.22  1637.07  1713.79  1770.91
                             1806.10  1851.20  1883.14  1942.57  1984.66
                             1994.78  2023.70  2037.23  2123.55  2161.19
                             2397.07  4250.97  4276.33  4434.15  4500.99
                             4575.38  4591.76  4612.07  4632.70  5450.22
                             5484.17

 Zero-point correction=                           0.159152 (Hartree/Particle)
 Thermal correction to Energy=                    0.167676
 Thermal correction to Enthalpy=                  0.168620
 Thermal correction to Gibbs Free Energy=         0.126223
 Sum of electronic and zero-point Energies=           -423.007992
 Sum of electronic and thermal Energies=              -422.999468
 Sum of electronic and thermal Enthalpies=            -422.998524
 Sum of electronic and thermal Free Energies=         -423.040921

                     E (Thermal)             CV                S
                      KCal/Mol        Cal/Mol-Kelvin    Cal/Mol-Kelvin
 Total                  105.218             33.345             89.232
 Electronic               0.000              0.000              0.000
 Translational            0.889              2.981             40.409
 Rotational               0.889              2.981             28.827
 Vibrational            103.441             27.383             19.997
 Vibration     1          0.603              1.953              3.571
 Vibration     2          0.612              1.921              2.917
 Vibration     3          0.631              1.862              2.287
 Vibration     4          0.678              1.717              1.556
 Vibration     5          0.687              1.689              1.464
 Vibration     6          0.709              1.627              1.288
 Vibration     7          0.738              1.545              1.102
 Vibration     8          0.760              1.485              0.989
 Vibration     9          0.786              1.417              0.877
 Vibration    10          0.847              1.269              0.680
 Vibration    11          0.908              1.135              0.539

 Optimization completed.
    -- Stationary point found.
 Normal termination of Gaussian 09 at Tue Jan 28 14:49:03 2020.
