 Gaussian 09, Revision D.01,
 Gaussian 09:  ES64L-G09RevD.01 24-Apr-2013

 -----------------------------
 # b3lyp 6-31G(2df,p) opt Freq
 -----------------------------

 -----
 titel
 -----
 Symbolic Z-matrix:
 Charge =  0 Multiplicity = 1

 SCF Done:  E(RB3LYP) =  -423.119756135     A.U. after   14 cycles
 Optimization completed.
    -- Stationary point found.
 Normal termination of Gaussian 09 at Tue Jan 28 14:09:44 2020.

 ----------------------------------------------------------------------
 #N Geom=AllCheck Guess=TCheck SCRF=Check GenChk RB3LYP/6-31G(2df,p) Fr
 eq
 ----------------------------------------------------------------------

 Structure from the checkpoint file:  "/scratch/puck/g09_194cdd63-32af-4bcf-be26-b5b438e1dd43/Gau-3917.chk"
 -----
 titel
 -----
 Charge =  0 Multiplicity = 1

                         Standard orientation:
 ---------------------------------------------------------------------
 Center     Atomic      Atomic             Coordinates (Angstroms)
 Number     Number       Type             X           Y           Z
 ---------------------------------------------------------------------
      1          6           0        3.349494   -0.025887   -0.033690
      2          8           0        1.994248   -0.380812    0.099084
      3          6           0        1.125283    0.715794   -0.048008
      4          6           0       -0.299151    0.248123    0.034371
      5          6           0       -0.814581   -0.889527    0.974909
      6          6           0       -1.867969   -0.878473   -0.171329
      7          8           0       -0.774930   -0.565870   -1.093726
      8          6           0       -2.518948    0.507445    0.017583
      9          6           0       -1.443307    1.282652    0.158292
     10          1           0        3.657761    0.707749    0.728784
     11          1           0        3.939062   -0.936702    0.094021
     12          1           0        3.564412    0.401157   -1.025920
     13          1           0        1.305151    1.467458    0.741116
     14          1           0        1.280856    1.215720   -1.019279
     15          1           0       -0.163586   -1.764328    0.949171
     16          1           0       -1.132845   -0.629585    1.986458
     17          1           0       -2.471728   -1.738502   -0.456285
     18          1           0       -3.572343    0.744396    0.039216
     19          1           0       -1.346199    2.345327    0.327089
 ---------------------------------------------------------------------

 SCF Done:  E(RB3LYP) =  -423.119756135     A.U. after    1 cycles

 The electronic state is 1-A.
 Alpha  occ. eigenvalues --  -19.14191 -19.12204 -10.24266 -10.23770 -10.23160
 Alpha  occ. eigenvalues --  -10.22507 -10.18469 -10.18466 -10.18375  -1.04593
 Alpha  occ. eigenvalues --   -1.03156  -0.80147  -0.75483  -0.70686  -0.67571
 Alpha  occ. eigenvalues --   -0.62786  -0.54806  -0.54082  -0.51150  -0.48672
 Alpha  occ. eigenvalues --   -0.47944  -0.45772  -0.43323  -0.42088  -0.40524
 Alpha  occ. eigenvalues --   -0.38620  -0.37555  -0.34611  -0.33112  -0.32753
 Alpha  occ. eigenvalues --   -0.31045  -0.25789  -0.24951  -0.23193
 Alpha virt. eigenvalues --    0.00211   0.08897   0.10516   0.12032   0.12877
 Alpha virt. eigenvalues --    0.13369   0.14794   0.15534   0.16173   0.16534
 Alpha virt. eigenvalues --    0.17056   0.17481   0.18372   0.18698   0.21780

 Mulliken charges:
               1
     1  C   -0.220532
     2  O   -0.232752
     3  C   -0.202691
     4  C    0.384743
     5  C   -0.252443
     6  C    0.008411
     7  O   -0.314816
     8  C   -0.087921
     9  C   -0.127600
    10  H    0.101790
    11  H    0.129321
    12  H    0.107357
    13  H    0.087987
    14  H    0.104103
    15  H    0.122569
    16  H    0.093228
    17  H    0.080557
    18  H    0.111052
    19  H    0.107637
 Sum of Mulliken charges =   0.00000

 Dipole moment (field-independent basis, Debye):
    X=              0.1677    Y=              1.2851    Z=              1.3913  Tot=              1.9013
 Quadrupole moment (field-independent basis, Debye-Ang):
   XX=            -45.0178   YY=            -51.1615   ZZ=            -56.2551
   XY=              2.2232   XZ=             -1.3583   YZ=             -0.6218

  Exact polarizability:  95.251   2.064  74.168   0.609   0.470  59.791
 Approx polarizability: 124.462   9.268 114.487   1.151   3.316  94.810

                      1                      2                      3
                      A                      A                      A
 Frequencies --     74.6230                93.7797               135.4804
 Red. masses --      3.1084                 2.2513                 3.6027
 Frc consts  --      0.0102                 0.0117                 0.0390
 IR Inten    --      1.9021                 3.0875                 1.2779

                      4                      5                      6
                      A                      A                      A
 Frequencies --    233.8100               299.8005               343.1824
 Red. masses --      1.2811                 2.2113                 3.3615
 Frc consts  --      0.0413                 0.1171                 0.2333
 IR Inten    --      1.7417                 3.3060                 0.7898

                      7                      8                      9
                      A                      A                      A
 Frequencies --    365.5622               472.5982               534.8896
 Red. masses --      4.6446                 1.8564                 2.9429
 Frc consts  --      0.3657                 0.2443                 0.4961
 IR Inten    --      0.1846                 4.3395                 1.8042

                     10                     11                     12
                      A                      A                      A
 Frequencies --    615.8717               705.6048               719.2903
 Red. masses --      3.1028                 1.7779                 3.3360
 Frc consts  --      0.6934                 0.5215                 1.0169
 IR Inten    --      4.2300                26.3452                 5.3145

                     13                     14                     15
                      A                      A                      A
 Frequencies --    763.0977               811.7139               845.3745
 Red. masses --      5.5116                 2.8405                 2.7729
 Frc consts  --      1.8910                 1.1027                 1.1676
 IR Inten    --      5.5425                15.8748                28.8528

                     16                     17                     18
                      A                      A                      A
 Frequencies --    875.5915               889.7503               901.2317
 Red. masses --      2.4991                 3.3631                 1.4177
 Frc consts  --      1.1289                 1.5686                 0.6785
 IR Inten    --      2.9871                19.8102                 0.2069

                     19                     20                     21
                      A                      A                      A
 Frequencies --    965.1222               972.4577              1016.2421
 Red. masses --      3.7928                 2.4801                 2.6384
 Frc consts  --      2.0815                 1.3818                 1.6054
 IR Inten    --     26.4510                13.5957                10.9109

                     22                     23                     24
                      A                      A                      A
 Frequencies --   1048.2537              1076.1759              1091.3479
 Red. masses --      1.2535                 1.5952                 2.0968
 Frc consts  --      0.8116                 1.0885                 1.4714
 IR Inten    --      2.0359                 7.4047                 3.6886

                     25                     26                     27
                      A                      A                      A
 Frequencies --   1122.6033              1164.6189              1184.5823
 Red. masses --      1.5287                 5.1542                 1.2942
 Frc consts  --      1.1351                 4.1189                 1.0700
 IR Inten    --      2.4708               169.1357                 3.8284

                     28                     29                     30
                      A                      A                      A
 Frequencies --   1203.0599              1229.3669              1234.4789
 Red. masses --      1.5776                 1.4156                 1.7463
 Frc consts  --      1.3453                 1.2606                 1.5680
 IR Inten    --     16.7484                 6.8225                34.5385

                     31                     32                     33
                      A                      A                      A
 Frequencies --   1258.8595              1279.7198              1300.0866
 Red. masses --      1.3440                 1.4040                 1.5459
 Frc consts  --      1.2548                 1.3547                 1.5395
 IR Inten    --      1.8367                 4.8126                 6.0647

                     34                     35                     36
                      A                      A                      A
 Frequencies --   1326.2111              1434.6644              1477.6541
 Red. masses --      2.0677                 1.7141                 1.1569
 Frc consts  --      2.1427                 2.0787                 1.4884
 IR Inten    --     36.5347                10.9657                 5.8171

                     37                     38                     39
                      A                      A                      A
 Frequencies --   1486.0311              1487.5839              1495.0305
 Red. masses --      1.0480                 1.1764                 1.0739
 Frc consts  --      1.3635                 1.5338                 1.4143
 IR Inten    --      4.7783                 1.0809                 9.3497

                     40                     41                     42
                      A                      A                      A
 Frequencies --   1518.4428              1618.4623              2946.1885
 Red. masses --      1.0964                 6.1755                 1.0557
 Frc consts  --      1.4894                 9.5308                 5.3991
 IR Inten    --      2.5146                 0.5834                34.6909

                     43                     44                     45
                      A                      A                      A
 Frequencies --   2969.1315              2981.3695              3012.6507
 Red. masses --      1.0409                 1.0991                 1.1026
 Frc consts  --      5.4065                 5.7560                 5.8963
 IR Inten    --     75.3768                47.0288                53.5879

                     46                     47                     48
                      A                      A                      A
 Frequencies --   3072.2614              3117.0005              3138.0443
 Red. masses --      1.0564                 1.0957                 1.0925
 Frc consts  --      5.8746                 6.2719                 6.3383
 IR Inten    --     32.8100                27.3786                41.9042

                     49                     50                     51
                      A                      A                      A
 Frequencies --   3152.0065              3227.7089              3255.9730
 Red. masses --      1.1100                 1.0864                 1.1116
 Frc consts  --      6.4973                 6.6685                 6.9434
 IR Inten    --     23.2397                 2.7014                 6.9150

 - Thermochemistry -
 -------------------
 Temperature   298.150 Kelvin.  Pressure   1.00000 Atm.
 Atom     1 has atomic number  6 and mass  12.00000

 Molecular mass:   126.06808 amu.
 Principal axes and moments of inertia in atomic units:
                           1         2         3
     Eigenvalues --   405.391771721.584801843.47002
           X            0.99994   0.00871  -0.00704
           Y           -0.00900   0.99906  -0.04239
           Z            0.00667   0.04245   0.99908
 This molecule is an asymmetric top.
 Rotational symmetry number  1.
 Rotational temperatures (Kelvin)      0.21365     0.05031     0.04698
 Rotational constants (GHZ):           4.45184     1.04830     0.97899
 Zero-point vibrational energy     415969.3 (Joules/Mol)
                                   99.41906 (Kcal/Mol)
 Warning -- explicit consideration of  10 degrees of freedom as
           vibrations may cause significant error
 Vibrational temperatures:    107.37   134.93   194.93   336.40   431.35
          (Kelvin)            493.76   525.96   679.96   769.59   886.10
                             1015.21  1034.90  1097.93  1167.87  1216.30
                             1259.78  1280.15  1296.67  1388.59  1399.15
                             1462.14  1508.20  1548.38  1570.20  1615.17
                             1675.62  1704.35  1730.93  1768.78  1776.14
                             1811.22  1841.23  1870.53  1908.12  2064.16
                             2126.01  2138.06  2140.30  2151.01  2184.70
                             2328.60  4238.90  4271.91  4289.52  4334.53
                             4420.29  4484.66  4514.94  4535.03  4643.95
                             4684.61

 Zero-point correction=                           0.158434 (Hartree/Particle)
 Thermal correction to Energy=                    0.166711
 Thermal correction to Enthalpy=                  0.167655
 Thermal correction to Gibbs Free Energy=         0.125168
 Sum of electronic and zero-point Energies=           -422.961322
 Sum of electronic and thermal Energies=              -422.953045
 Sum of electronic and thermal Enthalpies=            -422.952101
 Sum of electronic and thermal Free Energies=         -422.994588

                     E (Thermal)             CV                S
                      KCal/Mol        Cal/Mol-Kelvin    Cal/Mol-Kelvin
 Total                  104.613             31.478             89.422
 Electronic               0.000              0.000              0.000
 Translational            0.889              2.981             40.409
 Rotational               0.889              2.981             28.644
 Vibrational            102.835             25.517             20.369
 Vibration     1          0.599              1.966              4.028
 Vibration     2          0.603              1.954              3.580
 Vibration     3          0.613              1.918              2.867
 Vibration     4          0.654              1.789              1.850
 Vibration     5          0.692              1.674              1.418
 Vibration     6          0.722              1.589              1.197
 Vibration     7          0.739              1.543              1.098
 Vibration     8          0.829              1.311              0.730
 Vibration     9          0.890              1.173              0.576
 Vibration    10          0.975              0.998              0.423

 Normal termination of Gaussian 09 at Tue Jan 28 14:57:52 2020.
