 Gaussian 09, Revision D.01,
 Gaussian 09:  ES64L-G09RevD.01 24-Apr-2013

 -----------------------------
 # b3lyp 6-31G(2df,p) opt Freq
 -----------------------------

 -----
 titel
 -----
 Symbolic Z-matrix:
 Charge =  0 Multiplicity = 1

 SCF Done:  E(RB3LYP) =  -423.145327866     A.U. after   13 cycles
 Optimization completed.
    -- Stationary point found.
 Normal termination of Gaussian 09 at Tue Jan 28 02:51:47 2020.

 ----------------------------------------------------------------------
 #N Geom=AllCheck Guess=TCheck SCRF=Check GenChk RB3LYP/6-31G(2df,p) Fr
 eq
 ----------------------------------------------------------------------

 Structure from the checkpoint file:  "/scratch/puck/g09_1a0ad226-d423-4526-b370-36a107c75b5c/Gau-112774.chk"
 -----
 titel
 -----
 Charge =  0 Multiplicity = 1

                         Standard orientation:
 ---------------------------------------------------------------------
 Center     Atomic      Atomic             Coordinates (Angstroms)
 Number     Number       Type             X           Y           Z
 ---------------------------------------------------------------------
      1          8           0        2.649780   -0.635536   -0.081329
      2          6           0        1.402239   -0.192830   -0.551703
      3          6           0        1.003268    1.322948   -0.444381
      4          6           0       -0.311798    0.892349    0.229039
      5          6           0       -0.043274    0.156274    1.503887
      6          6           0        0.120562   -0.585671    0.201905
      7          6           0       -1.075420   -1.354688   -0.305557
      8          8           0       -2.185520   -0.450888   -0.161652
      9          6           0       -1.723076    0.899979   -0.307243
     10          1           0        2.673358   -0.505435    0.872491
     11          1           0        1.347081   -0.527282   -1.591475
     12          1           0        1.660224    1.947677    0.168931
     13          1           0        0.875578    1.802032   -1.417766
     14          1           0        0.824557    0.426085    2.100763
     15          1           0       -0.910624   -0.132507    2.087660
     16          1           0       -0.921308   -1.635150   -1.360002
     17          1           0       -1.341497   -2.255653    0.255989
     18          1           0       -1.719191    1.214075   -1.363940
     19          1           0       -2.437260    1.527388    0.235519
 ---------------------------------------------------------------------

 SCF Done:  E(RB3LYP) =  -423.145327866     A.U. after    1 cycles

 The electronic state is 1-A.
 Alpha  occ. eigenvalues --  -19.13873 -19.13829 -10.24236 -10.23288 -10.23144
 Alpha  occ. eigenvalues --  -10.19963 -10.19921 -10.19302 -10.19106  -1.03362
 Alpha  occ. eigenvalues --   -1.02247  -0.89831  -0.74086  -0.73427  -0.66234
 Alpha  occ. eigenvalues --   -0.63756  -0.58136  -0.54086  -0.51284  -0.48634
 Alpha  occ. eigenvalues --   -0.46572  -0.45065  -0.43308  -0.42595  -0.40328
 Alpha  occ. eigenvalues --   -0.39772  -0.38495  -0.37691  -0.33472  -0.32590
 Alpha  occ. eigenvalues --   -0.29087  -0.26887  -0.25718  -0.24047
 Alpha virt. eigenvalues --    0.06650   0.07976   0.09358   0.10626   0.12527
 Alpha virt. eigenvalues --    0.12751   0.14036   0.14761   0.15870   0.16390
 Alpha virt. eigenvalues --    0.17227   0.18037   0.19864   0.20415   0.21604

 Mulliken charges:
               1
     1  O   -0.426865
     2  C    0.085430
     3  C   -0.341950
     4  C    0.235907
     5  C   -0.378712
     6  C    0.177896
     7  C   -0.159117
     8  O   -0.261414
     9  C   -0.157140
    10  H    0.280289
    11  H    0.095751
    12  H    0.099793
    13  H    0.108326
    14  H    0.100924
    15  H    0.135203
    16  H    0.092589
    17  H    0.110552
    18  H    0.090951
    19  H    0.111589
 Sum of Mulliken charges =   0.00000

 Dipole moment (field-independent basis, Debye):
    X=              0.2270    Y=              0.9504    Z=              0.6322  Tot=              1.1638
 Quadrupole moment (field-independent basis, Debye-Ang):
   XX=            -61.7070   YY=            -52.6681   ZZ=            -49.6079
   XY=              0.5690   XZ=              2.9366   YZ=             -0.7419

  Exact polarizability:  78.283   0.022  72.614   0.720  -0.569  71.020
 Approx polarizability: 109.978  -3.002 112.282   0.225  -0.185 108.287

                      1                      2                      3
                      A                      A                      A
 Frequencies --    126.8908               211.6512               232.2998
 Red. masses --      3.5742                 2.1207                 1.9380
 Frc consts  --      0.0339                 0.0560                 0.0616
 IR Inten    --      4.5321                17.6433                18.6000

                      4                      5                      6
                      A                      A                      A
 Frequencies --    273.5655               313.9381               345.7816
 Red. masses --      2.3473                 1.8717                 2.6200
 Frc consts  --      0.1035                 0.1087                 0.1846
 IR Inten    --     18.6531                26.3797                 9.3719

                      7                      8                      9
                      A                      A                      A
 Frequencies --    424.1607               456.9482               565.2758
 Red. masses --      2.0273                 2.7609                 3.8504
 Frc consts  --      0.2149                 0.3397                 0.7249
 IR Inten    --      0.7879                 1.6857                 4.7155

                     10                     11                     12
                      A                      A                      A
 Frequencies --    638.5521               671.5724               706.2167
 Red. masses --      3.5533                 3.4570                 4.2627
 Frc consts  --      0.8536                 0.9186                 1.2526
 IR Inten    --      5.1338                14.2348                 5.7571

                     13                     14                     15
                      A                      A                      A
 Frequencies --    829.7399               840.4540               859.6070
 Red. masses --      3.3201                 2.6024                 3.0627
 Frc consts  --      1.3467                 1.0831                 1.3334
 IR Inten    --      2.1968                20.8767                12.1817

                     16                     17                     18
                      A                      A                      A
 Frequencies --    909.9542               955.1854               959.2335
 Red. masses --      4.7889                 1.4574                 1.7323
 Frc consts  --      2.3363                 0.7834                 0.9391
 IR Inten    --     16.4414                 1.9240                 3.3580

                     19                     20                     21
                      A                      A                      A
 Frequencies --    968.3509               990.1247              1030.6489
 Red. masses --      2.2986                 2.7567                 1.7087
 Frc consts  --      1.2699                 1.5923                 1.0694
 IR Inten    --     13.3139                10.4068                 1.4859

                     22                     23                     24
                      A                      A                      A
 Frequencies --   1043.2507              1080.3265              1094.5767
 Red. masses --      3.0435                 1.3417                 1.6196
 Frc consts  --      1.9517                 0.9226                 1.1433
 IR Inten    --     47.2420                 2.5586                16.2152

                     25                     26                     27
                      A                      A                      A
 Frequencies --   1117.3810              1165.1703              1192.8022
 Red. masses --      2.5749                 1.9390                 1.2632
 Frc consts  --      1.8942                 1.5510                 1.0589
 IR Inten    --    178.8153                 2.0516                12.5426

                     28                     29                     30
                      A                      A                      A
 Frequencies --   1226.6404              1233.4524              1243.4537
 Red. masses --      1.3797                 1.3755                 1.6058
 Frc consts  --      1.2231                 1.2330                 1.4628
 IR Inten    --      3.0268                 2.0767                40.2744

                     31                     32                     33
                      A                      A                      A
 Frequencies --   1281.9476              1306.2257              1309.3792
 Red. masses --      1.9415                 1.4837                 1.8292
 Frc consts  --      1.8798                 1.4915                 1.8477
 IR Inten    --      3.3812                 1.3070                 3.2358

                     34                     35                     36
                      A                      A                      A
 Frequencies --   1359.9046              1371.0651              1390.9684
 Red. masses --      1.8655                 2.5955                 1.4509
 Frc consts  --      2.0327                 2.8746                 1.6539
 IR Inten    --      1.7104                 1.9246                11.4359

                     37                     38                     39
                      A                      A                      A
 Frequencies --   1434.7337              1471.5277              1489.4508
 Red. masses --      1.2332                 1.1591                 1.2321
 Frc consts  --      1.4956                 1.4788                 1.6104
 IR Inten    --     79.2526                 6.7422                 4.2055

                     40                     41                     42
                      A                      A                      A
 Frequencies --   1510.8778              1519.8164              2970.4972
 Red. masses --      1.0866                 1.0961                 1.0698
 Frc consts  --      1.4614                 1.4917                 5.5618
 IR Inten    --      0.4989                 0.7683                63.2516

                     43                     44                     45
                      A                      A                      A
 Frequencies --   2977.8443              3050.0484              3070.1037
 Red. masses --      1.0707                 1.0610                 1.0913
 Frc consts  --      5.5941                 5.8156                 6.0602
 IR Inten    --     70.6705                42.9732                47.0562

                     46                     47                     48
                      A                      A                      A
 Frequencies --   3071.3092              3072.8519              3111.1578
 Red. masses --      1.0885                 1.0932                 1.1019
 Frc consts  --      6.0494                 6.0820                 6.2843
 IR Inten    --      9.0976                40.0457                14.3339

                     49                     50                     51
                      A                      A                      A
 Frequencies --   3112.2001              3208.1029              3811.2602
 Red. masses --      1.0608                 1.1124                 1.0657
 Frc consts  --      6.0537                 6.7452                 9.1209
 IR Inten    --     27.8571                 4.4592                13.0668

 - Thermochemistry -
 -------------------
 Temperature   298.150 Kelvin.  Pressure   1.00000 Atm.
 Atom     1 has atomic number  8 and mass  15.99491

 Molecular mass:   126.06808 amu.
 Principal axes and moments of inertia in atomic units:
                           1         2         3
     Eigenvalues --   540.789491271.731671418.95960
           X            0.99993   0.00958   0.00686
           Y           -0.00944   0.99975  -0.02034
           Z           -0.00705   0.02027   0.99977
 This molecule is an asymmetric top.
 Rotational symmetry number  1.
 Warning -- assumption of classical behavior for rotation
           may cause significant error
 Rotational temperatures (Kelvin)      0.16016     0.06811     0.06104
 Rotational constants (GHZ):           3.33723     1.41912     1.27188
 Zero-point vibrational energy     422332.5 (Joules/Mol)
                                  100.93989 (Kcal/Mol)
 Warning -- explicit consideration of   9 degrees of freedom as
           vibrations may cause significant error
 Vibrational temperatures:    182.57   304.52   334.23   393.60   451.69
          (Kelvin)            497.50   610.27   657.45   813.30   918.73
                              966.24  1016.09  1193.81  1209.22  1236.78
                             1309.22  1374.30  1380.12  1393.24  1424.57
                             1482.87  1501.00  1554.35  1574.85  1607.66
                             1676.42  1716.17  1764.86  1774.66  1789.05
                             1844.43  1879.37  1883.90  1956.60  1972.65
                             2001.29  2064.26  2117.20  2142.98  2173.81
                             2186.67  4273.88  4284.45  4388.33  4417.19
                             4418.92  4421.14  4476.26  4477.76  4615.74
                             5483.55

 Zero-point correction=                           0.160858 (Hartree/Particle)
 Thermal correction to Energy=                    0.168476
 Thermal correction to Enthalpy=                  0.169420
 Thermal correction to Gibbs Free Energy=         0.129131
 Sum of electronic and zero-point Energies=           -422.984470
 Sum of electronic and thermal Energies=              -422.976852
 Sum of electronic and thermal Enthalpies=            -422.975907
 Sum of electronic and thermal Free Energies=         -423.016197

                     E (Thermal)             CV                S
                      KCal/Mol        Cal/Mol-Kelvin    Cal/Mol-Kelvin
 Total                  105.720             30.570             84.796
 Electronic               0.000              0.000              0.000
 Translational            0.889              2.981             40.409
 Rotational               0.889              2.981             28.369
 Vibrational            103.943             24.608             16.018
 Vibration     1          0.611              1.926              2.993
 Vibration     2          0.643              1.823              2.029
 Vibration     3          0.653              1.792              1.861
 Vibration     4          0.676              1.722              1.574
 Vibration     5          0.702              1.647              1.341
 Vibration     6          0.724              1.584              1.185
 Vibration     7          0.786              1.418              0.878
 Vibration     8          0.815              1.346              0.775
 Vibration     9          0.921              1.106              0.513

 Optimization completed.
    -- Stationary point found.
 Normal termination of Gaussian 09 at Tue Jan 28 03:41:34 2020.
