 Gaussian 09, Revision D.01,
 Gaussian 09:  ES64L-G09RevD.01 24-Apr-2013

 -----------------------------
 # b3lyp 6-31G(2df,p) opt Freq
 -----------------------------

 -----
 titel
 -----
 Symbolic Z-matrix:
 Charge =  0 Multiplicity = 1

 SCF Done:  E(RB3LYP) =  -423.107695449     A.U. after   13 cycles
 Optimization completed.
    -- Stationary point found.
 Normal termination of Gaussian 09 at Tue Jan 28 02:20:03 2020.

 ----------------------------------------------------------------------
 #N Geom=AllCheck Guess=TCheck SCRF=Check GenChk RB3LYP/6-31G(2df,p) Fr
 eq
 ----------------------------------------------------------------------

 Structure from the checkpoint file:  "/scratch/puck/g09_e3c2d106-e6b5-4ec5-867f-00eebe26782d/Gau-4993.chk"
 -----
 titel
 -----
 Charge =  0 Multiplicity = 1

                         Standard orientation:
 ---------------------------------------------------------------------
 Center     Atomic      Atomic             Coordinates (Angstroms)
 Number     Number       Type             X           Y           Z
 ---------------------------------------------------------------------
      1          8           0        2.828167    1.618002   -0.035827
      2          6           0        2.182124    0.480163    0.450107
      3          6           0        2.763813   -0.838645    0.048950
      4          6           0        1.418099   -0.404408   -0.501676
      5          6           0        0.155636   -1.081722   -0.053654
      6          8           0       -0.915635   -0.158852   -0.165497
      7          6           0       -2.158072   -0.732210    0.188072
      8          6           0       -3.221256    0.254703    0.051401
      9          6           0       -4.116480    1.048247   -0.051883
     10          1           0        2.154162    2.283761   -0.210406
     11          1           0        1.790046    0.566127    1.464183
     12          1           0        3.605293   -0.810586   -0.633184
     13          1           0        2.797101   -1.635276    0.784633
     14          1           0        1.418082   -0.075560   -1.536622
     15          1           0       -0.049713   -1.976218   -0.666689
     16          1           0        0.255754   -1.426425    0.990562
     17          1           0       -2.378466   -1.605000   -0.451047
     18          1           0       -2.131477   -1.105049    1.227045
     19          1           0       -4.904221    1.754247   -0.145783
 ---------------------------------------------------------------------

 SCF Done:  E(RB3LYP) =  -423.107695449     A.U. after    1 cycles

 The electronic state is 1-A.
 Alpha  occ. eigenvalues --  -19.14740 -19.13988 -10.25699 -10.23603 -10.23368
 Alpha  occ. eigenvalues --  -10.19010 -10.18650 -10.18555 -10.17893  -1.04214
 Alpha  occ. eigenvalues --   -1.02536  -0.85259  -0.77802  -0.71742  -0.66631
 Alpha  occ. eigenvalues --   -0.59553  -0.58440  -0.53560  -0.53032  -0.49694
 Alpha  occ. eigenvalues --   -0.49260  -0.48407  -0.45668  -0.42586  -0.41205
 Alpha  occ. eigenvalues --   -0.38350  -0.36569  -0.33267  -0.32971  -0.28498
 Alpha  occ. eigenvalues --   -0.27897  -0.27635  -0.25902  -0.25372
 Alpha virt. eigenvalues --    0.03061   0.05366   0.08657   0.09375   0.10700
 Alpha virt. eigenvalues --    0.11722   0.12506   0.13639   0.15737   0.16049
 Alpha virt. eigenvalues --    0.16431   0.18588   0.18821   0.20600   0.23093

 Mulliken charges:
               1
     1  O   -0.423156
     2  C    0.123976
     3  C   -0.308714
     4  C   -0.059538
     5  C   -0.066225
     6  O   -0.249457
     7  C   -0.203182
     8  C    0.281001
     9  C   -0.414757
    10  H    0.289825
    11  H    0.085652
    12  H    0.125904
    13  H    0.112129
    14  H    0.098090
    15  H    0.090465
    16  H    0.082745
    17  H    0.118097
    18  H    0.116701
    19  H    0.200444
 Sum of Mulliken charges =   0.00000

 Dipole moment (field-independent basis, Debye):
    X=             -1.0653    Y=             -1.0463    Z=              0.3276  Tot=              1.5287
 Quadrupole moment (field-independent basis, Debye-Ang):
   XX=            -56.5252   YY=            -48.4657   ZZ=            -52.8150
   XY=             -3.9979   XZ=             -0.5335   YZ=             -1.1664

  Exact polarizability: 101.652 -13.066  77.375   1.368  -1.967  59.482
 Approx polarizability: 127.109 -23.195 117.085   3.481  -4.184  89.860

                      1                      2                      3
                      A                      A                      A
 Frequencies --     40.7884                71.9612                87.2481
 Red. masses --      3.7192                 3.6852                 3.2434
 Frc consts  --      0.0036                 0.0112                 0.0145
 IR Inten    --      0.3850                 0.1645                 1.1470

                      4                      5                      6
                      A                      A                      A
 Frequencies --    128.4845               172.5080               278.2258
 Red. masses --      3.3508                 3.9059                 2.7489
 Frc consts  --      0.0326                 0.0685                 0.1254
 IR Inten    --      5.4934                 3.1366                 2.1316

                      7                      8                      9
                      A                      A                      A
 Frequencies --    302.3118               334.2618               343.4648
 Red. masses --      2.8197                 3.4542                 1.2662
 Frc consts  --      0.1518                 0.2274                 0.0880
 IR Inten    --     10.9466                 0.8601                93.8519

                     10                     11                     12
                      A                      A                      A
 Frequencies --    360.7156               442.3834               491.5774
 Red. masses --      4.4659                 2.5018                 3.0488
 Frc consts  --      0.3424                 0.2885                 0.4341
 IR Inten    --      5.0366                 4.5892                 8.2927

                     13                     14                     15
                      A                      A                      A
 Frequencies --    567.2718               608.2270               676.0031
 Red. masses --      5.9005                 1.1926                 1.2405
 Frc consts  --      1.1187                 0.2600                 0.3340
 IR Inten    --      1.0649                44.8033                34.3940

                     16                     17                     18
                      A                      A                      A
 Frequencies --    815.1853               839.3119               898.6277
 Red. masses --      1.6705                 2.1391                 1.7411
 Frc consts  --      0.6540                 0.8878                 0.8284
 IR Inten    --      3.7670                14.6752                14.5103

                     19                     20                     21
                      A                      A                      A
 Frequencies --    938.4638               974.9961               993.3532
 Red. masses --      2.5581                 2.7558                 2.2678
 Frc consts  --      1.3274                 1.5435                 1.3185
 IR Inten    --      1.1796                 6.1044                11.3384

                     22                     23                     24
                      A                      A                      A
 Frequencies --   1031.7298              1051.1828              1052.0446
 Red. masses --      1.7763                 3.4591                 1.3468
 Frc consts  --      1.1140                 2.2520                 0.8783
 IR Inten    --      6.5413                40.1947                 9.3316

                     25                     26                     27
                      A                      A                      A
 Frequencies --   1103.1660              1113.7210              1135.3793
 Red. masses --      1.6370                 1.3080                 7.0147
 Frc consts  --      1.1737                 0.9559                 5.3277
 IR Inten    --     10.9678                 4.5295               265.5591

                     28                     29                     30
                      A                      A                      A
 Frequencies --   1185.5885              1195.2000              1222.5813
 Red. masses --      1.9378                 2.1782                 1.7431
 Frc consts  --      1.6048                 1.8333                 1.5351
 IR Inten    --     10.0510                17.0466                53.0281

                     31                     32                     33
                      A                      A                      A
 Frequencies --   1251.3856              1268.0088              1304.8551
 Red. masses --      1.0818                 1.2118                 1.1875
 Frc consts  --      0.9981                 1.1479                 1.1913
 IR Inten    --      2.5972                 3.5825                87.2346

                     34                     35                     36
                      A                      A                      A
 Frequencies --   1347.3943              1379.9042              1428.4331
 Red. masses --      1.3074                 1.2798                 1.3331
 Frc consts  --      1.3984                 1.4358                 1.6026
 IR Inten    --      4.0390                94.0718                 5.9449

                     37                     38                     39
                      A                      A                      A
 Frequencies --   1455.8699              1497.1671              1498.5584
 Red. masses --      1.3797                 1.1715                 1.6472
 Frc consts  --      1.7229                 1.5471                 2.1794
 IR Inten    --      7.4979                 6.6671                12.9022

                     40                     41                     42
                      A                      A                      A
 Frequencies --   1521.2839              2248.1578              2942.1614
 Red. masses --      1.0983                 5.8945                 1.0544
 Frc consts  --      1.4975                17.5531                 5.3778
 IR Inten    --      6.2368                 1.6700                 9.2209

                     43                     44                     45
                      A                      A                      A
 Frequencies --   2952.3910              2964.2894              2972.9719
 Red. masses --      1.0550                 1.1018                 1.1050
 Frc consts  --      5.4183                 5.7044                 5.7545
 IR Inten    --     76.0867                61.3308                33.7121

                     46                     47                     48
                      A                      A                      A
 Frequencies --   3093.4083              3138.2325              3159.9153
 Red. masses --      1.0871                 1.0556                 1.0882
 Frc consts  --      6.1288                 6.1252                 6.4020
 IR Inten    --     30.9224                11.0787                 7.7536

                     49                     50                     51
                      A                      A                      A
 Frequencies --   3229.4170              3505.7787              3802.0708
 Red. masses --      1.1160                 1.1639                 1.0661
 Frc consts  --      6.8576                 8.4283                 9.0799
 IR Inten    --      6.0383                61.8618                20.3249

 - Thermochemistry -
 -------------------
 Temperature   298.150 Kelvin.  Pressure   1.00000 Atm.
 Atom     1 has atomic number  8 and mass  15.99491

 Molecular mass:   126.06808 amu.
 Principal axes and moments of inertia in atomic units:
                           1         2         3
     Eigenvalues --   452.929552781.985933126.15160
           X            0.99998  -0.00674  -0.00075
           Y            0.00673   0.99989  -0.01350
           Z            0.00084   0.01349   0.99991
 This molecule is an asymmetric top.
 Rotational symmetry number  1.
 Warning -- assumption of classical behavior for rotation
           may cause significant error
 Rotational temperatures (Kelvin)      0.19123     0.03113     0.02771
 Rotational constants (GHZ):           3.98460     0.64872     0.57730
 Zero-point vibrational energy     409228.2 (Joules/Mol)
                                   97.80790 (Kcal/Mol)
 Warning -- explicit consideration of  14 degrees of freedom as
           vibrations may cause significant error
 Vibrational temperatures:     58.69   103.54   125.53   184.86   248.20
          (Kelvin)            400.30   434.96   480.93   494.17   518.99
                              636.49   707.27   816.18   875.10   972.62
                             1172.87  1207.58  1292.92  1350.24  1402.80
                             1429.21  1484.43  1512.42  1513.66  1587.21
                             1602.39  1633.56  1705.80  1719.62  1759.02
                             1800.46  1824.38  1877.39  1938.60  1985.37
                             2055.19  2094.67  2154.09  2156.09  2188.79
                             3234.59  4233.11  4247.83  4264.95  4277.44
                             4450.72  4515.21  4546.41  4646.40  5044.03
                             5470.33

 Zero-point correction=                           0.155867 (Hartree/Particle)
 Thermal correction to Energy=                    0.165926
 Thermal correction to Enthalpy=                  0.166870
 Thermal correction to Gibbs Free Energy=         0.119629
 Sum of electronic and zero-point Energies=           -422.951829
 Sum of electronic and thermal Energies=              -422.941770
 Sum of electronic and thermal Enthalpies=            -422.940826
 Sum of electronic and thermal Free Energies=         -422.988067

                     E (Thermal)             CV                S
                      KCal/Mol        Cal/Mol-Kelvin    Cal/Mol-Kelvin
 Total                  104.120             35.930             99.427
 Electronic               0.000              0.000              0.000
 Translational            0.889              2.981             40.409
 Rotational               0.889              2.981             29.756
 Vibrational            102.343             29.969             29.263
 Vibration     1          0.594              1.981              5.220
 Vibration     2          0.598              1.967              4.099
 Vibration     3          0.601              1.958              3.721
 Vibration     4          0.611              1.925              2.969
 Vibration     5          0.626              1.876              2.408
 Vibration     6          0.679              1.714              1.545
 Vibration     7          0.694              1.669              1.404
 Vibration     8          0.716              1.607              1.239
 Vibration     9          0.722              1.589              1.196
 Vibration    10          0.735              1.553              1.119
 Vibration    11          0.802              1.378              0.819
 Vibration    12          0.847              1.269              0.680
 Vibration    13          0.923              1.102              0.510
 Vibration    14          0.967              1.014              0.436

 Optimization completed.
    -- Stationary point found.
 Normal termination of Gaussian 09 at Tue Jan 28 02:52:34 2020.
