 Gaussian 09, Revision D.01,
 Gaussian 09:  ES64L-G09RevD.01 24-Apr-2013

 -----------------------------
 # b3lyp 6-31G(2df,p) opt Freq
 -----------------------------

 -----
 titel
 -----
 Symbolic Z-matrix:
 Charge =  0 Multiplicity = 1

 SCF Done:  E(RB3LYP) =  -423.148106221     A.U. after   13 cycles
 Optimization completed.
    -- Stationary point found.
 Normal termination of Gaussian 09 at Mon Jan 27 11:18:12 2020.

 ----------------------------------------------------------------------
 #N Geom=AllCheck Guess=TCheck SCRF=Check GenChk RB3LYP/6-31G(2df,p) Fr
 eq
 ----------------------------------------------------------------------

 Structure from the checkpoint file:  "/scratch/puck/g09_07acb901-a092-4435-88a1-c55e6a8dc771/Gau-150277.chk"
 -----
 titel
 -----
 Charge =  0 Multiplicity = 1

                         Standard orientation:
 ---------------------------------------------------------------------
 Center     Atomic      Atomic             Coordinates (Angstroms)
 Number     Number       Type             X           Y           Z
 ---------------------------------------------------------------------
      1          6           0       -2.611352   -0.069413   -0.073546
      2          6           0       -1.486050    0.800150    0.402331
      3          6           0       -1.397525   -0.720629    0.533021
      4          6           0       -0.307737   -0.764461   -0.559287
      5          8           0        0.908810   -1.419434   -0.285124
      6          6           0        1.838563   -0.682674    0.469357
      7          8           0        2.102227    0.567563   -0.092025
      8          6           0        0.966704    1.409016    0.048528
      9          6           0       -0.305306    0.809769   -0.584618
     10          1           0       -3.500986   -0.060868    0.547912
     11          1           0       -2.814411   -0.181433   -1.137402
     12          1           0       -1.631969    1.546032    1.176182
     13          1           0       -1.445693   -1.356209    1.408628
     14          1           0       -0.664126   -1.219617   -1.488970
     15          1           0        1.487433   -0.560935    1.511850
     16          1           0        2.766671   -1.257576    0.452330
     17          1           0        0.796326    1.599797    1.120871
     18          1           0        1.227312    2.359652   -0.422138
     19          1           0       -0.492620    1.255579   -1.566787
 ---------------------------------------------------------------------

 SCF Done:  E(RB3LYP) =  -423.148106221     A.U. after    1 cycles

 The electronic state is 1-A.
 Alpha  occ. eigenvalues --  -19.14485 -19.14290 -10.27053 -10.23727 -10.23246
 Alpha  occ. eigenvalues --  -10.19687 -10.19347 -10.19229 -10.19164  -1.07332
 Alpha  occ. eigenvalues --   -1.00665  -0.89755  -0.76384  -0.69134  -0.67492
 Alpha  occ. eigenvalues --   -0.60303  -0.58846  -0.54122  -0.51844  -0.51350
 Alpha  occ. eigenvalues --   -0.47469  -0.46031  -0.45235  -0.43148  -0.41550
 Alpha  occ. eigenvalues --   -0.39763  -0.37196  -0.33970  -0.33202  -0.31557
 Alpha  occ. eigenvalues --   -0.30077  -0.26903  -0.25792  -0.25043
 Alpha virt. eigenvalues --    0.08232   0.09380   0.10334   0.10557   0.12220
 Alpha virt. eigenvalues --    0.13755   0.14553   0.15689   0.16170   0.16464
 Alpha virt. eigenvalues --    0.17368   0.18842   0.20205   0.21759   0.22341

 Mulliken charges:
               1
     1  C   -0.296111
     2  C   -0.044407
     3  C   -0.091206
     4  C    0.135517
     5  O   -0.258409
     6  C    0.006514
     7  O   -0.221309
     8  C   -0.102673
     9  C   -0.082214
    10  H    0.115485
    11  H    0.106876
    12  H    0.085966
    13  H    0.091045
    14  H    0.086372
    15  H    0.076097
    16  H    0.116298
    17  H    0.090829
    18  H    0.113712
    19  H    0.071617
 Sum of Mulliken charges =   0.00000

 Dipole moment (field-independent basis, Debye):
    X=             -1.4572    Y=              0.8793    Z=              0.9346  Tot=              1.9417
 Quadrupole moment (field-independent basis, Debye-Ang):
   XX=            -54.4744   YY=            -54.0061   ZZ=            -51.5489
   XY=             -0.5413   XZ=              1.4118   YZ=             -0.9090

  Exact polarizability:  85.043  -0.804  71.162   1.484  -0.783  65.492
 Approx polarizability: 111.944  -2.028 108.814   1.046  -0.558 101.211

                      1                      2                      3
                      A                      A                      A
 Frequencies --    103.9804               140.4670               307.2316
 Red. masses --      2.3570                 3.7212                 2.6174
 Frc consts  --      0.0150                 0.0433                 0.1456
 IR Inten    --      0.7748                 1.1035                 0.6610

                      4                      5                      6
                      A                      A                      A
 Frequencies --    329.7144               385.4650               432.7925
 Red. masses --      3.5128                 2.7426                 3.2891
 Frc consts  --      0.2250                 0.2401                 0.3630
 IR Inten    --      1.8436                 4.3181                 5.9906

                      7                      8                      9
                      A                      A                      A
 Frequencies --    516.8699               530.4581               684.0511
 Red. masses --      3.9215                 5.8069                 4.3180
 Frc consts  --      0.6173                 0.9627                 1.1904
 IR Inten    --      4.7107                 1.6976                 7.4893

                     10                     11                     12
                      A                      A                      A
 Frequencies --    751.8027               801.9021               825.9837
 Red. masses --      2.2166                 1.8534                 2.4269
 Frc consts  --      0.7382                 0.7022                 0.9755
 IR Inten    --      7.3003                14.8564                 2.0077

                     13                     14                     15
                      A                      A                      A
 Frequencies --    833.4091               917.2423               937.5223
 Red. masses --      1.9388                 2.8904                 2.1530
 Frc consts  --      0.7934                 1.4328                 1.1149
 IR Inten    --      8.7269                 1.8376                 4.3337

                     16                     17                     18
                      A                      A                      A
 Frequencies --    957.2547               981.9927              1004.4867
 Red. masses --      2.0167                 3.1549                 2.8058
 Frc consts  --      1.0888                 1.7925                 1.6680
 IR Inten    --     11.2490                16.6443                44.7729

                     19                     20                     21
                      A                      A                      A
 Frequencies --   1017.0353              1040.4458              1061.5925
 Red. masses --      1.6412                 1.9612                 1.3801
 Frc consts  --      1.0002                 1.2508                 0.9164
 IR Inten    --      7.3106                63.3378                 2.1040

                     22                     23                     24
                      A                      A                      A
 Frequencies --   1075.0360              1083.2001              1093.0826
 Red. masses --      1.5209                 3.4539                 1.7025
 Frc consts  --      1.0356                 2.3877                 1.1985
 IR Inten    --      3.0229                39.1785                 1.1063

                     25                     26                     27
                      A                      A                      A
 Frequencies --   1108.4884              1173.8474              1199.8080
 Red. masses --      2.3622                 2.4410                 2.0185
 Frc consts  --      1.7101                 1.9817                 1.7120
 IR Inten    --     12.8866                39.6420                 7.4628

                     28                     29                     30
                      A                      A                      A
 Frequencies --   1213.8557              1234.9566              1251.5374
 Red. masses --      2.3606                 1.7364                 1.3495
 Frc consts  --      2.0493                 1.5603                 1.2454
 IR Inten    --    131.2380                32.4657                 7.3519

                     31                     32                     33
                      A                      A                      A
 Frequencies --   1286.0434              1294.5190              1319.8779
 Red. masses --      1.2781                 1.5497                 1.6483
 Frc consts  --      1.2454                 1.5301                 1.6918
 IR Inten    --     26.3832                 9.8009                 1.3465

                     34                     35                     36
                      A                      A                      A
 Frequencies --   1337.9897              1360.6558              1396.9238
 Red. masses --      1.2395                 1.7762                 1.1784
 Frc consts  --      1.3074                 1.9375                 1.3548
 IR Inten    --      3.8347                 0.4814                 2.8851

                     37                     38                     39
                      A                      A                      A
 Frequencies --   1418.8172              1450.0780              1491.1705
 Red. masses --      1.2886                 1.2260                 1.2090
 Frc consts  --      1.5284                 1.5189                 1.5839
 IR Inten    --     24.1570                13.6535                 1.5201

                     40                     41                     42
                      A                      A                      A
 Frequencies --   1497.0236              1517.4295              2921.6407
 Red. masses --      1.0807                 1.1048                 1.0703
 Frc consts  --      1.4269                 1.4988                 5.3827
 IR Inten    --      2.6896                 3.3171                67.1105

                     43                     44                     45
                      A                      A                      A
 Frequencies --   2968.6863              3040.6524              3053.2387
 Red. masses --      1.0713                 1.0853                 1.0866
 Frc consts  --      5.5626                 5.9117                 5.9683
 IR Inten    --     51.6950                15.7125                56.7402

                     46                     47                     48
                      A                      A                      A
 Frequencies --   3098.2375              3098.9625              3109.9016
 Red. masses --      1.0709                 1.0796                 1.0934
 Frc consts  --      6.0567                 6.1085                 6.2307
 IR Inten    --     26.9786                40.0621                37.1734

                     49                     50                     51
                      A                      A                      A
 Frequencies --   3162.6189              3187.1907              3199.3066
 Red. masses --      1.0911                 1.0991                 1.1065
 Frc consts  --      6.4299                 6.5780                 6.6726
 IR Inten    --     18.6527                 4.4541                17.4720

 - Thermochemistry -
 -------------------
 Temperature   298.150 Kelvin.  Pressure   1.00000 Atm.
 Atom     1 has atomic number  6 and mass  12.00000

 Molecular mass:   126.06808 amu.
 Principal axes and moments of inertia in atomic units:
                           1         2         3
     Eigenvalues --   514.578971208.775151502.03194
           X            0.99995   0.00082   0.01042
           Y           -0.00074   0.99997  -0.00798
           Z           -0.01043   0.00797   0.99991
 This molecule is an asymmetric top.
 Rotational symmetry number  1.
 Warning -- assumption of classical behavior for rotation
           may cause significant error
 Rotational temperatures (Kelvin)      0.16832     0.07165     0.05766
 Rotational constants (GHZ):           3.50722     1.49303     1.20153
 Zero-point vibrational energy     425909.3 (Joules/Mol)
                                  101.79477 (Kcal/Mol)
 Warning -- explicit consideration of   8 degrees of freedom as
           vibrations may cause significant error
 Vibrational temperatures:    149.60   202.10   442.04   474.38   554.60
          (Kelvin)            622.69   743.66   763.21   984.20  1081.68
                             1153.76  1188.40  1199.09  1319.71  1348.88
                             1377.27  1412.87  1445.23  1463.29  1496.97
                             1527.39  1546.74  1558.48  1572.70  1594.87
                             1688.90  1726.25  1746.47  1776.82  1800.68
                             1850.33  1862.52  1899.01  1925.07  1957.68
                             2009.86  2041.36  2086.34  2145.46  2153.88
                             2183.24  4203.58  4271.27  4374.82  4392.92
                             4457.67  4458.71  4474.45  4550.30  4585.65
                             4603.08

 Zero-point correction=                           0.162220 (Hartree/Particle)
 Thermal correction to Energy=                    0.169265
 Thermal correction to Enthalpy=                  0.170210
 Thermal correction to Gibbs Free Energy=         0.130664
 Sum of electronic and zero-point Energies=           -422.985886
 Sum of electronic and thermal Energies=              -422.978841
 Sum of electronic and thermal Enthalpies=            -422.977897
 Sum of electronic and thermal Free Energies=         -423.017442

                     E (Thermal)             CV                S
                      KCal/Mol        Cal/Mol-Kelvin    Cal/Mol-Kelvin
 Total                  106.216             28.323             83.231
 Electronic               0.000              0.000              0.000
 Translational            0.889              2.981             40.409
 Rotational               0.889              2.981             28.326
 Vibrational            104.438             22.361             14.496
 Vibration     1          0.605              1.946              3.378
 Vibration     2          0.615              1.913              2.798
 Vibration     3          0.697              1.660              1.377
 Vibration     4          0.713              1.616              1.261
 Vibration     5          0.754              1.501              1.018
 Vibration     6          0.794              1.399              0.850
 Vibration     7          0.872              1.213              0.617
 Vibration     8          0.885              1.183              0.586

 Optimization completed.
    -- Stationary point found.
 Normal termination of Gaussian 09 at Mon Jan 27 12:05:30 2020.
