 Gaussian 09, Revision D.01,
 Gaussian 09:  ES64L-G09RevD.01 24-Apr-2013

 -----------------------------
 # b3lyp 6-31G(2df,p) opt Freq
 -----------------------------

 -----
 titel
 -----
 Symbolic Z-matrix:
 Charge =  0 Multiplicity = 1

 SCF Done:  E(RB3LYP) =  -423.151651968     A.U. after   14 cycles
 Optimization completed.
    -- Stationary point found.
 Normal termination of Gaussian 09 at Mon Jan 27 15:37:35 2020.

 ----------------------------------------------------------------------
 #N Geom=AllCheck Guess=TCheck SCRF=Check GenChk RB3LYP/6-31G(2df,p) Fr
 eq
 ----------------------------------------------------------------------

 Structure from the checkpoint file:  "/scratch/puck/g09_2a0e85f7-4ac9-408e-b6d1-7836ddb8d1fe/Gau-35271.chk"
 -----
 titel
 -----
 Charge =  0 Multiplicity = 1

                         Standard orientation:
 ---------------------------------------------------------------------
 Center     Atomic      Atomic             Coordinates (Angstroms)
 Number     Number       Type             X           Y           Z
 ---------------------------------------------------------------------
      1          6           0       -2.914891    0.496426   -0.377613
      2          6           0       -1.727995   -0.317055    0.123339
      3          6           0       -1.237661    0.153134    1.494246
      4          8           0       -0.723726   -0.208112   -0.892442
      5          6           0        0.362077   -1.087152   -0.774069
      6          6           0        1.576506   -0.525367   -0.025278
      7          8           0        2.349166   -1.248955    0.563821
      8          6           0        1.783310    0.909779   -0.115505
      9          6           0        1.995881    2.091724   -0.197463
     10          1           0       -3.756868    0.413948    0.315705
     11          1           0       -2.640754    1.552259   -0.466336
     12          1           0       -3.233856    0.140960   -1.360658
     13          1           0       -2.022794   -1.377158    0.197918
     14          1           0       -0.406624   -0.456506    1.861862
     15          1           0       -0.907465    1.194930    1.447569
     16          1           0       -2.047315    0.076099    2.227021
     17          1           0        0.094413   -2.040843   -0.299294
     18          1           0        0.709854   -1.311608   -1.792844
     19          1           0        2.184527    3.135527   -0.267914
 ---------------------------------------------------------------------

 SCF Done:  E(RB3LYP) =  -423.151651968     A.U. after    1 cycles

 The electronic state is 1-A.
 Alpha  occ. eigenvalues --  -19.14877 -19.14401 -10.29238 -10.24287 -10.24096
 Alpha  occ. eigenvalues --  -10.20722 -10.20027 -10.17885 -10.17751  -1.05650
 Alpha  occ. eigenvalues --   -1.03932  -0.79531  -0.77437  -0.72060  -0.69135
 Alpha  occ. eigenvalues --   -0.63564  -0.58947  -0.53838  -0.51477  -0.48486
 Alpha  occ. eigenvalues --   -0.47187  -0.45291  -0.44355  -0.41412  -0.39989
 Alpha  occ. eigenvalues --   -0.39157  -0.38225  -0.35925  -0.34853  -0.32070
 Alpha  occ. eigenvalues --   -0.29904  -0.29459  -0.28974  -0.24801
 Alpha virt. eigenvalues --   -0.06149   0.03319   0.08003   0.09976   0.10966
 Alpha virt. eigenvalues --    0.11464   0.12011   0.13935   0.15511   0.15989
 Alpha virt. eigenvalues --    0.16926   0.18069   0.18861   0.19840   0.21528

 Mulliken charges:
               1
     1  C   -0.388983
     2  C    0.149151
     3  C   -0.407223
     4  O   -0.245495
     5  C   -0.182207
     6  C    0.208243
     7  O   -0.281081
     8  C    0.309707
     9  C   -0.450793
    10  H    0.115085
    11  H    0.125599
    12  H    0.123664
    13  H    0.072210
    14  H    0.128790
    15  H    0.130267
    16  H    0.117763
    17  H    0.120980
    18  H    0.136940
    19  H    0.217386
 Sum of Mulliken charges =   0.00000

 Dipole moment (field-independent basis, Debye):
    X=             -1.9196    Y=              1.2920    Z=             -0.3746  Tot=              2.3440
 Quadrupole moment (field-independent basis, Debye-Ang):
   XX=            -56.7506   YY=            -48.0459   ZZ=            -54.2238
   XY=              6.3962   XZ=             -4.6714   YZ=              1.7400

  Exact polarizability:  80.951   2.664  90.657   0.586  -2.034  63.404
 Approx polarizability: 102.973  -0.033 155.551   3.092 -11.066  93.833

                      1                      2                      3
                      A                      A                      A
 Frequencies --     40.0205                44.0888                83.7779
 Red. masses --      4.7622                 2.8279                 4.2513
 Frc consts  --      0.0045                 0.0032                 0.0176
 IR Inten    --      4.2882                 0.3333                 0.7653

                      4                      5                      6
                      A                      A                      A
 Frequencies --    144.7668               217.0009               232.2797
 Red. masses --      4.2500                 1.0976                 3.8027
 Frc consts  --      0.0525                 0.0305                 0.1209
 IR Inten    --      2.5089                 0.1193                 1.3806

                      7                      8                      9
                      A                      A                      A
 Frequencies --    256.2786               267.0181               302.0603
 Red. masses --      1.1517                 3.1903                 3.0022
 Frc consts  --      0.0446                 0.1340                 0.1614
 IR Inten    --      1.0623                 3.3475                 7.5597

                     10                     11                     12
                      A                      A                      A
 Frequencies --    344.5703               405.8611               466.7452
 Red. masses --      2.5257                 2.7454                 2.6065
 Frc consts  --      0.1767                 0.2664                 0.3346
 IR Inten    --      1.7015                 4.0132                 2.3150

                     13                     14                     15
                      A                      A                      A
 Frequencies --    529.8038               573.8214               646.9684
 Red. masses --      4.2578                 3.6070                 1.2880
 Frc consts  --      0.7041                 0.6998                 0.3176
 IR Inten    --      3.7037                 7.1840                38.9743

                     16                     17                     18
                      A                      A                      A
 Frequencies --    686.3421               715.9948               727.1826
 Red. masses --      5.8987                 1.3793                 3.6817
 Frc consts  --      1.6371                 0.4166                 1.1471
 IR Inten    --     12.6619                26.7794                24.7918

                     19                     20                     21
                      A                      A                      A
 Frequencies --    806.3762               924.2814               929.3002
 Red. masses --      2.7464                 2.0191                 1.3497
 Frc consts  --      1.0522                 1.0163                 0.6867
 IR Inten    --     13.4576                13.9481                 3.8242

                     22                     23                     24
                      A                      A                      A
 Frequencies --    946.1128              1010.5883              1118.9170
 Red. masses --      1.4182                 2.4417                 3.4915
 Frc consts  --      0.7479                 1.4692                 2.5755
 IR Inten    --      0.4735                 8.5807                58.5978

                     25                     26                     27
                      A                      A                      A
 Frequencies --   1142.1162              1159.9183              1198.7415
 Red. masses --      2.1700                 2.3518                 2.6108
 Frc consts  --      1.6678                 1.8642                 2.2104
 IR Inten    --    118.3958                29.8393                70.0939

                     28                     29                     30
                      A                      A                      A
 Frequencies --   1203.2885              1285.5243              1359.1634
 Red. masses --      3.2456                 1.2172                 1.2246
 Frc consts  --      2.7688                 1.1851                 1.3328
 IR Inten    --     44.9700                51.7669                14.8459

                     31                     32                     33
                      A                      A                      A
 Frequencies --   1369.2437              1391.8723              1402.0344
 Red. masses --      1.3514                 1.2376                 1.3645
 Frc consts  --      1.4927                 1.4127                 1.5803
 IR Inten    --      4.5541                 5.6884                13.0743

                     34                     35                     36
                      A                      A                      A
 Frequencies --   1417.3427              1457.8204              1480.7899
 Red. masses --      1.2511                 1.0858                 1.0506
 Frc consts  --      1.4807                 1.3595                 1.3573
 IR Inten    --     13.4748                 5.2551                 0.9977

                     37                     38                     39
                      A                      A                      A
 Frequencies --   1485.5040              1496.2860              1511.0114
 Red. masses --      1.0492                 1.0530                 1.0541
 Frc consts  --      1.3642                 1.3890                 1.4180
 IR Inten    --      0.4418                 4.5623                 7.5939

                     40                     41                     42
                      A                      A                      A
 Frequencies --   1767.1585              2210.8322              2963.1982
 Red. masses --     12.4590                 5.9178                 1.0827
 Frc consts  --     22.9236                17.0422                 5.6010
 IR Inten    --    150.6064                65.2146                43.4104

                     43                     44                     45
                      A                      A                      A
 Frequencies --   3001.2451              3039.5275              3045.2705
 Red. masses --      1.0563                 1.0348                 1.0353
 Frc consts  --      5.6056                 5.6329                 5.6568
 IR Inten    --     28.4194                14.1214                 9.5982

                     46                     47                     48
                      A                      A                      A
 Frequencies --   3050.2198              3108.2649              3116.3903
 Red. masses --      1.1045                 1.1006                 1.1020
 Frc consts  --      6.0545                 6.2651                 6.3056
 IR Inten    --     15.1678                22.0471                13.0790

                     49                     50                     51
                      A                      A                      A
 Frequencies --   3122.9507              3125.4007              3494.7094
 Red. masses --      1.1019                 1.1022                 1.1618
 Frc consts  --      6.3317                 6.3434                 8.3600
 IR Inten    --     33.7380                21.7642                48.5481

 - Thermochemistry -
 -------------------
 Temperature   298.150 Kelvin.  Pressure   1.00000 Atm.
 Atom     1 has atomic number  6 and mass  12.00000

 Molecular mass:   126.06808 amu.
 Principal axes and moments of inertia in atomic units:
                           1         2         3
     Eigenvalues --   723.163991735.507501955.80989
           X            0.99990   0.00478  -0.01320
           Y           -0.00433   0.99941   0.03402
           Z            0.01336  -0.03396   0.99933
 This molecule is an asymmetric top.
 Rotational symmetry number  1.
 Warning -- assumption of classical behavior for rotation
           may cause significant error
 Rotational temperatures (Kelvin)      0.11977     0.04991     0.04429
 Rotational constants (GHZ):           2.49562     1.03989     0.92276
 Zero-point vibrational energy     405689.5 (Joules/Mol)
                                   96.96211 (Kcal/Mol)
 Warning -- explicit consideration of  14 degrees of freedom as
           vibrations may cause significant error
 Vibrational temperatures:     57.58    63.43   120.54   208.29   312.22
          (Kelvin)            334.20   368.73   384.18   434.60   495.76
                              583.94   671.54   762.27   825.60   930.84
                              987.49  1030.16  1046.25  1160.19  1329.83
                             1337.05  1361.24  1454.01  1609.87  1643.25
                             1668.86  1724.72  1731.26  1849.58  1955.53
                             1970.03  2002.59  2017.21  2039.24  2097.48
                             2130.52  2137.31  2152.82  2174.01  2542.54
                             3180.89  4263.38  4318.12  4373.20  4381.46
                             4388.58  4472.09  4483.78  4493.22  4496.75
                             5028.10

 Zero-point correction=                           0.154519 (Hartree/Particle)
 Thermal correction to Energy=                    0.165071
 Thermal correction to Enthalpy=                  0.166015
 Thermal correction to Gibbs Free Energy=         0.117823
 Sum of electronic and zero-point Energies=           -422.997133
 Sum of electronic and thermal Energies=              -422.986581
 Sum of electronic and thermal Enthalpies=            -422.985637
 Sum of electronic and thermal Free Energies=         -423.033829

                     E (Thermal)             CV                S
                      KCal/Mol        Cal/Mol-Kelvin    Cal/Mol-Kelvin
 Total                  103.584             37.223            101.428
 Electronic               0.000              0.000              0.000
 Translational            0.889              2.981             40.409
 Rotational               0.889              2.981             29.286
 Vibrational            101.806             31.261             31.734
 Vibration     1          0.594              1.981              5.258
 Vibration     2          0.595              1.980              5.066
 Vibration     3          0.601              1.960              3.800
 Vibration     4          0.616              1.908              2.740
 Vibration     5          0.646              1.815              1.984
 Vibration     6          0.653              1.792              1.861
 Vibration     7          0.666              1.752              1.687
 Vibration     8          0.672              1.734              1.615
 Vibration     9          0.694              1.670              1.405
 Vibration    10          0.723              1.586              1.191
 Vibration    11          0.771              1.457              0.941
 Vibration    12          0.824              1.324              0.747
 Vibration    13          0.885              1.184              0.588
 Vibration    14          0.930              1.088              0.497

 Optimization completed.
    -- Stationary point found.
 Normal termination of Gaussian 09 at Mon Jan 27 16:18:31 2020.
