 Gaussian 09, Revision D.01,
 Gaussian 09:  ES64L-G09RevD.01 24-Apr-2013

 -----------------------------
 # b3lyp 6-31G(2df,p) opt Freq
 -----------------------------

 -----
 titel
 -----
 Symbolic Z-matrix:
 Charge =  0 Multiplicity = 1

 SCF Done:  E(RB3LYP) =  -423.222988932     A.U. after   14 cycles
 Optimization completed.
    -- Stationary point found.
 Normal termination of Gaussian 09 at Tue Jan 28 14:08:42 2020.

 ----------------------------------------------------------------------
 #N Geom=AllCheck Guess=TCheck SCRF=Check GenChk RB3LYP/6-31G(2df,p) Fr
 eq
 ----------------------------------------------------------------------

 Structure from the checkpoint file:  "/scratch/puck/g09_9b6bc18c-55c4-4f63-a39b-d2761b26005e/Gau-71739.chk"
 -----
 titel
 -----
 Charge =  0 Multiplicity = 1

                         Standard orientation:
 ---------------------------------------------------------------------
 Center     Atomic      Atomic             Coordinates (Angstroms)
 Number     Number       Type             X           Y           Z
 ---------------------------------------------------------------------
      1          6           0        3.192148   -0.451609    0.219189
      2          6           0        1.737719   -0.195410   -0.012046
      3          6           0        0.797055   -1.096943   -0.316903
      4          6           0       -0.574004   -0.503595   -0.495808
      5          6           0       -1.702735   -1.091547    0.381658
      6          8           0       -2.946533   -0.497535    0.096348
      7          6           0       -0.340038    0.970838   -0.142251
      8          8           0       -1.212136    1.795002    0.010352
      9          6           0        1.158536    1.198734    0.065596
     10          1           0        3.811374    0.104589   -0.496108
     11          1           0        3.498588   -0.118818    1.218996
     12          1           0        3.432504   -1.513950    0.124297
     13          1           0        0.987836   -2.158796   -0.434344
     14          1           0       -0.926213   -0.565995   -1.536374
     15          1           0       -1.801209   -2.163824    0.179445
     16          1           0       -1.425240   -0.984099    1.443855
     17          1           0       -2.809799    0.459552    0.146964
     18          1           0        1.547573    1.867708   -0.715527
     19          1           0        1.341848    1.711082    1.018586
 ---------------------------------------------------------------------

 SCF Done:  E(RB3LYP) =  -423.222988932     A.U. after    1 cycles

 The electronic state is 1-A.
 Alpha  occ. eigenvalues --  -19.14684 -19.12146 -10.28029 -10.23004 -10.20472
 Alpha  occ. eigenvalues --  -10.20251 -10.19864 -10.19463 -10.18969  -1.05625
 Alpha  occ. eigenvalues --   -1.00645  -0.85994  -0.76664  -0.72778  -0.68151
 Alpha  occ. eigenvalues --   -0.63282  -0.54907  -0.53851  -0.50714  -0.48173
 Alpha  occ. eigenvalues --   -0.46177  -0.44076  -0.43745  -0.41936  -0.40565
 Alpha  occ. eigenvalues --   -0.40266  -0.39754  -0.38285  -0.36579  -0.36213
 Alpha  occ. eigenvalues --   -0.32473  -0.26575  -0.25165  -0.24575
 Alpha virt. eigenvalues --   -0.02924   0.00808   0.08823   0.11367   0.12397
 Alpha virt. eigenvalues --    0.12684   0.14256   0.14665   0.15476   0.16392
 Alpha virt. eigenvalues --    0.17093   0.17817   0.19642   0.21130   0.23783

 Mulliken charges:
               1
     1  C   -0.487027
     2  C    0.306657
     3  C   -0.187235
     4  C   -0.174282
     5  C   -0.055700
     6  O   -0.424745
     7  C    0.400252
     8  O   -0.331033
     9  C   -0.412274
    10  H    0.130011
    11  H    0.130677
    12  H    0.128385
    13  H    0.097173
    14  H    0.115380
    15  H    0.106601
    16  H    0.085604
    17  H    0.296103
    18  H    0.138397
    19  H    0.137055
 Sum of Mulliken charges =   0.00000

 Dipole moment (field-independent basis, Debye):
    X=              3.8198    Y=             -0.7262    Z=             -0.0917  Tot=              3.8893
 Quadrupole moment (field-independent basis, Debye-Ang):
   XX=            -59.0318   YY=            -54.1844   ZZ=            -52.2714
   XY=              0.9590   XZ=              0.2737   YZ=              0.1063

  Exact polarizability:  98.908   4.236  80.207   3.522   2.794  56.537
 Approx polarizability: 133.430   8.311 124.934   6.831   7.306  89.089

                      1                      2                      3
                      A                      A                      A
 Frequencies --     69.1894               115.7175               158.8421
 Red. masses --      3.5258                 3.1150                 3.4674
 Frc consts  --      0.0099                 0.0246                 0.0515
 IR Inten    --      0.6818                 1.7924                 5.6667

                      4                      5                      6
                      A                      A                      A
 Frequencies --    185.7565               223.5545               288.2911
 Red. masses --      1.1383                 2.4998                 3.0682
 Frc consts  --      0.0231                 0.0736                 0.1502
 IR Inten    --      0.1871                 0.7822                 1.8493

                      7                      8                      9
                      A                      A                      A
 Frequencies --    347.7739               383.5693               441.2197
 Red. masses --      3.3348                 4.6056                 1.9752
 Frc consts  --      0.2376                 0.3992                 0.2266
 IR Inten    --      8.4899                 1.0021                 1.8566

                     10                     11                     12
                      A                      A                      A
 Frequencies --    487.3338               544.5577               559.8512
 Red. masses --      3.5063                 1.7606                 2.0083
 Frc consts  --      0.4906                 0.3076                 0.3709
 IR Inten    --     12.3152                62.6125                51.7548

                     13                     14                     15
                      A                      A                      A
 Frequencies --    605.3191               709.8633               754.7213
 Red. masses --      2.5626                 4.1938                 2.7097
 Frc consts  --      0.5532                 1.2451                 0.9094
 IR Inten    --      2.8737                 6.3742                 5.6796

                     16                     17                     18
                      A                      A                      A
 Frequencies --    836.0686               885.6867               912.7461
 Red. masses --      1.4487                 3.3403                 1.5527
 Frc consts  --      0.5967                 1.5438                 0.7622
 IR Inten    --     11.3688                 2.4614                 3.2826

                     19                     20                     21
                      A                      A                      A
 Frequencies --    983.7216               996.4940              1028.4340
 Red. masses --      2.0237                 1.6559                 1.8007
 Frc consts  --      1.1538                 0.9688                 1.1221
 IR Inten    --     13.5005                 0.9520                 1.3544

                     22                     23                     24
                      A                      A                      A
 Frequencies --   1049.9504              1086.3848              1091.4248
 Red. masses --      1.6085                 3.3842                 2.4219
 Frc consts  --      1.0447                 2.3533                 1.6998
 IR Inten    --      0.7583                46.3530                80.9738

                     25                     26                     27
                      A                      A                      A
 Frequencies --   1137.9165              1159.1732              1186.5446
 Red. masses --      2.6322                 1.4510                 1.7868
 Frc consts  --      2.0081                 1.1487                 1.4822
 IR Inten    --     40.1036                 7.0758                 4.7223

                     28                     29                     30
                      A                      A                      A
 Frequencies --   1206.5006              1250.3153              1278.5147
 Red. masses --      1.3005                 1.3293                 1.8611
 Frc consts  --      1.1154                 1.2243                 1.7924
 IR Inten    --      6.7647                 2.3541                 0.8767

                     31                     32                     33
                      A                      A                      A
 Frequencies --   1315.4828              1348.9115              1379.1381
 Red. masses --      1.7785                 2.2937                 1.2600
 Frc consts  --      1.8133                 2.4590                 1.4120
 IR Inten    --     43.6255                 3.4024                 1.5095

                     34                     35                     36
                      A                      A                      A
 Frequencies --   1414.7218              1439.6425              1458.0038
 Red. masses --      1.3036                 1.0879                 1.2034
 Frc consts  --      1.5372                 1.3284                 1.5073
 IR Inten    --      0.7567                 4.6772               113.4905

                     37                     38                     39
                      A                      A                      A
 Frequencies --   1477.3949              1487.1332              1513.0894
 Red. masses --      1.0445                 1.0636                 1.0888
 Frc consts  --      1.3432                 1.3858                 1.4686
 IR Inten    --      7.0073                 6.1669                 0.5294

                     40                     41                     42
                      A                      A                      A
 Frequencies --   1711.7049              1820.9868              2961.3500
 Red. masses --      6.9976                12.2342                 1.0704
 Frc consts  --     12.0797                23.9022                 5.5308
 IR Inten    --      7.7509               184.5061                48.4525

                     43                     44                     45
                      A                      A                      A
 Frequencies --   3002.2452              3014.6250              3019.1580
 Red. masses --      1.0802                 1.0600                 1.0421
 Frc consts  --      5.7364                 5.6756                 5.5966
 IR Inten    --     20.9450                12.7726                29.5220

                     46                     47                     48
                      A                      A                      A
 Frequencies --   3051.8675              3062.5024              3065.2806
 Red. masses --      1.0951                 1.0925                 1.0984
 Frc consts  --      6.0094                 6.0370                 6.0808
 IR Inten    --      6.9824                36.0879                17.4211

                     49                     50                     51
                      A                      A                      A
 Frequencies --   3112.3800              3183.7967              3727.1495
 Red. masses --      1.0994                 1.0930                 1.0658
 Frc consts  --      6.2748                 6.5275                 8.7233
 IR Inten    --     17.5673                12.6837                70.6823

 - Thermochemistry -
 -------------------
 Temperature   298.150 Kelvin.  Pressure   1.00000 Atm.
 Atom     1 has atomic number  6 and mass  12.00000

 Molecular mass:   126.06808 amu.
 Principal axes and moments of inertia in atomic units:
                           1         2         3
     Eigenvalues --   547.527201633.664622074.33155
           X            0.99997   0.00707   0.00306
           Y           -0.00707   0.99997   0.00055
           Z           -0.00305  -0.00057   1.00000
 This molecule is an asymmetric top.
 Rotational symmetry number  1.
 Warning -- assumption of classical behavior for rotation
           may cause significant error
 Rotational temperatures (Kelvin)      0.15819     0.05302     0.04176
 Rotational constants (GHZ):           3.29617     1.10472     0.87004
 Zero-point vibrational energy     415893.7 (Joules/Mol)
                                   99.40098 (Kcal/Mol)
 Warning -- explicit consideration of  13 degrees of freedom as
           vibrations may cause significant error
 Vibrational temperatures:     99.55   166.49   228.54   267.26   321.64
          (Kelvin)            414.79   500.37   551.87   634.82   701.16
                              783.50   805.50   870.92  1021.33  1085.87
                             1202.91  1274.30  1313.24  1415.35  1433.73
                             1479.69  1510.64  1563.06  1570.31  1637.21
                             1667.79  1707.17  1735.88  1798.92  1839.50
                             1892.68  1940.78  1984.27  2035.47  2071.32
                             2097.74  2125.64  2139.65  2177.00  2462.76
                             2619.99  4260.72  4319.56  4337.37  4343.89
                             4390.95  4406.25  4410.25  4478.02  4580.77
                             5362.53

 Zero-point correction=                           0.158406 (Hartree/Particle)
 Thermal correction to Energy=                    0.167375
 Thermal correction to Enthalpy=                  0.168319
 Thermal correction to Gibbs Free Energy=         0.124540
 Sum of electronic and zero-point Energies=           -423.064583
 Sum of electronic and thermal Energies=              -423.055614
 Sum of electronic and thermal Enthalpies=            -423.054670
 Sum of electronic and thermal Free Energies=         -423.098449

                     E (Thermal)             CV                S
                      KCal/Mol        Cal/Mol-Kelvin    Cal/Mol-Kelvin
 Total                  105.029             33.497             92.141
 Electronic               0.000              0.000              0.000
 Translational            0.889              2.981             40.409
 Rotational               0.889              2.981             29.008
 Vibrational            103.252             27.535             22.725
 Vibration     1          0.598              1.969              4.176
 Vibration     2          0.608              1.936              3.171
 Vibration     3          0.621              1.893              2.564
 Vibration     4          0.632              1.859              2.270
 Vibration     5          0.649              1.805              1.930
 Vibration     6          0.685              1.695              1.484
 Vibration     7          0.725              1.580              1.176
 Vibration     8          0.753              1.505              1.025
 Vibration     9          0.801              1.380              0.823
 Vibration    10          0.843              1.278              0.691
 Vibration    11          0.900              1.152              0.556
 Vibration    12          0.915              1.118              0.524
 Vibration    13          0.964              1.021              0.441

 Normal termination of Gaussian 09 at Tue Jan 28 14:51:24 2020.
