 Gaussian 09, Revision D.01,
 Gaussian 09:  ES64L-G09RevD.01 24-Apr-2013

 -----------------------------
 # b3lyp 6-31G(2df,p) opt Freq
 -----------------------------

 -----
 titel
 -----
 Symbolic Z-matrix:
 Charge =  0 Multiplicity = 1

 SCF Done:  E(RB3LYP) =  -423.110770783     A.U. after   13 cycles
 Optimization completed.
    -- Stationary point found.
 Normal termination of Gaussian 09 at Tue Jan 28 09:15:21 2020.

 ----------------------------------------------------------------------
 #N Geom=AllCheck Guess=TCheck SCRF=Check GenChk RB3LYP/6-31G(2df,p) Fr
 eq
 ----------------------------------------------------------------------

 Structure from the checkpoint file:  "/scratch/puck/g09_c4d14750-a46c-4b1d-be20-ede955288b15/Gau-77073.chk"
 -----
 titel
 -----
 Charge =  0 Multiplicity = 1

                         Standard orientation:
 ---------------------------------------------------------------------
 Center     Atomic      Atomic             Coordinates (Angstroms)
 Number     Number       Type             X           Y           Z
 ---------------------------------------------------------------------
      1          6           0        2.553311    0.202367   -0.212611
      2          8           0        1.685868   -0.905108   -0.031192
      3          6           0        0.370105   -0.567807    0.068292
      4          6           0       -0.747662   -1.341974    0.681732
      5          6           0       -1.595199   -1.268901   -0.589745
      6          6           0       -0.737716   -0.032077   -0.967413
      7          6           0       -1.124918    1.029348    0.104720
      8          8           0       -0.509549    2.289710   -0.045370
      9          6           0       -0.465064    0.120205    1.137116
     10          1           0        2.500634    0.892612    0.641862
     11          1           0        3.567701   -0.194149   -0.288387
     12          1           0        2.315898    0.752289   -1.134139
     13          1           0       -0.664882   -2.149007    1.398809
     14          1           0       -1.406456   -2.124708   -1.243194
     15          1           0       -2.675394   -1.109256   -0.495094
     16          1           0       -0.590588    0.277546   -2.000128
     17          1           0       -2.196121    1.233389    0.205170
     18          1           0        0.443481    2.161064    0.024907
     19          1           0       -0.221969    0.336443    2.170158
 ---------------------------------------------------------------------

 SCF Done:  E(RB3LYP) =  -423.110770783     A.U. after    1 cycles

 The electronic state is 1-A.
 Alpha  occ. eigenvalues --  -19.16353 -19.13426 -10.24105 -10.23751 -10.23094
 Alpha  occ. eigenvalues --  -10.19377 -10.18935 -10.18862 -10.18652  -1.05754
 Alpha  occ. eigenvalues --   -1.01925  -0.91923  -0.72475  -0.71023  -0.69273
 Alpha  occ. eigenvalues --   -0.62016  -0.56291  -0.54232  -0.51996  -0.48492
 Alpha  occ. eigenvalues --   -0.46999  -0.46571  -0.44779  -0.43778  -0.40079
 Alpha  occ. eigenvalues --   -0.37691  -0.36672  -0.34791  -0.34004  -0.33333
 Alpha  occ. eigenvalues --   -0.30889  -0.25669  -0.25295  -0.23492
 Alpha virt. eigenvalues --    0.06208   0.10432   0.10748   0.11153   0.12148
 Alpha virt. eigenvalues --    0.13623   0.14069   0.14396   0.15898   0.16376
 Alpha virt. eigenvalues --    0.17087   0.18003   0.18838   0.21213   0.22216

 Mulliken charges:
               1
     1  C   -0.266051
     2  O   -0.271789
     3  C    0.403279
     4  C   -0.142499
     5  C   -0.238253
     6  C   -0.180679
     7  C    0.168555
     8  O   -0.445671
     9  C   -0.207075
    10  H    0.112670
    11  H    0.134114
    12  H    0.119176
    13  H    0.094327
    14  H    0.106373
    15  H    0.092466
    16  H    0.076454
    17  H    0.081253
    18  H    0.272484
    19  H    0.090866
 Sum of Mulliken charges =   0.00000

 Dipole moment (field-independent basis, Debye):
    X=              1.0599    Y=             -0.4534    Z=              0.1093  Tot=              1.1580
 Quadrupole moment (field-independent basis, Debye-Ang):
   XX=            -49.6589   YY=            -58.7402   ZZ=            -51.8635
   XY=              5.4145   XZ=             -0.1538   YZ=              0.0438

  Exact polarizability:  83.531   4.398  74.476   0.620   0.106  67.668
 Approx polarizability: 115.838   2.654 111.755  -0.960   0.070 103.666

                      1                      2                      3
                      A                      A                      A
 Frequencies --     99.8467               126.7580               185.4095
 Red. masses --      2.7451                 4.0649                 1.0770
 Frc consts  --      0.0161                 0.0385                 0.0218
 IR Inten    --      2.3927                 2.0807                 2.2373

                      4                      5                      6
                      A                      A                      A
 Frequencies --    245.5242               278.2392               328.6010
 Red. masses --      2.9516                 1.2019                 2.7651
 Frc consts  --      0.1048                 0.0548                 0.1759
 IR Inten    --      5.9416                36.9723                 9.2446

                      7                      8                      9
                      A                      A                      A
 Frequencies --    360.0607               400.0616               499.1209
 Red. masses --      3.6634                 3.1097                 2.7552
 Frc consts  --      0.2798                 0.2932                 0.4044
 IR Inten    --     17.0755                 1.8512                 1.3223

                     10                     11                     12
                      A                      A                      A
 Frequencies --    514.9853               603.0403               726.8826
 Red. masses --      4.3488                 3.7077                 3.4524
 Frc consts  --      0.6795                 0.7944                 1.0747
 IR Inten    --      1.6840                13.8559                 3.8262

                     13                     14                     15
                      A                      A                      A
 Frequencies --    783.4888               840.4087               851.5268
 Red. masses --      3.4442                 2.7338                 1.6098
 Frc consts  --      1.2457                 1.1376                 0.6877
 IR Inten    --      2.0066                 8.1071                 7.5982

                     16                     17                     18
                      A                      A                      A
 Frequencies --    910.6277               934.8714               952.7733
 Red. masses --      2.3414                 2.3461                 1.5455
 Frc consts  --      1.1440                 1.2081                 0.8266
 IR Inten    --      4.9749                 6.6416                 4.6540

                     19                     20                     21
                      A                      A                      A
 Frequencies --    978.9168              1000.2673              1022.2954
 Red. masses --      1.5827                 1.8147                 2.5085
 Frc consts  --      0.8936                 1.0698                 1.5446
 IR Inten    --      8.6394                14.1010                13.2321

                     22                     23                     24
                      A                      A                      A
 Frequencies --   1043.6546              1056.7721              1089.9829
 Red. masses --      2.3725                 3.0109                 2.6328
 Frc consts  --      1.5225                 1.9811                 1.8429
 IR Inten    --     45.3518                44.3663                18.1947

                     25                     26                     27
                      A                      A                      A
 Frequencies --   1107.5510              1133.6989              1144.4846
 Red. masses --      2.2689                 1.4258                 1.9727
 Frc consts  --      1.6398                 1.0797                 1.5224
 IR Inten    --     18.2326                31.1024                10.0273

                     28                     29                     30
                      A                      A                      A
 Frequencies --   1179.2782              1192.1936              1216.9353
 Red. masses --      1.2799                 1.7104                 1.6126
 Frc consts  --      1.0488                 1.4323                 1.4071
 IR Inten    --      2.1334                10.0074                29.0090

                     31                     32                     33
                      A                      A                      A
 Frequencies --   1234.9875              1243.8434              1280.7522
 Red. masses --      1.6372                 1.7612                 1.5633
 Frc consts  --      1.4712                 1.6054                 1.5109
 IR Inten    --     18.0148                16.1075                15.8576

                     34                     35                     36
                      A                      A                      A
 Frequencies --   1290.8749              1300.6193              1423.6971
 Red. masses --      1.7180                 1.7509                 1.7203
 Frc consts  --      1.6867                 1.7451                 2.0545
 IR Inten    --     22.8254                 5.5282                90.1723

                     37                     38                     39
                      A                      A                      A
 Frequencies --   1437.1342              1489.1639              1494.2985
 Red. masses --      1.4548                 1.0493                 1.2201
 Frc consts  --      1.7703                 1.3710                 1.6052
 IR Inten    --     80.2430                 5.8183                13.1019

                     40                     41                     42
                      A                      A                      A
 Frequencies --   1506.2594              1511.0383              2987.7215
 Red. masses --      1.1068                 1.4883                 1.0357
 Frc consts  --      1.4796                 2.0021                 5.4470
 IR Inten    --     36.7691                17.8380                43.6076

                     43                     44                     45
                      A                      A                      A
 Frequencies --   3034.4890              3043.5740              3058.9987
 Red. masses --      1.0614                 1.1040                 1.0843
 Frc consts  --      5.7584                 6.0252                 5.9782
 IR Inten    --     43.7408                37.9716                62.6826

                     46                     47                     48
                      A                      A                      A
 Frequencies --   3099.0860              3127.5326              3141.8202
 Red. masses --      1.1043                 1.0974                 1.0914
 Frc consts  --      6.2488                 6.3243                 6.3477
 IR Inten    --     26.5891                26.3337                21.7614

                     49                     50                     51
                      A                      A                      A
 Frequencies --   3191.8193              3201.0773              3791.3795
 Red. masses --      1.0920                 1.0944                 1.0650
 Frc consts  --      6.5547                 6.6075                 9.0201
 IR Inten    --      4.3734                16.7538                10.1391

 - Thermochemistry -
 -------------------
 Temperature   298.150 Kelvin.  Pressure   1.00000 Atm.
 Atom     1 has atomic number  6 and mass  12.00000

 Molecular mass:   126.06808 amu.
 Principal axes and moments of inertia in atomic units:
                           1         2         3
     Eigenvalues --   799.357131012.792711443.16510
           X            0.98938   0.14536   0.00210
           Y           -0.14536   0.98937   0.00374
           Z           -0.00153  -0.00401   0.99999
 This molecule is an asymmetric top.
 Rotational symmetry number  1.
 Warning -- assumption of classical behavior for rotation
           may cause significant error
 Rotational temperatures (Kelvin)      0.10835     0.08552     0.06002
 Rotational constants (GHZ):           2.25774     1.78195     1.25054
 Zero-point vibrational energy     416889.2 (Joules/Mol)
                                   99.63890 (Kcal/Mol)
 Warning -- explicit consideration of  11 degrees of freedom as
           vibrations may cause significant error
 Vibrational temperatures:    143.66   182.38   266.76   353.25   400.32
          (Kelvin)            472.78   518.05   575.60   718.12   740.95
                              867.64  1045.82  1127.26  1209.16  1225.16
                             1310.19  1345.07  1370.83  1408.44  1439.16
                             1470.85  1501.58  1520.46  1568.24  1593.52
                             1631.14  1646.66  1696.72  1715.30  1750.90
                             1776.87  1789.61  1842.71  1857.28  1871.30
                             2048.38  2067.71  2142.57  2149.96  2167.17
                             2174.04  4298.66  4365.95  4379.02  4401.21
                             4458.89  4499.82  4520.37  4592.31  4605.63
                             5454.94

 Zero-point correction=                           0.158785 (Hartree/Particle)
 Thermal correction to Energy=                    0.167076
 Thermal correction to Enthalpy=                  0.168020
 Thermal correction to Gibbs Free Energy=         0.126064
 Sum of electronic and zero-point Energies=           -422.951986
 Sum of electronic and thermal Energies=              -422.943695
 Sum of electronic and thermal Enthalpies=            -422.942751
 Sum of electronic and thermal Free Energies=         -422.984707

                     E (Thermal)             CV                S
                      KCal/Mol        Cal/Mol-Kelvin    Cal/Mol-Kelvin
 Total                  104.842             32.077             88.304
 Electronic               0.000              0.000              0.000
 Translational            0.889              2.981             40.409
 Rotational               0.889              2.981             28.548
 Vibrational            103.064             26.115             19.347
 Vibration     1          0.604              1.949              3.457
 Vibration     2          0.611              1.926              2.995
 Vibration     3          0.631              1.860              2.273
 Vibration     4          0.660              1.770              1.762
 Vibration     5          0.679              1.714              1.544
 Vibration     6          0.712              1.618              1.267
 Vibration     7          0.735              1.555              1.122
 Vibration     8          0.766              1.470              0.962
 Vibration     9          0.855              1.252              0.660
 Vibration    10          0.870              1.217              0.622
 Vibration    11          0.961              1.025              0.444

 Normal termination of Gaussian 09 at Tue Jan 28 10:02:36 2020.
