 Gaussian 09, Revision D.01,
 Gaussian 09:  ES64L-G09RevD.01 24-Apr-2013

 -----------------------------
 # b3lyp 6-31G(2df,p) opt Freq
 -----------------------------

 -----
 titel
 -----
 Symbolic Z-matrix:
 Charge =  0 Multiplicity = 1

 SCF Done:  E(RB3LYP) =  -423.128719297     A.U. after   14 cycles
 SCF Done:  E(RB3LYP) =  -423.128719447     A.U. after    8 cycles
 SCF Done:  E(RB3LYP) =  -423.128719710     A.U. after    8 cycles
 SCF Done:  E(RB3LYP) =  -423.128719861     A.U. after    7 cycles
 SCF Done:  E(RB3LYP) =  -423.128719936     A.U. after    7 cycles
 SCF Done:  E(RB3LYP) =  -423.128720038     A.U. after    7 cycles
 Optimization completed.
    -- Stationary point found.
 Normal termination of Gaussian 09 at Mon Jan 27 14:16:26 2020.

 ----------------------------------------------------------------------
 #N Geom=AllCheck Guess=TCheck SCRF=Check GenChk RB3LYP/6-31G(2df,p) Fr
 eq
 ----------------------------------------------------------------------

 Structure from the checkpoint file:  "/scratch/puck/g09_debc0148-e291-4943-92c1-988abdca3c08/Gau-170732.chk"
 -----
 titel
 -----
 Charge =  0 Multiplicity = 1

                         Standard orientation:
 ---------------------------------------------------------------------
 Center     Atomic      Atomic             Coordinates (Angstroms)
 Number     Number       Type             X           Y           Z
 ---------------------------------------------------------------------
      1          6           0        4.176643   -0.780171   -0.059532
      2          6           0        2.808009   -0.308401    0.092383
      3          6           0        1.678671    0.085366    0.236639
      4          6           0        0.302767    0.572076    0.350668
      5          8           0        0.179860    1.927986   -0.086107
      6          6           0       -0.683817   -0.347988   -0.398043
      7          6           0       -2.114477    0.107253   -0.234279
      8          6           0       -2.999922   -0.471501    0.785338
      9          8           0       -3.126342   -0.837279   -0.589962
     10          1           0        4.874290    0.058385   -0.160379
     11          1           0        4.489661   -1.367467    0.810594
     12          1           0        4.286354   -1.414109   -0.946058
     13          1           0        0.014626    0.599984    1.409423
     14          1           0        0.653935    2.001448   -0.921904
     15          1           0       -0.415979   -0.357652   -1.462217
     16          1           0       -0.579111   -1.374759   -0.032128
     17          1           0       -2.316420    1.125825   -0.561968
     18          1           0       -2.621596   -1.254276    1.442529
     19          1           0       -3.821148    0.117157    1.191605
 ---------------------------------------------------------------------

 SCF Done:  E(RB3LYP) =  -423.128720038     A.U. after    1 cycles

 The electronic state is 1-A.
 Alpha  occ. eigenvalues --  -19.14563 -19.14316 -10.25832 -10.23346 -10.22995
 Alpha  occ. eigenvalues --  -10.21028 -10.18966 -10.18489 -10.17352  -1.06561
 Alpha  occ. eigenvalues --   -1.02553  -0.79502  -0.77184  -0.71385  -0.66283
 Alpha  occ. eigenvalues --   -0.64969  -0.58961  -0.53564  -0.50676  -0.47093
 Alpha  occ. eigenvalues --   -0.46306  -0.45483  -0.44093  -0.43242  -0.43179
 Alpha  occ. eigenvalues --   -0.38574  -0.37920  -0.37573  -0.34669  -0.30105
 Alpha  occ. eigenvalues --   -0.28748  -0.26636  -0.26102  -0.25114
 Alpha virt. eigenvalues --    0.03308   0.05246   0.09102   0.10512   0.10543
 Alpha virt. eigenvalues --    0.11499   0.12147   0.13670   0.14976   0.15744
 Alpha virt. eigenvalues --    0.16941   0.17580   0.18457   0.19102   0.21003

 Mulliken charges:
               1
     1  C   -0.500344
     2  C    0.110882
     3  C    0.023066
     4  C   -0.061484
     5  O   -0.422519
     6  C   -0.234817
     7  C    0.095320
     8  C   -0.177056
     9  O   -0.242881
    10  H    0.152929
    11  H    0.153538
    12  H    0.150652
    13  H    0.115714
    14  H    0.283762
    15  H    0.106009
    16  H    0.114827
    17  H    0.106274
    18  H    0.110086
    19  H    0.116040
 Sum of Mulliken charges =   0.00000

 Dipole moment (field-independent basis, Debye):
    X=              2.3925    Y=             -0.2739    Z=              0.2868  Tot=              2.4251
 Quadrupole moment (field-independent basis, Debye-Ang):
   XX=            -49.3216   YY=            -55.8008   ZZ=            -51.0830
   XY=             -4.4843   XZ=             -6.2354   YZ=             -3.9625

  Exact polarizability: 113.230  -8.725  66.773  -7.087  -2.668  63.351
 Approx polarizability: 145.530 -14.924 100.857  -9.889  -1.843  97.825

                      1                      2                      3
                      A                      A                      A
 Frequencies --      2.6187                56.1990                76.7462
 Red. masses --      1.0256                 3.0569                 3.5195
 Frc consts  --      0.0000                 0.0057                 0.0122
 IR Inten    --      0.0068                 1.8398                 1.8314

                      4                      5                      6
                      A                      A                      A
 Frequencies --     78.7770               153.6493               188.0417
 Red. masses --      4.1029                 3.8772                 4.6912
 Frc consts  --      0.0150                 0.0539                 0.0977
 IR Inten    --      1.9085                 0.7010                 5.7603

                      7                      8                      9
                      A                      A                      A
 Frequencies --    275.4126               289.2990               339.5324
 Red. masses --      1.3777                 2.6347                 3.2704
 Frc consts  --      0.0616                 0.1299                 0.2221
 IR Inten    --     58.6965                36.2485                24.9168

                     10                     11                     12
                      A                      A                      A
 Frequencies --    355.5694               399.9014               427.3093
 Red. masses --      4.6388                 2.2876                 4.2158
 Frc consts  --      0.3455                 0.2155                 0.4535
 IR Inten    --      1.7800                 0.2014                 9.9519

                     13                     14                     15
                      A                      A                      A
 Frequencies --    548.6704               555.6674               768.5763
 Red. masses --      2.7923                 6.5636                 4.1990
 Frc consts  --      0.4953                 1.1941                 1.4614
 IR Inten    --     16.5789                 9.3703                20.3085

                     16                     17                     18
                      A                      A                      A
 Frequencies --    844.4096               866.9387               876.5292
 Red. masses --      3.0502                 1.7439                 5.2955
 Frc consts  --      1.2814                 0.7722                 2.3971
 IR Inten    --     29.8424                 6.8434                 9.9192

                     19                     20                     21
                      A                      A                      A
 Frequencies --    939.8234              1008.1671              1051.5242
 Red. masses --      1.8174                 2.4646                 1.4107
 Frc consts  --      0.9458                 1.4759                 0.9190
 IR Inten    --     15.9844                27.3493                 0.9489

                     22                     23                     24
                      A                      A                      A
 Frequencies --   1054.2932              1069.0360              1090.5395
 Red. masses --      1.4425                 3.1830                 1.7505
 Frc consts  --      0.9447                 2.1433                 1.2266
 IR Inten    --      4.8343                80.4040                 3.8061

                     25                     26                     27
                      A                      A                      A
 Frequencies --   1115.8074              1154.2625              1167.5559
 Red. masses --      1.6255                 1.3524                 2.2939
 Frc consts  --      1.1924                 1.0616                 1.8424
 IR Inten    --     13.8296                 3.1352                16.2496

                     28                     29                     30
                      A                      A                      A
 Frequencies --   1183.5914              1209.8898              1271.5270
 Red. masses --      1.5663                 1.3686                 1.3303
 Frc consts  --      1.2928                 1.1804                 1.2672
 IR Inten    --      2.6703                 9.3075                 6.7087

                     31                     32                     33
                      A                      A                      A
 Frequencies --   1289.1903              1295.5847              1366.6597
 Red. masses --      1.3800                 1.4822                 1.3615
 Frc consts  --      1.3513                 1.4659                 1.4982
 IR Inten    --     10.3971                 5.3793                 2.6591

                     34                     35                     36
                      A                      A                      A
 Frequencies --   1413.2153              1419.5959              1440.6339
 Red. masses --      1.2705                 1.2439                 1.6825
 Frc consts  --      1.4950                 1.4770                 2.0574
 IR Inten    --     26.2710                50.3964                26.9508

                     37                     38                     39
                      A                      A                      A
 Frequencies --   1476.3666              1477.9280              1478.4550
 Red. masses --      1.0418                 1.0661                 1.0896
 Frc consts  --      1.3379                 1.3720                 1.4032
 IR Inten    --      6.7664                 4.2197                 2.1722

                     40                     41                     42
                      A                      A                      A
 Frequencies --   1528.0319              2366.8400              3024.3137
 Red. masses --      1.3580                11.8689                 1.0756
 Frc consts  --      1.8682                39.1741                 5.7965
 IR Inten    --      3.8412                13.4539                 1.6480

                     43                     44                     45
                      A                      A                      A
 Frequencies --   3029.3758              3036.7860              3079.0684
 Red. masses --      1.0347                 1.0696                 1.0515
 Frc consts  --      5.5949                 5.8115                 5.8735
 IR Inten    --     27.4210                32.8469                19.8620

                     46                     47                     48
                      A                      A                      A
 Frequencies --   3085.2201              3091.4463              3091.6914
 Red. masses --      1.0979                 1.1004                 1.1000
 Frc consts  --      6.1575                 6.1964                 6.1950
 IR Inten    --     20.0641                 9.1690                 8.0891

                     49                     50                     51
                      A                      A                      A
 Frequencies --   3129.7405              3166.4047              3806.0162
 Red. masses --      1.0893                 1.1185                 1.0661
 Frc consts  --      6.2865                 6.6072                 9.0992
 IR Inten    --     14.2264                33.3500                22.2153

 - Thermochemistry -
 -------------------
 Temperature   298.150 Kelvin.  Pressure   1.00000 Atm.
 Atom     1 has atomic number  6 and mass  12.00000

 Molecular mass:   126.06808 amu.
 Principal axes and moments of inertia in atomic units:
                           1         2         3
     Eigenvalues --   459.715462792.664903050.85917
           X            0.99983  -0.01479  -0.01071
           Y            0.01443   0.99934  -0.03320
           Z            0.01119   0.03304   0.99939
 This molecule is an asymmetric top.
 Rotational symmetry number  1.
 Warning -- assumption of classical behavior for rotation
           may cause significant error
 Rotational temperatures (Kelvin)      0.18841     0.03101     0.02839
 Rotational constants (GHZ):           3.92578     0.64624     0.59155
 Zero-point vibrational energy     409795.3 (Joules/Mol)
                                   97.94343 (Kcal/Mol)
 Warning -- explicit consideration of  14 degrees of freedom as
           vibrations may cause significant error
 Vibrational temperatures:      3.77    80.86   110.42   113.34   221.07
          (Kelvin)            270.55   396.26   416.24   488.51   511.58
                              575.37   614.80   789.41   799.48  1105.81
                             1214.92  1247.33  1261.13  1352.19  1450.53
                             1512.91  1516.89  1538.10  1569.04  1605.40
                             1660.72  1679.85  1702.92  1740.76  1829.44
                             1854.85  1864.06  1966.32  2033.30  2042.48
                             2072.75  2124.16  2126.41  2127.16  2198.49
                             3405.35  4351.31  4358.59  4369.25  4430.09
                             4438.94  4447.90  4448.25  4502.99  4555.74
                             5476.00

 Zero-point correction=                           0.156083 (Hartree/Particle)
 Thermal correction to Energy=                    0.166684
 Thermal correction to Enthalpy=                  0.167629
 Thermal correction to Gibbs Free Energy=         0.116241
 Sum of electronic and zero-point Energies=           -422.972637
 Sum of electronic and thermal Energies=              -422.962036
 Sum of electronic and thermal Enthalpies=            -422.961091
 Sum of electronic and thermal Free Energies=         -423.012479

                     E (Thermal)             CV                S
                      KCal/Mol        Cal/Mol-Kelvin    Cal/Mol-Kelvin
 Total                  104.596             36.089            108.154
 Electronic               0.000              0.000              0.000
 Translational            0.889              2.981             40.409
 Rotational               0.889              2.981             29.750
 Vibrational            102.819             30.127             37.996
 Vibration     1          0.592              1.987             10.674
 Vibration     2          0.596              1.975              4.586
 Vibration     3          0.599              1.965              3.972
 Vibration     4          0.600              1.963              3.921
 Vibration     5          0.619              1.899              2.627
 Vibration     6          0.633              1.856              2.247
 Vibration     7          0.677              1.719              1.562
 Vibration     8          0.686              1.694              1.478
 Vibration     9          0.719              1.597              1.214
 Vibration    10          0.731              1.564              1.141
 Vibration    11          0.766              1.470              0.963
 Vibration    12          0.789              1.411              0.867
 Vibration    13          0.904              1.143              0.547
 Vibration    14          0.911              1.127              0.533

 Normal termination of Gaussian 09 at Mon Jan 27 14:49:52 2020.
