 Gaussian 09, Revision D.01,
 Gaussian 09:  ES64L-G09RevD.01 24-Apr-2013

 -----------------------------
 # b3lyp 6-31G(2df,p) opt Freq
 -----------------------------

 -----
 titel
 -----
 Symbolic Z-matrix:
 Charge =  0 Multiplicity = 1

 SCF Done:  E(RB3LYP) =  -423.153341416     A.U. after   12 cycles
 Optimization completed.
    -- Stationary point found.
 Normal termination of Gaussian 09 at Mon Jan 27 18:54:12 2020.

 ----------------------------------------------------------------------
 #N Geom=AllCheck Guess=TCheck SCRF=Check GenChk RB3LYP/6-31G(2df,p) Fr
 eq
 ----------------------------------------------------------------------

 Structure from the checkpoint file:  "/scratch/puck/g09_0c7b161d-122e-40d3-940a-37cd4107adfb/Gau-64543.chk"
 -----
 titel
 -----
 Charge =  0 Multiplicity = 1

                         Standard orientation:
 ---------------------------------------------------------------------
 Center     Atomic      Atomic             Coordinates (Angstroms)
 Number     Number       Type             X           Y           Z
 ---------------------------------------------------------------------
      1          6           0        1.577814   -1.502633   -0.783508
      2          6           0        0.479577   -0.714455   -0.142713
      3          6           0        0.226862   -0.210931    1.250431
      4          8           0       -1.135826   -0.631052    1.289134
      5          6           0       -1.051162   -0.947292   -0.144949
      6          6           0       -1.675941    0.210359   -0.919330
      7          6           0       -0.802273    1.424896   -0.496803
      8          6           0        0.445416    0.781733    0.113965
      9          8           0        1.672890    1.440012    0.064577
     10          1           0        1.601140   -2.536564   -0.422491
     11          1           0        1.464674   -1.529543   -1.873934
     12          1           0        2.544375   -1.039910   -0.564787
     13          1           0        0.814437   -0.243692    2.162562
     14          1           0       -1.439052   -1.946335   -0.355346
     15          1           0       -1.598215    0.019808   -1.996283
     16          1           0       -2.733572    0.336113   -0.672777
     17          1           0       -0.512123    2.045763   -1.348961
     18          1           0       -1.325503    2.064792    0.220972
     19          1           0        1.685574    2.107837    0.758801
 ---------------------------------------------------------------------

 SCF Done:  E(RB3LYP) =  -423.153341416     A.U. after    1 cycles

 The electronic state is 1-A.
 Alpha  occ. eigenvalues --  -19.15028 -19.13037 -10.23361 -10.23355 -10.22888
 Alpha  occ. eigenvalues --  -10.18963 -10.18259 -10.18021 -10.18000  -1.05295
 Alpha  occ. eigenvalues --   -1.02781  -0.83817  -0.76994  -0.72255  -0.67677
 Alpha  occ. eigenvalues --   -0.61026  -0.57280  -0.53214  -0.51042  -0.48614
 Alpha  occ. eigenvalues --   -0.44790  -0.43560  -0.43115  -0.41005  -0.39964
 Alpha  occ. eigenvalues --   -0.38768  -0.37823  -0.36170  -0.34498  -0.32870
 Alpha  occ. eigenvalues --   -0.29973  -0.29311  -0.25128  -0.21475
 Alpha virt. eigenvalues --    0.06886   0.08949   0.10106   0.12003   0.13434
 Alpha virt. eigenvalues --    0.13904   0.14388   0.14973   0.15986   0.17037
 Alpha virt. eigenvalues --    0.18451   0.19319   0.21542   0.21574   0.23370

 Mulliken charges:
               1
     1  C   -0.521555
     2  C    0.228449
     3  C   -0.022652
     4  O   -0.314665
     5  C    0.037950
     6  C   -0.212431
     7  C   -0.285983
     8  C    0.306540
     9  O   -0.475779
    10  H    0.120346
    11  H    0.118985
    12  H    0.139779
    13  H    0.098591
    14  H    0.079374
    15  H    0.099690
    16  H    0.108044
    17  H    0.105434
    18  H    0.103119
    19  H    0.286764
 Sum of Mulliken charges =   0.00000

 Dipole moment (field-independent basis, Debye):
    X=              0.4034    Y=              0.5349    Z=             -0.4228  Tot=              0.7923
 Quadrupole moment (field-independent basis, Debye-Ang):
   XX=            -54.9976   YY=            -49.6136   ZZ=            -52.8271
   XY=             -0.2149   XZ=              5.2038   YZ=              3.9968

  Exact polarizability:  76.092  -0.385  75.886   3.075   2.559  70.046
 Approx polarizability: 106.531   3.840 107.780   0.423   3.806 109.365

                      1                      2                      3
                      A                      A                      A
 Frequencies --    184.2620               187.5664               195.6218
 Red. masses --      1.2930                 1.8456                 1.8620
 Frc consts  --      0.0259                 0.0383                 0.0420
 IR Inten    --      0.1597                 1.3543                 0.4904

                      4                      5                      6
                      A                      A                      A
 Frequencies --    207.5504               285.9053               365.9049
 Red. masses --      2.9800                 1.1644                 4.0052
 Frc consts  --      0.0756                 0.0561                 0.3159
 IR Inten    --      2.6308                76.1021                19.3645

                      7                      8                      9
                      A                      A                      A
 Frequencies --    373.5208               394.5750               498.7601
 Red. masses --      3.9841                 2.5176                 2.9632
 Frc consts  --      0.3275                 0.2309                 0.4343
 IR Inten    --      3.1851                11.1211                 0.8611

                     10                     11                     12
                      A                      A                      A
 Frequencies --    570.8821               655.2926               670.3046
 Red. masses --      6.1174                 4.2161                 3.2544
 Frc consts  --      1.1746                 1.0667                 0.8615
 IR Inten    --      3.8200                 0.5929                 4.5797

                     13                     14                     15
                      A                      A                      A
 Frequencies --    748.5930               762.4949               830.2634
 Red. masses --      3.6668                 3.6029                 1.8687
 Frc consts  --      1.2107                 1.2342                 0.7590
 IR Inten    --      9.5285                 1.8386                 2.8481

                     16                     17                     18
                      A                      A                      A
 Frequencies --    875.3124               905.3896               920.1584
 Red. masses --      2.1309                 2.1132                 2.3816
 Frc consts  --      0.9619                 1.0206                 1.1881
 IR Inten    --     19.5774                 4.6696                13.1503

                     19                     20                     21
                      A                      A                      A
 Frequencies --    959.6606               991.0961              1016.3591
 Red. masses --      1.6426                 2.2221                 1.8138
 Frc consts  --      0.8913                 1.2860                 1.1039
 IR Inten    --     21.8390                 4.9920                22.8434

                     22                     23                     24
                      A                      A                      A
 Frequencies --   1021.3813              1060.3804              1121.8722
 Red. masses --      2.9246                 2.3284                 2.2202
 Frc consts  --      1.7976                 1.5425                 1.6464
 IR Inten    --     19.5896                12.8966                16.6085

                     25                     26                     27
                      A                      A                      A
 Frequencies --   1129.3899              1155.0974              1193.8025
 Red. masses --      1.9255                 1.4943                 1.6737
 Frc consts  --      1.4470                 1.1747                 1.4054
 IR Inten    --      2.0118                19.9918                 6.6396

                     28                     29                     30
                      A                      A                      A
 Frequencies --   1210.8973              1220.4379              1264.1023
 Red. masses --      2.4272                 1.6729                 1.2693
 Frc consts  --      2.0969                 1.4681                 1.1950
 IR Inten    --     16.5892                44.8017                 0.7745

                     31                     32                     33
                      A                      A                      A
 Frequencies --   1275.3377              1292.9189              1311.6818
 Red. masses --      1.7447                 2.0007                 1.5904
 Frc consts  --      1.6720                 1.9705                 1.6122
 IR Inten    --      2.1272                41.1846                22.2012

                     34                     35                     36
                      A                      A                      A
 Frequencies --   1335.8196              1358.5457              1412.6166
 Red. masses --      1.4090                 2.0773                 1.2860
 Frc consts  --      1.4814                 2.2589                 1.5120
 IR Inten    --      1.7529                 6.2997                 0.3119

                     37                     38                     39
                      A                      A                      A
 Frequencies --   1469.8795              1478.7409              1490.6355
 Red. masses --      1.2319                 2.2383                 1.0482
 Frc consts  --      1.5681                 2.8838                 1.3722
 IR Inten    --      0.4712                 4.1689                 5.6631

                     40                     41                     42
                      A                      A                      A
 Frequencies --   1494.7171              1501.0984              3024.8992
 Red. masses --      1.0776                 1.2350                 1.0370
 Frc consts  --      1.4185                 1.6396                 5.5905
 IR Inten    --      1.5244                 2.9671                38.4195

                     43                     44                     45
                      A                      A                      A
 Frequencies --   3038.2296              3049.6508              3082.2741
 Red. masses --      1.0629                 1.0620                 1.1003
 Frc consts  --      5.7808                 5.8193                 6.1590
 IR Inten    --     26.2781                36.5760                22.3418

                     46                     47                     48
                      A                      A                      A
 Frequencies --   3088.1056              3092.8799              3104.8484
 Red. masses --      1.0981                 1.0923                 1.1032
 Frc consts  --      6.1702                 6.1565                 6.2657
 IR Inten    --     17.4251                38.1673                35.1354

                     49                     50                     51
                      A                      A                      A
 Frequencies --   3111.9377              3163.4592              3797.0338
 Red. masses --      1.0991                 1.0934                 1.0663
 Frc consts  --      6.2711                 6.4470                 9.0576
 IR Inten    --     11.2474                23.1834                23.6023

 - Thermochemistry -
 -------------------
 Temperature   298.150 Kelvin.  Pressure   1.00000 Atm.
 Atom     1 has atomic number  6 and mass  12.00000

 Molecular mass:   126.06808 amu.
 Principal axes and moments of inertia in atomic units:
                           1         2         3
     Eigenvalues --   799.61863 957.468571172.37634
           X            0.98370  -0.17632   0.03537
           Y            0.17420   0.98311   0.05606
           Z           -0.04466  -0.04899   0.99780
 This molecule is an asymmetric top.
 Rotational symmetry number  1.
 Warning -- assumption of classical behavior for rotation
           may cause significant error
 Rotational temperatures (Kelvin)      0.10832     0.09046     0.07388
 Rotational constants (GHZ):           2.25700     1.88491     1.53939
 Zero-point vibrational energy     418406.7 (Joules/Mol)
                                  100.00161 (Kcal/Mol)
 Warning -- explicit consideration of  10 degrees of freedom as
           vibrations may cause significant error
 Vibrational temperatures:    265.11   269.87   281.46   298.62   411.35
          (Kelvin)            526.45   537.41   567.70   717.60   821.37
                              942.82   964.42  1077.06  1097.06  1194.56
                             1259.38  1302.65  1323.90  1380.74  1425.96
                             1462.31  1469.54  1525.65  1614.12  1624.94
                             1661.93  1717.61  1742.21  1755.94  1818.76
                             1834.92  1860.22  1887.22  1921.94  1954.64
                             2032.44  2114.83  2127.58  2144.69  2150.56
                             2159.74  4352.15  4371.33  4387.76  4434.70
                             4443.09  4449.96  4467.18  4477.38  4551.51
                             5463.08

 Zero-point correction=                           0.159363 (Hartree/Particle)
 Thermal correction to Energy=                    0.167378
 Thermal correction to Enthalpy=                  0.168323
 Thermal correction to Gibbs Free Energy=         0.127434
 Sum of electronic and zero-point Energies=           -422.993979
 Sum of electronic and thermal Energies=              -422.985963
 Sum of electronic and thermal Enthalpies=            -422.985019
 Sum of electronic and thermal Free Energies=         -423.025908

                     E (Thermal)             CV                S
                      KCal/Mol        Cal/Mol-Kelvin    Cal/Mol-Kelvin
 Total                  105.031             31.875             86.057
 Electronic               0.000              0.000              0.000
 Translational            0.889              2.981             40.409
 Rotational               0.889              2.981             28.286
 Vibrational            103.254             25.913             17.363
 Vibration     1          0.631              1.861              2.285
 Vibration     2          0.632              1.857              2.252
 Vibration     3          0.636              1.846              2.174
 Vibration     4          0.641              1.829              2.065
 Vibration     5          0.684              1.700              1.498
 Vibration     6          0.739              1.542              1.097
 Vibration     7          0.745              1.526              1.065
 Vibration     8          0.762              1.482              0.983
 Vibration     9          0.854              1.253              0.661
 Vibration    10          0.927              1.094              0.503

 Normal termination of Gaussian 09 at Mon Jan 27 19:41:26 2020.
