 Gaussian 09, Revision D.01,
 Gaussian 09:  ES64L-G09RevD.01 24-Apr-2013

 -----------------------------
 # b3lyp 6-31G(2df,p) opt Freq
 -----------------------------

 -----
 titel
 -----
 Symbolic Z-matrix:
 Charge =  0 Multiplicity = 1

 SCF Done:  E(RB3LYP) =  -423.108953735     A.U. after   12 cycles
 Optimization completed.
    -- Stationary point found.
 Normal termination of Gaussian 09 at Mon Jan 27 17:05:56 2020.

 ----------------------------------------------------------------------
 #N Geom=AllCheck Guess=TCheck SCRF=Check GenChk RB3LYP/6-31G(2df,p) Fr
 eq
 ----------------------------------------------------------------------

 Structure from the checkpoint file:  "/scratch/puck/g09_fcdbd6f7-11a6-4559-9afa-634044183d4c/Gau-179018.chk"
 -----
 titel
 -----
 Charge =  0 Multiplicity = 1

                         Standard orientation:
 ---------------------------------------------------------------------
 Center     Atomic      Atomic             Coordinates (Angstroms)
 Number     Number       Type             X           Y           Z
 ---------------------------------------------------------------------
      1          8           0        1.269285    1.825499   -0.088085
      2          6           0        1.004716    0.473856   -0.002607
      3          6           0        1.451619   -0.547936   -1.073025
      4          6           0        0.676061   -1.365701    0.005189
      5          6           0        1.450201   -0.555402    1.086557
      6          6           0       -0.381280   -0.236788   -0.001284
      7          6           0       -1.492888   -0.020653    1.038061
      8          8           0       -2.460346    0.204687   -0.005785
      9          6           0       -1.483557   -0.014600   -1.047539
     10          1           0        0.910234    2.261572    0.692705
     11          1           0        0.989639   -0.462828   -2.059530
     12          1           0        2.525736   -0.735343   -1.145238
     13          1           0        0.484377   -2.436179    0.005147
     14          1           0        0.983636   -0.475495    2.072542
     15          1           0        2.523326   -0.747381    1.162621
     16          1           0       -1.749334   -0.889744    1.659045
     17          1           0       -1.386057    0.856687    1.693051
     18          1           0       -1.740206   -0.878816   -1.674373
     19          1           0       -1.362095    0.869387   -1.687123
 ---------------------------------------------------------------------

 SCF Done:  E(RB3LYP) =  -423.108953735     A.U. after    1 cycles

 The electronic state is 1-A.
 Alpha  occ. eigenvalues --  -19.15346 -19.12970 -10.25287 -10.22788 -10.22432
 Alpha  occ. eigenvalues --  -10.20768 -10.20038 -10.19219 -10.19185  -1.04163
 Alpha  occ. eigenvalues --   -1.03286  -0.91399  -0.71478  -0.69905  -0.66696
 Alpha  occ. eigenvalues --   -0.62798  -0.59685  -0.54479  -0.52293  -0.48503
 Alpha  occ. eigenvalues --   -0.47882  -0.45841  -0.42950  -0.40335  -0.40178
 Alpha  occ. eigenvalues --   -0.38321  -0.36911  -0.34867  -0.33912  -0.31235
 Alpha  occ. eigenvalues --   -0.30184  -0.29390  -0.26596  -0.24327
 Alpha virt. eigenvalues --    0.06287   0.07546   0.10623   0.11211   0.11768
 Alpha virt. eigenvalues --    0.13766   0.14029   0.15570   0.15976   0.16763
 Alpha virt. eigenvalues --    0.17162   0.17815   0.18348   0.20471   0.22415

 Mulliken charges:
               1
     1  O   -0.467900
     2  C    0.339996
     3  C   -0.265440
     4  C   -0.129336
     5  C   -0.299899
     6  C    0.300003
     7  C   -0.180311
     8  O   -0.276747
     9  C   -0.179480
    10  H    0.286015
    11  H    0.101678
    12  H    0.097030
    13  H    0.085596
    14  H    0.093335
    15  H    0.097275
    16  H    0.102160
    17  H    0.087008
    18  H    0.100621
    19  H    0.108395
 Sum of Mulliken charges =   0.00000

 Dipole moment (field-independent basis, Debye):
    X=              1.2109    Y=             -0.7164    Z=              1.0420  Tot=              1.7508
 Quadrupole moment (field-independent basis, Debye-Ang):
   XX=            -61.5607   YY=            -52.0878   ZZ=            -50.1064
   XY=             -0.7792   XZ=              0.9948   YZ=              3.1292

  Exact polarizability:  78.299  -1.865  69.500  -0.207   1.172  77.117
 Approx polarizability: 108.373  -0.899 106.510  -0.982   1.096 114.037

                      1                      2                      3
                      A                      A                      A
 Frequencies --     83.8047               191.4705               211.2543
 Red. masses --      4.5966                 2.4597                 2.1646
 Frc consts  --      0.0190                 0.0531                 0.0569
 IR Inten    --      4.4629                 1.0910                13.5139

                      4                      5                      6
                      A                      A                      A
 Frequencies --    216.1280               267.5840               379.2763
 Red. masses --      2.9535                 1.2574                 3.1461
 Frc consts  --      0.0813                 0.0530                 0.2666
 IR Inten    --      0.3875                89.1219                11.3164

                      7                      8                      9
                      A                      A                      A
 Frequencies --    417.1981               455.0462               566.9394
 Red. masses --      3.1399                 2.5610                 2.9045
 Frc consts  --      0.3220                 0.3124                 0.5500
 IR Inten    --      1.9866                 3.9384                 1.9021

                     10                     11                     12
                      A                      A                      A
 Frequencies --    620.1641               653.7545               747.9785
 Red. masses --      2.3863                 4.1069                 2.7424
 Frc consts  --      0.5407                 1.0342                 0.9040
 IR Inten    --      2.3371                 6.5881                 4.2075

                     13                     14                     15
                      A                      A                      A
 Frequencies --    805.7471               858.9505               913.0999
 Red. masses --      2.9748                 3.9514                 2.9238
 Frc consts  --      1.1379                 1.7177                 1.4363
 IR Inten    --      1.8206                12.4970                 2.8970

                     16                     17                     18
                      A                      A                      A
 Frequencies --    943.3383               954.4005               958.2564
 Red. masses --      1.5279                 1.9552                 1.3270
 Frc consts  --      0.8011                 1.0493                 0.7180
 IR Inten    --      3.8464                 2.9870                 2.2527

                     19                     20                     21
                      A                      A                      A
 Frequencies --    989.2532               990.5290              1036.1709
 Red. masses --      4.3881                 1.4772                10.0509
 Frc consts  --      2.5301                 0.8539                 6.3579
 IR Inten    --     13.8767                 0.9837                77.6913

                     22                     23                     24
                      A                      A                      A
 Frequencies --   1043.7165              1055.0685              1111.1440
 Red. masses --      1.2537                 1.5714                 1.4579
 Frc consts  --      0.8047                 1.0306                 1.0605
 IR Inten    --     13.5984                 3.9295                16.5855

                     25                     26                     27
                      A                      A                      A
 Frequencies --   1132.2742              1144.5593              1156.5838
 Red. masses --      1.7202                 1.6689                 1.0760
 Frc consts  --      1.2994                 1.2881                 0.8480
 IR Inten    --      1.6360                 4.9757                 0.0909

                     28                     29                     30
                      A                      A                      A
 Frequencies --   1161.7843              1164.9089              1181.4133
 Red. masses --      3.1279                 1.2905                 1.9067
 Frc consts  --      2.4875                 1.0318                 1.5680
 IR Inten    --      4.4165                 1.2868                 7.8405

                     31                     32                     33
                      A                      A                      A
 Frequencies --   1201.5969              1223.7111              1269.8683
 Red. masses --      1.5449                 2.0782                 2.3557
 Frc consts  --      1.3142                 1.8336                 2.2381
 IR Inten    --      9.4993                 0.0612               108.3065

                     34                     35                     36
                      A                      A                      A
 Frequencies --   1303.3085              1320.4063              1372.0699
 Red. masses --      1.3489                 2.3979                 2.1255
 Frc consts  --      1.3499                 2.4631                 2.3576
 IR Inten    --      2.1210               128.7155                10.8607

                     37                     38                     39
                      A                      A                      A
 Frequencies --   1389.5956              1498.2440              1505.5645
 Red. masses --      2.0757                 1.1005                 1.0818
 Frc consts  --      2.3615                 1.4555                 1.4447
 IR Inten    --     13.1795                 0.9753                 0.9398

                     40                     41                     42
                      A                      A                      A
 Frequencies --   1530.9333              1543.5670              2982.5615
 Red. masses --      1.1126                 1.2189                 1.0565
 Frc consts  --      1.5363                 1.7110                 5.5372
 IR Inten    --      0.2847                 9.8076                89.3173

                     43                     44                     45
                      A                      A                      A
 Frequencies --   3004.4657              3026.3695              3045.0069
 Red. masses --      1.0570                 1.1053                 1.1103
 Frc consts  --      5.6215                 5.9646                 6.0657
 IR Inten    --     27.7318                43.4472                37.0111

                     46                     47                     48
                      A                      A                      A
 Frequencies --   3051.7692              3060.1341              3118.6265
 Red. masses --      1.0539                 1.0544                 1.1114
 Frc consts  --      5.7833                 5.8175                 6.3685
 IR Inten    --     49.2731                28.7265                26.2894

                     49                     50                     51
                      A                      A                      A
 Frequencies --   3125.6284              3145.8901              3804.4100
 Red. masses --      1.1110                 1.0931                 1.0657
 Frc consts  --      6.3949                 6.3737                 9.0878
 IR Inten    --     42.3794                28.6409                23.9872

 - Thermochemistry -
 -------------------
 Temperature   298.150 Kelvin.  Pressure   1.00000 Atm.
 Atom     1 has atomic number  8 and mass  15.99491

 Molecular mass:   126.06808 amu.
 Principal axes and moments of inertia in atomic units:
                           1         2         3
     Eigenvalues --   642.857571245.252291336.38684
           X            0.99983  -0.01849   0.00242
           Y            0.01833   0.99824   0.05637
           Z           -0.00345  -0.05631   0.99841
 This molecule is an asymmetric top.
 Rotational symmetry number  1.
 Warning -- assumption of classical behavior for rotation
           may cause significant error
 Rotational temperatures (Kelvin)      0.13473     0.06956     0.06481
 Rotational constants (GHZ):           2.80737     1.44930     1.35046
 Zero-point vibrational energy     418307.3 (Joules/Mol)
                                   99.97785 (Kcal/Mol)
 Warning -- explicit consideration of  10 degrees of freedom as
           vibrations may cause significant error
 Vibrational temperatures:    120.58   275.48   303.95   310.96   384.99
          (Kelvin)            545.69   600.25   654.71   815.70   892.28
                              940.61  1076.17  1159.29  1235.84  1313.75
                             1357.25  1373.17  1378.72  1423.31  1425.15
                             1490.82  1501.67  1518.01  1598.69  1629.09
                             1646.76  1664.06  1671.55  1676.04  1699.79
                             1728.83  1760.65  1827.05  1875.17  1899.77
                             1974.10  1999.32  2155.64  2166.17  2202.67
                             2220.85  4291.24  4322.75  4354.27  4381.08
                             4390.81  4402.84  4487.00  4497.08  4526.23
                             5473.69

 Zero-point correction=                           0.159325 (Hartree/Particle)
 Thermal correction to Energy=                    0.167215
 Thermal correction to Enthalpy=                  0.168159
 Thermal correction to Gibbs Free Energy=         0.126985
 Sum of electronic and zero-point Energies=           -422.949629
 Sum of electronic and thermal Energies=              -422.941739
 Sum of electronic and thermal Enthalpies=            -422.940795
 Sum of electronic and thermal Free Energies=         -422.981969

                     E (Thermal)             CV                S
                      KCal/Mol        Cal/Mol-Kelvin    Cal/Mol-Kelvin
 Total                  104.929             30.976             86.658
 Electronic               0.000              0.000              0.000
 Translational            0.889              2.981             40.409
 Rotational               0.889              2.981             28.461
 Vibrational            103.151             25.014             17.789
 Vibration     1          0.601              1.960              3.800
 Vibration     2          0.634              1.852              2.214
 Vibration     3          0.643              1.824              2.033
 Vibration     4          0.645              1.816              1.991
 Vibration     5          0.673              1.733              1.612
 Vibration     6          0.749              1.514              1.042
 Vibration     7          0.780              1.433              0.902
 Vibration     8          0.813              1.350              0.781
 Vibration     9          0.923              1.103              0.510
 Vibration    10          0.980              0.989              0.416

 Optimization completed.
    -- Stationary point found.
 Normal termination of Gaussian 09 at Mon Jan 27 17:49:15 2020.
