 Gaussian 09, Revision D.01,
 Gaussian 09:  ES64L-G09RevD.01 24-Apr-2013

 -----------------------------
 # b3lyp 6-31G(2df,p) opt Freq
 -----------------------------

 -----
 titel
 -----
 Symbolic Z-matrix:
 Charge =  0 Multiplicity = 1

 SCF Done:  E(RB3LYP) =  -423.194194691     A.U. after   15 cycles
 Optimization completed.
    -- Stationary point found.
 Normal termination of Gaussian 09 at Tue Jan 28 08:09:01 2020.

 ----------------------------------------------------------------------
 #N Geom=AllCheck Guess=TCheck SCRF=Check GenChk RB3LYP/6-31G(2df,p) Fr
 eq
 ----------------------------------------------------------------------

 Structure from the checkpoint file:  "/scratch/puck/g09_fd4fd4dc-e247-4cf0-ad30-fe0b1c7fd572/Gau-11721.chk"
 -----
 titel
 -----
 Charge =  0 Multiplicity = 1

                         Standard orientation:
 ---------------------------------------------------------------------
 Center     Atomic      Atomic             Coordinates (Angstroms)
 Number     Number       Type             X           Y           Z
 ---------------------------------------------------------------------
      1          6           0        3.941485    0.573917   -0.527047
      2          6           0        3.083303    0.178264    0.688475
      3          6           0        1.778782   -0.360272    0.317908
      4          6           0        0.705756   -0.794507   -0.011979
      5          6           0       -0.586262   -1.347475   -0.392124
      6          6           0       -1.805241   -0.491705   -0.047711
      7          8           0       -2.864793   -0.945469    0.300609
      8          8           0       -1.566723    0.816284   -0.227797
      9          6           0       -2.678360    1.682019    0.037226
     10          1           0        4.125968   -0.290821   -1.170210
     11          1           0        3.437570    1.337576   -1.125582
     12          1           0        4.906401    0.972414   -0.199614
     13          1           0        3.623769   -0.560802    1.293873
     14          1           0        2.942646    1.052214    1.337498
     15          1           0       -0.622028   -1.511247   -1.478822
     16          1           0       -0.757898   -2.323754    0.070698
     17          1           0       -3.515986    1.447380   -0.624530
     18          1           0       -3.009304    1.576038    1.073240
     19          1           0       -2.315787    2.693030   -0.147530
 ---------------------------------------------------------------------

 SCF Done:  E(RB3LYP) =  -423.194194691     A.U. after    1 cycles

 The electronic state is 1-A.
 Alpha  occ. eigenvalues --  -19.18519 -19.12618 -10.30882 -10.23823 -10.21852
 Alpha  occ. eigenvalues --  -10.20650 -10.18196 -10.17276 -10.17024  -1.10440
 Alpha  occ. eigenvalues --   -1.01539  -0.80345  -0.78358  -0.72381  -0.69398
 Alpha  occ. eigenvalues --   -0.63326  -0.56964  -0.51782  -0.49387  -0.48195
 Alpha  occ. eigenvalues --   -0.47017  -0.45431  -0.44669  -0.43523  -0.41024
 Alpha  occ. eigenvalues --   -0.39445  -0.37811  -0.36902  -0.36120  -0.35662
 Alpha  occ. eigenvalues --   -0.30335  -0.28464  -0.24998  -0.24434
 Alpha virt. eigenvalues --    0.01345   0.05575   0.05774   0.10282   0.10857
 Alpha virt. eigenvalues --    0.11978   0.14083   0.14899   0.15362   0.15850
 Alpha virt. eigenvalues --    0.16807   0.17133   0.17990   0.20316   0.21117

 Mulliken charges:
               1
     1  C   -0.364447
     2  C   -0.312994
     3  C    0.079322
     4  C    0.065057
     5  C   -0.470061
     6  C    0.450923
     7  O   -0.359353
     8  O   -0.213013
     9  C   -0.237428
    10  H    0.127407
    11  H    0.128813
    12  H    0.113971
    13  H    0.128599
    14  H    0.129681
    15  H    0.156704
    16  H    0.158322
    17  H    0.140698
    18  H    0.143035
    19  H    0.134765
 Sum of Mulliken charges =   0.00000

 Dipole moment (field-independent basis, Debye):
    X=              1.3833    Y=              1.4540    Z=             -0.4669  Tot=              2.0604
 Quadrupole moment (field-independent basis, Debye-Ang):
   XX=            -52.5589   YY=            -50.1645   ZZ=            -51.9833
   XY=             -5.2445   XZ=              3.0424   YZ=              1.9236

  Exact polarizability: 109.609   7.860  75.006   3.706   1.861  60.179
 Approx polarizability: 146.649  21.835 107.245   8.415   3.227  89.751

                      1                      2                      3
                      A                      A                      A
 Frequencies --     13.7609                21.3538                70.8035
 Red. masses --      4.7147                 2.5422                 2.9666
 Frc consts  --      0.0005                 0.0007                 0.0088
 IR Inten    --      1.4449                 0.1063                 0.3162

                      4                      5                      6
                      A                      A                      A
 Frequencies --    116.7432               122.5229               170.4411
 Red. masses --      1.2372                 2.3843                 2.6137
 Frc consts  --      0.0099                 0.0211                 0.0447
 IR Inten    --      0.0575                 1.5503                 4.7176

                      7                      8                      9
                      A                      A                      A
 Frequencies --    196.7591               258.8803               279.4720
 Red. masses --      1.9069                 2.1936                 2.3625
 Frc consts  --      0.0435                 0.0866                 0.1087
 IR Inten    --      1.4083                 2.5719                 6.4538

                     10                     11                     12
                      A                      A                      A
 Frequencies --    328.8737               397.4763               450.8369
 Red. masses --      3.1873                 5.0260                 6.6394
 Frc consts  --      0.2031                 0.4678                 0.7951
 IR Inten    --     12.6135                 4.0860                 1.5447

                     13                     14                     15
                      A                      A                      A
 Frequencies --    509.7804               587.9159               706.0506
 Red. masses --      4.0087                 3.7670                 3.8271
 Frc consts  --      0.6138                 0.7672                 1.1241
 IR Inten    --      2.8844                 6.1078                11.1326

                     16                     17                     18
                      A                      A                      A
 Frequencies --    780.0821               785.4769               861.7457
 Red. masses --      3.8135                 1.1748                 4.0871
 Frc consts  --      1.3673                 0.4271                 1.7882
 IR Inten    --      4.8537                 1.5622                13.8338

                     19                     20                     21
                      A                      A                      A
 Frequencies --    951.4061               969.8656              1048.0096
 Red. masses --      2.4687                 2.3628                 6.9888
 Frc consts  --      1.3166                 1.3095                 4.5225
 IR Inten    --      2.4485                 0.2592                39.4885

                     22                     23                     24
                      A                      A                      A
 Frequencies --   1079.4983              1104.4828              1168.9568
 Red. masses --      1.9024                 1.4765                 2.4985
 Frc consts  --      1.3062                 1.0612                 2.0115
 IR Inten    --      2.5691                 1.9070                 4.0094

                     25                     26                     27
                      A                      A                      A
 Frequencies --   1178.5682              1208.0492              1211.2571
 Red. masses --      1.2855                 1.4287                 1.3728
 Frc consts  --      1.0521                 1.2284                 1.1867
 IR Inten    --      1.1979                43.0197                36.3985

                     28                     29                     30
                      A                      A                      A
 Frequencies --   1285.1954              1287.2837              1324.3557
 Red. masses --      1.7850                 1.6846                 1.5437
 Frc consts  --      1.7371                 1.6447                 1.5952
 IR Inten    --    151.6372               141.2167                11.0024

                     31                     32                     33
                      A                      A                      A
 Frequencies --   1353.0258              1408.1078              1449.0749
 Red. masses --      1.5992                 1.2128                 1.0853
 Frc consts  --      1.7250                 1.4168                 1.3427
 IR Inten    --     29.5351                 0.7887                 5.5537

                     34                     35                     36
                      A                      A                      A
 Frequencies --   1473.1461              1475.3285              1481.7348
 Red. masses --      1.2002                 1.0742                 1.0469
 Frc consts  --      1.5346                 1.3776                 1.3543
 IR Inten    --     11.7896                 2.6139                 6.1251

                     37                     38                     39
                      A                      A                      A
 Frequencies --   1494.4553              1496.2159              1505.8197
 Red. masses --      1.0399                 1.0574                 1.0579
 Frc consts  --      1.3683                 1.3947                 1.4133
 IR Inten    --      4.1632                 6.8107                 1.4109

                     40                     41                     42
                      A                      A                      A
 Frequencies --   1823.3232              2374.6887              3015.7664
 Red. masses --     11.3881                11.8533                 1.0680
 Frc consts  --     22.3064                39.3825                 5.7231
 IR Inten    --    264.0463                 1.0008                15.4258

                     43                     44                     45
                      A                      A                      A
 Frequencies --   3019.8093              3044.2114              3046.7643
 Red. masses --      1.0589                 1.0344                 1.1010
 Frc consts  --      5.6893                 5.6479                 6.0216
 IR Inten    --     23.8557                30.0022                 9.6903

                     46                     47                     48
                      A                      A                      A
 Frequencies --   3052.7842              3086.4234              3117.3775
 Red. masses --      1.0298                 1.0907                 1.1020
 Frc consts  --      5.6546                 6.1218                 6.3100
 IR Inten    --     29.0652                 3.9398                30.5579

                     49                     50                     51
                      A                      A                      A
 Frequencies --   3123.9315              3127.7654              3161.2808
 Red. masses --      1.1029                 1.1056                 1.1060
 Frc consts  --      6.3414                 6.3726                 6.5122
 IR Inten    --     24.9548                18.3675                13.4677

 - Thermochemistry -
 -------------------
 Temperature   298.150 Kelvin.  Pressure   1.00000 Atm.
 Atom     1 has atomic number  6 and mass  12.00000

 Molecular mass:   126.06808 amu.
 Principal axes and moments of inertia in atomic units:
                           1         2         3
     Eigenvalues --   518.497222754.357683099.06862
           X            0.99998  -0.00603  -0.00140
           Y            0.00605   0.99982   0.01801
           Z            0.00129  -0.01802   0.99984
 This molecule is an asymmetric top.
 Rotational symmetry number  1.
 Warning -- assumption of classical behavior for rotation
           may cause significant error
 Rotational temperatures (Kelvin)      0.16705     0.03145     0.02795
 Rotational constants (GHZ):           3.48072     0.65523     0.58235
 Zero-point vibrational energy     410360.6 (Joules/Mol)
                                   98.07854 (Kcal/Mol)
 Warning -- explicit consideration of  14 degrees of freedom as
           vibrations may cause significant error
 Vibrational temperatures:     19.80    30.72   101.87   167.97   176.28
          (Kelvin)            245.23   283.09   372.47   402.10   473.18
                              571.88   648.65   733.46   845.88  1015.85
                             1122.36  1130.12  1239.86  1368.86  1395.42
                             1507.85  1553.16  1589.10  1681.87  1695.69
                             1738.11  1742.73  1849.11  1852.11  1905.45
                             1946.70  2025.95  2084.89  2119.53  2122.67
                             2131.88  2150.19  2152.72  2166.54  2623.35
                             3416.64  4339.01  4344.83  4379.94  4383.61
                             4392.27  4440.67  4485.21  4494.64  4500.15
                             4548.37

 Zero-point correction=                           0.156298 (Hartree/Particle)
 Thermal correction to Energy=                    0.167232
 Thermal correction to Enthalpy=                  0.168176
 Thermal correction to Gibbs Free Energy=         0.116787
 Sum of electronic and zero-point Energies=           -423.037897
 Sum of electronic and thermal Energies=              -423.026963
 Sum of electronic and thermal Enthalpies=            -423.026018
 Sum of electronic and thermal Free Energies=         -423.077408

                     E (Thermal)             CV                S
                      KCal/Mol        Cal/Mol-Kelvin    Cal/Mol-Kelvin
 Total                  104.940             36.268            108.158
 Electronic               0.000              0.000              0.000
 Translational            0.889              2.981             40.409
 Rotational               0.889              2.981             29.872
 Vibrational            103.162             30.307             37.878
 Vibration     1          0.593              1.986              7.377
 Vibration     2          0.593              1.985              6.504
 Vibration     3          0.598              1.968              4.131
 Vibration     4          0.608              1.935              3.154
 Vibration     5          0.610              1.930              3.060
 Vibration     6          0.626              1.879              2.431
 Vibration     7          0.636              1.844              2.163
 Vibration     8          0.668              1.748              1.669
 Vibration     9          0.680              1.712              1.537
 Vibration    10          0.712              1.618              1.266
 Vibration    11          0.764              1.476              0.972
 Vibration    12          0.810              1.359              0.793
 Vibration    13          0.865              1.228              0.634
 Vibration    14          0.945              1.058              0.471

 Optimization completed.
    -- Stationary point found.
 Normal termination of Gaussian 09 at Tue Jan 28 08:41:29 2020.
