 Gaussian 09, Revision D.01,
 Gaussian 09:  ES64L-G09RevD.01 24-Apr-2013

 -----------------------------
 # b3lyp 6-31G(2df,p) opt Freq
 -----------------------------

 -----
 titel
 -----
 Symbolic Z-matrix:
 Charge =  0 Multiplicity = 1

 SCF Done:  E(RB3LYP) =  -423.160095303     A.U. after   14 cycles
 Optimization completed.
    -- Stationary point found.
 Normal termination of Gaussian 09 at Mon Jan 27 16:34:59 2020.

 ----------------------------------------------------------------------
 #N Geom=AllCheck Guess=TCheck SCRF=Check GenChk RB3LYP/6-31G(2df,p) Fr
 eq
 ----------------------------------------------------------------------

 Structure from the checkpoint file:  "/scratch/puck/g09_e630892e-7500-4224-a2c1-1be3e38df9f6/Gau-165912.chk"
 -----
 titel
 -----
 Charge =  0 Multiplicity = 1

                         Standard orientation:
 ---------------------------------------------------------------------
 Center     Atomic      Atomic             Coordinates (Angstroms)
 Number     Number       Type             X           Y           Z
 ---------------------------------------------------------------------
      1          6           0       -1.859204   -1.379260   -0.353859
      2          6           0       -0.767013   -0.356293   -0.039125
      3          6           0       -0.042055   -0.541807    1.328789
      4          6           0        1.294567   -0.821884    0.596766
      5          6           0        2.079382    0.437273    0.173451
      6          8           0        1.353750    0.529317   -1.081563
      7          6           0        0.592827   -0.648852   -0.775913
      8          6           0       -1.259144    1.045150   -0.323749
      9          8           0       -1.259086    1.952813    0.467460
     10          1           0       -2.258209   -1.235817   -1.364772
     11          1           0       -1.462063   -2.398068   -0.294491
     12          1           0       -2.689248   -1.301757    0.356094
     13          1           0       -0.058039    0.342578    1.969241
     14          1           0       -0.417212   -1.398094    1.894107
     15          1           0        1.870176   -1.700211    0.883833
     16          1           0        1.938482    1.327208    0.797563
     17          1           0        3.149500    0.281792   -0.006421
     18          1           0        0.573520   -1.368820   -1.599437
     19          1           0       -1.640379    1.188188   -1.361050
 ---------------------------------------------------------------------

 SCF Done:  E(RB3LYP) =  -423.160095303     A.U. after    1 cycles

 The electronic state is 1-A.
 Alpha  occ. eigenvalues --  -19.14064 -19.13807 -10.26665 -10.24298 -10.23474
 Alpha  occ. eigenvalues --  -10.20331 -10.19903 -10.19417 -10.18732  -1.05002
 Alpha  occ. eigenvalues --   -1.04171  -0.84525  -0.75661  -0.69598  -0.65703
 Alpha  occ. eigenvalues --   -0.64530  -0.56902  -0.52881  -0.50211  -0.49509
 Alpha  occ. eigenvalues --   -0.47265  -0.44815  -0.43048  -0.42103  -0.41075
 Alpha  occ. eigenvalues --   -0.39979  -0.39150  -0.37151  -0.34256  -0.33534
 Alpha  occ. eigenvalues --   -0.30983  -0.29520  -0.25519  -0.24245
 Alpha virt. eigenvalues --   -0.01937   0.06877   0.08588   0.09685   0.11136
 Alpha virt. eigenvalues --    0.12794   0.14278   0.14715   0.15856   0.16172
 Alpha virt. eigenvalues --    0.16506   0.16815   0.18238   0.19916   0.20906

 Mulliken charges:
               1
     1  C   -0.470894
     2  C    0.203972
     3  C   -0.302732
     4  C   -0.071866
     5  C   -0.086606
     6  O   -0.284308
     7  C    0.070494
     8  C    0.134591
     9  O   -0.256793
    10  H    0.124073
    11  H    0.124388
    12  H    0.132056
    13  H    0.125897
    14  H    0.102362
    15  H    0.080608
    16  H    0.117993
    17  H    0.106968
    18  H    0.073245
    19  H    0.076553
 Sum of Mulliken charges =   0.00000

 Dipole moment (field-independent basis, Debye):
    X=              0.2721    Y=             -3.1555    Z=              0.1362  Tot=              3.1701
 Quadrupole moment (field-independent basis, Debye-Ang):
   XX=            -50.8734   YY=            -57.2270   ZZ=            -54.1385
   XY=              2.1074   XZ=              4.0467   YZ=             -0.4791

  Exact polarizability:  80.108   1.518  74.044   3.851   2.308  70.351
 Approx polarizability: 105.495   0.352 112.814   3.497   7.623 110.988

                      1                      2                      3
                      A                      A                      A
 Frequencies --     52.7469                98.3245               181.5443
 Red. masses --      4.1950                 3.4206                 3.9703
 Frc consts  --      0.0069                 0.0195                 0.0771
 IR Inten    --      2.4168                 3.3197                 4.7061

                      4                      5                      6
                      A                      A                      A
 Frequencies --    229.9142               255.8687               285.8680
 Red. masses --      1.3440                 1.7766                 3.0226
 Frc consts  --      0.0419                 0.0685                 0.1455
 IR Inten    --      0.9035                 1.8739                 5.4398

                      7                      8                      9
                      A                      A                      A
 Frequencies --    297.5471               387.2347               464.0363
 Red. masses --      2.4073                 1.8718                 3.4512
 Frc consts  --      0.1256                 0.1654                 0.4379
 IR Inten    --      1.7532                 0.1329                 2.6307

                     10                     11                     12
                      A                      A                      A
 Frequencies --    531.2072               655.4940               775.8139
 Red. masses --      4.2833                 3.5722                 3.2870
 Frc consts  --      0.7121                 0.9043                 1.1656
 IR Inten    --      0.4932                10.9108                 3.2087

                     13                     14                     15
                      A                      A                      A
 Frequencies --    788.0986               852.7554               889.7973
 Red. masses --      2.0979                 1.8384                 1.8961
 Frc consts  --      0.7677                 0.7877                 0.8845
 IR Inten    --      1.6612                 8.9488                11.8464

                     16                     17                     18
                      A                      A                      A
 Frequencies --    899.3950               909.8604               938.9028
 Red. masses --      2.1085                 3.7740                 1.8776
 Frc consts  --      1.0049                 1.8408                 0.9752
 IR Inten    --      6.5182                11.5369                17.7888

                     19                     20                     21
                      A                      A                      A
 Frequencies --    974.4911               993.2926              1008.7118
 Red. masses --      2.1721                 1.5281                 5.3315
 Frc consts  --      1.2153                 0.8883                 3.1962
 IR Inten    --      7.6132                 2.0587                80.2192

                     22                     23                     24
                      A                      A                      A
 Frequencies --   1035.7571              1057.9441              1140.9376
 Red. masses --      1.7546                 2.7606                 1.9265
 Frc consts  --      1.1090                 1.8204                 1.4776
 IR Inten    --      3.6987                34.4421                 2.2705

                     25                     26                     27
                      A                      A                      A
 Frequencies --   1146.2432              1172.5671              1187.2946
 Red. masses --      1.5308                 1.2676                 2.8998
 Frc consts  --      1.1850                 1.0269                 2.4084
 IR Inten    --      3.5614                 1.1882                 2.5695

                     28                     29                     30
                      A                      A                      A
 Frequencies --   1208.8744              1218.7360              1260.8919
 Red. masses --      2.1641                 1.5096                 1.5022
 Frc consts  --      1.8633                 1.3210                 1.4071
 IR Inten    --      4.4482                 5.4426                 2.7638

                     31                     32                     33
                      A                      A                      A
 Frequencies --   1273.8010              1303.2983              1318.2019
 Red. masses --      2.1108                 1.6134                 1.4923
 Frc consts  --      2.0179                 1.6146                 1.5278
 IR Inten    --      2.9978                 2.6871                 4.0105

                     34                     35                     36
                      A                      A                      A
 Frequencies --   1360.3969              1403.4664              1424.7262
 Red. masses --      1.4488                 1.2225                 1.2123
 Frc consts  --      1.5798                 1.4187                 1.4499
 IR Inten    --      2.1483                 1.7642                 5.1099

                     37                     38                     39
                      A                      A                      A
 Frequencies --   1475.2602              1492.7664              1497.6561
 Red. masses --      1.0965                 1.0560                 1.0518
 Frc consts  --      1.4060                 1.3864                 1.3899
 IR Inten    --      7.5078                 6.7096                 3.1661

                     40                     41                     42
                      A                      A                      A
 Frequencies --   1519.2537              1825.1936              2867.4645
 Red. masses --      1.0992                10.8040                 1.0826
 Frc consts  --      1.4949                21.2058                 5.2447
 IR Inten    --      0.8284               140.5385               109.9458

                     43                     44                     45
                      A                      A                      A
 Frequencies --   3022.5831              3024.8849              3064.0203
 Red. masses --      1.0553                 1.0348                 1.0789
 Frc consts  --      5.6804                 5.5784                 5.9678
 IR Inten    --     78.3255                17.3379                52.6902

                     46                     47                     48
                      A                      A                      A
 Frequencies --   3066.9745              3072.3020              3093.6371
 Red. masses --      1.0693                 1.1104                 1.1006
 Frc consts  --      5.9259                 6.1755                 6.2064
 IR Inten    --     14.4079                27.6284                20.3820

                     49                     50                     51
                      A                      A                      A
 Frequencies --   3100.7169              3118.9093              3127.5814
 Red. masses --      1.1020                 1.0997                 1.0982
 Frc consts  --      6.2426                 6.3025                 6.3289
 IR Inten    --     17.2190                14.3433                30.5769

 - Thermochemistry -
 -------------------
 Temperature   298.150 Kelvin.  Pressure   1.00000 Atm.
 Atom     1 has atomic number  6 and mass  12.00000

 Molecular mass:   126.06808 amu.
 Principal axes and moments of inertia in atomic units:
                           1         2         3
     Eigenvalues --   762.186991098.980451337.81271
           X            0.99577   0.08359   0.03811
           Y           -0.08383   0.99647   0.00476
           Z           -0.03758  -0.00793   0.99926
 This molecule is an asymmetric top.
 Rotational symmetry number  1.
 Warning -- assumption of classical behavior for rotation
           may cause significant error
 Rotational temperatures (Kelvin)      0.11364     0.07881     0.06474
 Rotational constants (GHZ):           2.36785     1.64220     1.34902
 Zero-point vibrational energy     414824.5 (Joules/Mol)
                                   99.14544 (Kcal/Mol)
 Warning -- explicit consideration of  10 degrees of freedom as
           vibrations may cause significant error
 Vibrational temperatures:     75.89   141.47   261.20   330.79   368.14
          (Kelvin)            411.30   428.10   557.14   667.64   764.29
                              943.11  1116.22  1133.90  1226.92  1280.22
                             1294.03  1309.08  1350.87  1402.07  1429.12
                             1451.31  1490.22  1522.14  1641.55  1649.19
                             1687.06  1708.25  1739.30  1753.49  1814.14
                             1832.71  1875.15  1896.60  1957.31  2019.27
                             2049.86  2122.57  2147.76  2154.79  2185.86
                             2626.04  4125.64  4348.82  4352.13  4408.44
                             4412.69  4420.35  4451.05  4461.23  4487.41
                             4499.89

 Zero-point correction=                           0.157998 (Hartree/Particle)
 Thermal correction to Energy=                    0.166569
 Thermal correction to Enthalpy=                  0.167513
 Thermal correction to Gibbs Free Energy=         0.124404
 Sum of electronic and zero-point Energies=           -423.002097
 Sum of electronic and thermal Energies=              -422.993527
 Sum of electronic and thermal Enthalpies=            -422.992583
 Sum of electronic and thermal Free Energies=         -423.035691

                     E (Thermal)             CV                S
                      KCal/Mol        Cal/Mol-Kelvin    Cal/Mol-Kelvin
 Total                  104.523             31.887             90.729
 Electronic               0.000              0.000              0.000
 Translational            0.889              2.981             40.409
 Rotational               0.889              2.981             28.507
 Vibrational            102.746             25.925             21.814
 Vibration     1          0.596              1.977              4.712
 Vibration     2          0.604              1.950              3.487
 Vibration     3          0.630              1.865              2.312
 Vibration     4          0.652              1.795              1.880
 Vibration     5          0.666              1.753              1.690
 Vibration     6          0.684              1.700              1.498
 Vibration     7          0.691              1.678              1.431
 Vibration     8          0.756              1.497              1.011
 Vibration     9          0.822              1.330              0.754
 Vibration    10          0.886              1.181              0.585

 Optimization completed.
    -- Stationary point found.
 Normal termination of Gaussian 09 at Mon Jan 27 17:19:12 2020.
