 Gaussian 09, Revision D.01,
 Gaussian 09:  ES64L-G09RevD.01 24-Apr-2013

 -----------------------------
 # b3lyp 6-31G(2df,p) opt Freq
 -----------------------------

 -----
 titel
 -----
 Symbolic Z-matrix:
 Charge =  0 Multiplicity = 1

 SCF Done:  E(RB3LYP) =  -423.235269348     A.U. after   14 cycles
 Optimization completed.
    -- Stationary point found.
 Normal termination of Gaussian 09 at Tue Jan 28 08:13:40 2020.

 ----------------------------------------------------------------------
 #N Geom=AllCheck Guess=TCheck SCRF=Check GenChk RB3LYP/6-31G(2df,p) Fr
 eq
 ----------------------------------------------------------------------

 Structure from the checkpoint file:  "/scratch/puck/g09_087a8566-c296-43e9-889c-efc683d7144c/Gau-25777.chk"
 -----
 titel
 -----
 Charge =  0 Multiplicity = 1

                         Standard orientation:
 ---------------------------------------------------------------------
 Center     Atomic      Atomic             Coordinates (Angstroms)
 Number     Number       Type             X           Y           Z
 ---------------------------------------------------------------------
      1          6           0        2.435273   -1.105245   -0.266483
      2          6           0        1.153321   -0.284236   -0.314518
      3          6           0        1.194242    0.945672    0.598887
      4          6           0        0.273772    2.070069    0.124203
      5          6           0       -1.116330    1.672268   -0.265439
      6          6           0       -1.691188    0.466088   -0.322129
      7          6           0       -1.204747   -0.890823    0.048160
      8          8           0       -1.998383   -1.761226    0.311043
      9          8           0        0.113460   -1.193113    0.093194
     10          1           0        2.661062   -1.402485    0.762224
     11          1           0        2.330511   -2.010403   -0.869260
     12          1           0        3.274911   -0.520322   -0.653029
     13          1           0        0.956328    0.026779   -1.349628
     14          1           0        0.925425    0.618452    1.609539
     15          1           0        2.218978    1.327849    0.653347
     16          1           0        0.209063    2.853669    0.891552
     17          1           0        0.724479    2.572132   -0.745753
     18          1           0       -1.748963    2.513755   -0.546289
     19          1           0       -2.738476    0.412531   -0.602691
 ---------------------------------------------------------------------

 SCF Done:  E(RB3LYP) =  -423.235269348     A.U. after    1 cycles

 The electronic state is 1-A.
 Alpha  occ. eigenvalues --  -19.17007 -19.10787 -10.29894 -10.25247 -10.21400
 Alpha  occ. eigenvalues --  -10.20806 -10.19817 -10.19799 -10.18554  -1.08650
 Alpha  occ. eigenvalues --   -1.00414  -0.83107  -0.79428  -0.73736  -0.67604
 Alpha  occ. eigenvalues --   -0.64039  -0.58886  -0.55524  -0.50560  -0.48472
 Alpha  occ. eigenvalues --   -0.46034  -0.43928  -0.43344  -0.42465  -0.41345
 Alpha  occ. eigenvalues --   -0.39968  -0.39363  -0.37826  -0.35401  -0.34416
 Alpha  occ. eigenvalues --   -0.32136  -0.29067  -0.27154  -0.25708
 Alpha virt. eigenvalues --   -0.03667   0.07022   0.08458   0.10293   0.10937
 Alpha virt. eigenvalues --    0.12467   0.12668   0.14259   0.16086   0.16466
 Alpha virt. eigenvalues --    0.17532   0.17805   0.20158   0.20286   0.21282

 Mulliken charges:
               1
     1  C   -0.397321
     2  C    0.132095
     3  C   -0.220688
     4  C   -0.273893
     5  C   -0.046479
     6  C   -0.174293
     7  C    0.384412
     8  O   -0.337055
     9  O   -0.240042
    10  H    0.131393
    11  H    0.133831
    12  H    0.116363
    13  H    0.090595
    14  H    0.123098
    15  H    0.105899
    16  H    0.122296
    17  H    0.121977
    18  H    0.107656
    19  H    0.120155
 Sum of Mulliken charges =   0.00000

 Dipole moment (field-independent basis, Debye):
    X=              2.7444    Y=              4.0738    Z=             -0.9133  Tot=              4.9962
 Quadrupole moment (field-independent basis, Debye-Ang):
   XX=            -54.3194   YY=            -56.0717   ZZ=            -52.5681
   XY=             -5.9317   XZ=              1.5480   YZ=              1.4621

  Exact polarizability:  89.511   6.175  91.648   1.441  -1.565  56.266
 Approx polarizability: 123.875  23.146 143.853  -0.482  -5.685  88.062

                      1                      2                      3
                      A                      A                      A
 Frequencies --     86.1875               118.9227               183.5554
 Red. masses --      3.7170                 4.0758                 2.2133
 Frc consts  --      0.0163                 0.0340                 0.0439
 IR Inten    --      1.3772                 0.3648                 0.2062

                      4                      5                      6
                      A                      A                      A
 Frequencies --    233.2807               296.3788               329.7401
 Red. masses --      1.1661                 2.3691                 2.7896
 Frc consts  --      0.0374                 0.1226                 0.1787
 IR Inten    --      0.2509                 1.8692                 3.6390

                      7                      8                      9
                      A                      A                      A
 Frequencies --    368.4665               383.0084               445.6990
 Red. masses --      4.1473                 3.9070                 3.2027
 Frc consts  --      0.3317                 0.3377                 0.3748
 IR Inten    --      0.8663                 0.2724                 4.2028

                     10                     11                     12
                      A                      A                      A
 Frequencies --    548.4228               563.7332               630.5064
 Red. masses --      4.6582                 2.6115                 1.7268
 Frc consts  --      0.8255                 0.4890                 0.4045
 IR Inten    --      5.6797                 3.3830                 5.7312

                     13                     14                     15
                      A                      A                      A
 Frequencies --    742.7234               803.3928               821.3042
 Red. masses --      3.7653                 3.2646                 2.8104
 Frc consts  --      1.2238                 1.2415                 1.1169
 IR Inten    --      1.0526                 8.6281                19.5781

                     16                     17                     18
                      A                      A                      A
 Frequencies --    848.6414               882.3921               929.8610
 Red. masses --      2.2028                 2.5593                 2.1304
 Frc consts  --      0.9347                 1.1741                 1.0853
 IR Inten    --      8.1197                22.1604                 3.5822

                     19                     20                     21
                      A                      A                      A
 Frequencies --    967.0089              1014.9474              1035.2392
 Red. masses --      1.5258                 2.5380                 1.2162
 Frc consts  --      0.8406                 1.5404                 0.7680
 IR Inten    --      1.7754                21.2710                 1.8878

                     22                     23                     24
                      A                      A                      A
 Frequencies --   1067.3368              1095.5847              1125.0255
 Red. masses --      2.2114                 2.3015                 1.9224
 Frc consts  --      1.4843                 1.6276                 1.4336
 IR Inten    --     12.0831                30.4586                 5.2695

                     25                     26                     27
                      A                      A                      A
 Frequencies --   1159.3065              1211.9270              1223.3334
 Red. masses --      2.2142                 1.4274                 1.4400
 Frc consts  --      1.7533                 1.2352                 1.2697
 IR Inten    --     28.1668               118.4974                33.5563

                     28                     29                     30
                      A                      A                      A
 Frequencies --   1270.7827              1307.9003              1337.3461
 Red. masses --      1.4556                 1.4662                 1.3017
 Frc consts  --      1.3849                 1.4777                 1.3717
 IR Inten    --     52.3867               104.0672                14.7835

                     31                     32                     33
                      A                      A                      A
 Frequencies --   1373.9789              1398.8200              1402.7259
 Red. masses --      1.3734                 1.5636                 1.5196
 Frc consts  --      1.5276                 1.8026                 1.7617
 IR Inten    --      9.5173                 4.7211                 8.6764

                     34                     35                     36
                      A                      A                      A
 Frequencies --   1411.8724              1425.0958              1462.4925
 Red. masses --      1.2819                 1.5104                 1.0860
 Frc consts  --      1.5055                 1.8073                 1.3686
 IR Inten    --      9.5978                24.5343                10.3720

                     37                     38                     39
                      A                      A                      A
 Frequencies --   1481.0151              1486.0429              1499.4647
 Red. masses --      1.0881                 1.0536                 1.0520
 Frc consts  --      1.4061                 1.3709                 1.3937
 IR Inten    --      4.1998                 4.4438                 2.2859

                     40                     41                     42
                      A                      A                      A
 Frequencies --   1708.8141              1798.1054              2997.1135
 Red. masses --      7.3640                11.6806                 1.0679
 Frc consts  --     12.6693                22.2509                 5.6516
 IR Inten    --      8.4875               348.6786                16.3297

                     43                     44                     45
                      A                      A                      A
 Frequencies --   3013.0706              3027.9333              3043.0595
 Red. masses --      1.0833                 1.0874                 1.0468
 Frc consts  --      5.7943                 5.8740                 5.7112
 IR Inten    --     20.5152                11.4165                10.3079

                     46                     47                     48
                      A                      A                      A
 Frequencies --   3048.1006              3085.7898              3119.0101
 Red. masses --      1.0523                 1.1037                 1.1020
 Frc consts  --      5.7604                 6.1918                 6.3161
 IR Inten    --     32.7243                17.4583                23.4993

                     49                     50                     51
                      A                      A                      A
 Frequencies --   3129.8123              3132.0436              3184.1716
 Red. masses --      1.1022                 1.0862                 1.0908
 Frc consts  --      6.3611                 6.2780                 6.5159
 IR Inten    --     16.0503                14.6058                 6.6330

 - Thermochemistry -
 -------------------
 Temperature   298.150 Kelvin.  Pressure   1.00000 Atm.
 Atom     1 has atomic number  6 and mass  12.00000

 Molecular mass:   126.06808 amu.
 Principal axes and moments of inertia in atomic units:
                           1         2         3
     Eigenvalues --   867.287781061.547071793.24755
           X            0.98538  -0.17025   0.00626
           Y            0.17019   0.98538   0.00839
           Z           -0.00759  -0.00720   0.99995
 This molecule is an asymmetric top.
 Rotational symmetry number  1.
 Warning -- assumption of classical behavior for rotation
           may cause significant error
 Rotational temperatures (Kelvin)      0.09987     0.08159     0.04830
 Rotational constants (GHZ):           2.08090     1.70010     1.00641
 Zero-point vibrational energy     420251.0 (Joules/Mol)
                                  100.44241 (Kcal/Mol)
 Warning -- explicit consideration of  11 degrees of freedom as
           vibrations may cause significant error
 Vibrational temperatures:    124.00   171.10   264.09   335.64   426.42
          (Kelvin)            474.42   530.14   551.06   641.26   789.06
                              811.09   907.16  1068.61  1155.90  1181.67
                             1221.00  1269.56  1337.86  1391.31  1460.28
                             1489.48  1535.66  1576.30  1618.66  1667.98
                             1743.69  1760.10  1828.37  1881.77  1924.14
                             1976.85  2012.59  2018.21  2031.37  2050.39
                             2104.20  2130.85  2138.08  2157.39  2458.60
                             2587.07  4312.17  4335.13  4356.52  4378.28
                             4385.53  4439.76  4487.55  4503.10  4506.31
                             4581.31

 Zero-point correction=                           0.160065 (Hartree/Particle)
 Thermal correction to Energy=                    0.168464
 Thermal correction to Enthalpy=                  0.169408
 Thermal correction to Gibbs Free Energy=         0.126972
 Sum of electronic and zero-point Energies=           -423.075204
 Sum of electronic and thermal Energies=              -423.066806
 Sum of electronic and thermal Enthalpies=            -423.065861
 Sum of electronic and thermal Free Energies=         -423.108298

                     E (Thermal)             CV                S
                      KCal/Mol        Cal/Mol-Kelvin    Cal/Mol-Kelvin
 Total                  105.713             31.941             89.314
 Electronic               0.000              0.000              0.000
 Translational            0.889              2.981             40.409
 Rotational               0.889              2.981             28.892
 Vibrational            103.935             25.979             20.014
 Vibration     1          0.601              1.959              3.745
 Vibration     2          0.609              1.934              3.118
 Vibration     3          0.631              1.862              2.292
 Vibration     4          0.654              1.790              1.854
 Vibration     5          0.690              1.680              1.437
 Vibration     6          0.713              1.616              1.261
 Vibration     7          0.741              1.537              1.086
 Vibration     8          0.752              1.506              1.027
 Vibration     9          0.805              1.370              0.809
 Vibration    10          0.904              1.143              0.547
 Vibration    11          0.920              1.110              0.516

 Optimization completed.
    -- Stationary point found.
 Normal termination of Gaussian 09 at Tue Jan 28 08:58:09 2020.
