 Gaussian 09, Revision D.01,
 Gaussian 09:  ES64L-G09RevD.01 24-Apr-2013

 -----------------------------
 # b3lyp 6-31G(2df,p) opt Freq
 -----------------------------

 -----
 titel
 -----
 Symbolic Z-matrix:
 Charge =  0 Multiplicity = 1

 SCF Done:  E(RB3LYP) =  -423.150064930     A.U. after   13 cycles
 Optimization completed.
    -- Stationary point found.
 Normal termination of Gaussian 09 at Mon Jan 27 18:52:18 2020.

 ----------------------------------------------------------------------
 #N Geom=AllCheck Guess=TCheck SCRF=Check GenChk RB3LYP/6-31G(2df,p) Fr
 eq
 ----------------------------------------------------------------------

 Structure from the checkpoint file:  "/scratch/puck/g09_323f3cc7-1cdd-40b2-b52d-45052e6671fe/Gau-66820.chk"
 -----
 titel
 -----
 Charge =  0 Multiplicity = 1

                         Standard orientation:
 ---------------------------------------------------------------------
 Center     Atomic      Atomic             Coordinates (Angstroms)
 Number     Number       Type             X           Y           Z
 ---------------------------------------------------------------------
      1          6           0       -2.637171   -0.119427    0.394221
      2          6           0       -1.180828   -0.005869    0.057398
      3          8           0       -0.797631    1.282959   -0.383215
      4          6           0        0.599870    1.436688   -0.125098
      5          6           0        1.102925    0.016025    0.116118
      6          6           0        2.524315   -0.175867    0.570791
      7          8           0        0.801011   -0.719039   -1.126015
      8          6           0       -0.413630   -1.176539   -0.540394
      9          6           0       -0.084330   -0.668603    0.844239
     10          1           0       -3.249721    0.167222   -0.466181
     11          1           0       -2.891081   -1.148026    0.667227
     12          1           0       -2.896834    0.535279    1.232204
     13          1           0        1.075966    1.888022   -1.001201
     14          1           0        0.763065    2.082841    0.751904
     15          1           0        3.219189    0.235909   -0.168256
     16          1           0        2.696428    0.329945    1.526583
     17          1           0        2.745493   -1.239083    0.691993
     18          1           0       -0.842228   -2.105384   -0.902276
     19          1           0       -0.114221   -1.096525    1.838193
 ---------------------------------------------------------------------

 SCF Done:  E(RB3LYP) =  -423.150064930     A.U. after    1 cycles

 The electronic state is 1-A.
 Alpha  occ. eigenvalues --  -19.13722 -19.13386 -10.24752 -10.23920 -10.23510
 Alpha  occ. eigenvalues --  -10.22553 -10.18910 -10.18625 -10.18380  -1.07213
 Alpha  occ. eigenvalues --   -1.01129  -0.83098  -0.77960  -0.72520  -0.68053
 Alpha  occ. eigenvalues --   -0.62324  -0.57017  -0.52450  -0.51493  -0.49690
 Alpha  occ. eigenvalues --   -0.45939  -0.44956  -0.42416  -0.41159  -0.40860
 Alpha  occ. eigenvalues --   -0.39090  -0.38479  -0.37766  -0.35201  -0.33040
 Alpha  occ. eigenvalues --   -0.31118  -0.29960  -0.25131  -0.21116
 Alpha virt. eigenvalues --    0.08120   0.09172   0.10407   0.11007   0.12477
 Alpha virt. eigenvalues --    0.14121   0.15104   0.15684   0.15957   0.16485
 Alpha virt. eigenvalues --    0.17894   0.18226   0.19020   0.21259   0.22371

 Mulliken charges:
               1
     1  C   -0.482252
     2  C    0.441864
     3  O   -0.304296
     4  C   -0.099827
     5  C    0.383541
     6  C   -0.489794
     7  O   -0.334584
     8  C    0.018462
     9  C   -0.301879
    10  H    0.135792
    11  H    0.120806
    12  H    0.127129
    13  H    0.114450
    14  H    0.087290
    15  H    0.132684
    16  H    0.122676
    17  H    0.134453
    18  H    0.099977
    19  H    0.093507
 Sum of Mulliken charges =   0.00000

 Dipole moment (field-independent basis, Debye):
    X=              0.2743    Y=             -0.6555    Z=              2.0355  Tot=              2.1560
 Quadrupole moment (field-independent basis, Debye-Ang):
   XX=            -49.8562   YY=            -52.9659   ZZ=            -54.4372
   XY=              4.2793   XZ=              1.1119   YZ=             -0.2743

  Exact polarizability:  87.392   4.193  71.592   0.943   1.124  64.757
 Approx polarizability: 112.092   3.412 106.803   1.024   3.200 105.011

                      1                      2                      3
                      A                      A                      A
 Frequencies --    190.4628               204.1137               212.4283
 Red. masses --      1.5225                 1.1166                 1.4822
 Frc consts  --      0.0325                 0.0274                 0.0394
 IR Inten    --      1.1644                 0.7640                 1.0217

                      4                      5                      6
                      A                      A                      A
 Frequencies --    228.4155               248.9081               324.9245
 Red. masses --      2.3082                 2.5632                 2.6891
 Frc consts  --      0.0710                 0.0936                 0.1673
 IR Inten    --      1.6632                 0.7594                 0.4811

                      7                      8                      9
                      A                      A                      A
 Frequencies --    371.9340               419.0018               533.0221
 Red. masses --      2.6139                 3.7652                 4.1520
 Frc consts  --      0.2130                 0.3895                 0.6950
 IR Inten    --      2.4604                 2.1262                 0.9978

                     10                     11                     12
                      A                      A                      A
 Frequencies --    586.8077               626.1758               709.5903
 Red. masses --      3.4123                 3.9065                 4.3215
 Frc consts  --      0.6923                 0.9025                 1.2820
 IR Inten    --      3.8716                 6.9406                 0.9941

                     13                     14                     15
                      A                      A                      A
 Frequencies --    746.9083               829.2371               832.0134
 Red. masses --      3.4301                 1.9013                 3.2315
 Frc consts  --      1.1274                 0.7703                 1.3180
 IR Inten    --     26.2805                 1.7031                29.7306

                     16                     17                     18
                      A                      A                      A
 Frequencies --    838.5109               882.1530               916.2839
 Red. masses --      2.2662                 3.4675                 1.7289
 Frc consts  --      0.9388                 1.5898                 0.8552
 IR Inten    --      0.3262                 4.6028                 0.9396

                     19                     20                     21
                      A                      A                      A
 Frequencies --    934.1783               984.8021              1027.2394
 Red. masses --      1.6680                 1.4241                 1.6669
 Frc consts  --      0.8577                 0.8138                 1.0363
 IR Inten    --     12.6333                 6.8092                 5.2511

                     22                     23                     24
                      A                      A                      A
 Frequencies --   1034.9088              1058.2759              1072.2635
 Red. masses --      2.9555                 2.6000                 2.7977
 Frc consts  --      1.8650                 1.7156                 1.8952
 IR Inten    --     16.6479                21.4751                89.9890

                     25                     26                     27
                      A                      A                      A
 Frequencies --   1107.0366              1141.5791              1159.5957
 Red. masses --      2.6519                 1.7283                 1.9265
 Frc consts  --      1.9149                 1.3270                 1.5263
 IR Inten    --     47.5704                 3.8741                 5.5997

                     28                     29                     30
                      A                      A                      A
 Frequencies --   1187.2106              1224.8410              1244.7530
 Red. masses --      2.2878                 1.2451                 2.1971
 Frc consts  --      1.8998                 1.1005                 2.0057
 IR Inten    --     11.6742                 2.3917                11.3251

                     31                     32                     33
                      A                      A                      A
 Frequencies --   1278.4880              1290.7355              1388.1829
 Red. masses --      3.4538                 2.4008                 1.6182
 Frc consts  --      3.3261                 2.3565                 1.8373
 IR Inten    --     31.1305                24.4020                 2.6152

                     34                     35                     36
                      A                      A                      A
 Frequencies --   1405.2460              1412.0316              1428.8992
 Red. masses --      1.5537                 1.4735                 2.3538
 Frc consts  --      1.8077                 1.7310                 2.8316
 IR Inten    --     12.6585                11.6557                 1.5355

                     37                     38                     39
                      A                      A                      A
 Frequencies --   1477.3035              1480.3423              1492.3979
 Red. masses --      1.0465                 1.0557                 1.0514
 Frc consts  --      1.3456                 1.3631                 1.3796
 IR Inten    --      2.6114                 2.5573                 3.8945

                     40                     41                     42
                      A                      A                      A
 Frequencies --   1500.3269              1504.5835              2979.8201
 Red. masses --      1.0961                 1.0957                 1.0687
 Frc consts  --      1.4537                 1.4614                 5.5910
 IR Inten    --      0.8172                 1.6493                69.0977

                     43                     44                     45
                      A                      A                      A
 Frequencies --   3037.4385              3039.5421              3079.7558
 Red. masses --      1.0349                 1.0357                 1.0946
 Frc consts  --      5.6256                 5.6377                 6.1171
 IR Inten    --     29.5292                14.3639                21.7360

                     46                     47                     48
                      A                      A                      A
 Frequencies --   3105.2274              3108.5166              3114.1847
 Red. masses --      1.1018                 1.1010                 1.1010
 Frc consts  --      6.2593                 6.2680                 6.2908
 IR Inten    --     16.4252                16.5092                15.6485

                     49                     50                     51
                      A                      A                      A
 Frequencies --   3124.2515              3164.9626              3189.7193
 Red. masses --      1.1013                 1.0909                 1.0985
 Frc consts  --      6.3334                 6.4386                 6.5851
 IR Inten    --     12.8763                26.8826                 8.8021

 - Thermochemistry -
 -------------------
 Temperature   298.150 Kelvin.  Pressure   1.00000 Atm.
 Atom     1 has atomic number  6 and mass  12.00000

 Molecular mass:   126.06808 amu.
 Principal axes and moments of inertia in atomic units:
                           1         2         3
     Eigenvalues --   536.786731161.372641330.00407
           X            0.99957   0.02845   0.00647
           Y           -0.02831   0.99938  -0.02086
           Z           -0.00706   0.02067   0.99976
 This molecule is an asymmetric top.
 Rotational symmetry number  1.
 Warning -- assumption of classical behavior for rotation
           may cause significant error
 Rotational temperatures (Kelvin)      0.16136     0.07458     0.06512
 Rotational constants (GHZ):           3.36212     1.55397     1.35694
 Zero-point vibrational energy     415579.9 (Joules/Mol)
                                   99.32598 (Kcal/Mol)
 Warning -- explicit consideration of  10 degrees of freedom as
           vibrations may cause significant error
 Vibrational temperatures:    274.03   293.67   305.64   328.64   358.12
          (Kelvin)            467.49   535.13   602.85   766.90   844.28
                              900.93  1020.94  1074.63  1193.09  1197.08
                             1206.43  1269.22  1318.33  1344.07  1416.91
                             1477.97  1489.00  1522.62  1542.75  1592.78
                             1642.48  1668.40  1708.13  1762.27  1790.92
                             1839.46  1857.08  1997.28  2021.83  2031.60
                             2055.86  2125.51  2129.88  2147.22  2158.63
                             2164.76  4287.29  4370.19  4373.22  4431.08
                             4467.72  4472.46  4480.61  4495.10  4553.67
                             4589.29

 Zero-point correction=                           0.158286 (Hartree/Particle)
 Thermal correction to Energy=                    0.166249
 Thermal correction to Enthalpy=                  0.167193
 Thermal correction to Gibbs Free Energy=         0.126487
 Sum of electronic and zero-point Energies=           -422.991779
 Sum of electronic and thermal Energies=              -422.983816
 Sum of electronic and thermal Enthalpies=            -422.982872
 Sum of electronic and thermal Free Energies=         -423.023578

                     E (Thermal)             CV                S
                      KCal/Mol        Cal/Mol-Kelvin    Cal/Mol-Kelvin
 Total                  104.323             31.784             85.673
 Electronic               0.000              0.000              0.000
 Translational            0.889              2.981             40.409
 Rotational               0.889              2.981             28.207
 Vibrational            102.545             25.823             17.057
 Vibration     1          0.634              1.853              2.223
 Vibration     2          0.640              1.834              2.096
 Vibration     3          0.643              1.822              2.023
 Vibration     4          0.651              1.798              1.891
 Vibration     5          0.662              1.765              1.738
 Vibration     6          0.709              1.626              1.285
 Vibration     7          0.744              1.530              1.072
 Vibration     8          0.782              1.429              0.895
 Vibration     9          0.888              1.177              0.580
 Vibration    10          0.944              1.060              0.473

 Optimization completed.
    -- Stationary point found.
 Normal termination of Gaussian 09 at Mon Jan 27 19:34:25 2020.
