 Gaussian 09, Revision D.01,
 Gaussian 09:  ES64L-G09RevD.01 24-Apr-2013

 -----------------------------
 # b3lyp 6-31G(2df,p) opt Freq
 -----------------------------

 -----
 titel
 -----
 Symbolic Z-matrix:
 Charge =  0 Multiplicity = 1

 SCF Done:  E(RB3LYP) =  -423.126415295     A.U. after   13 cycles
 Optimization completed.
    -- Stationary point found.
 Normal termination of Gaussian 09 at Tue Jan 28 00:01:09 2020.

 ----------------------------------------------------------------------
 #N Geom=AllCheck Guess=TCheck SCRF=Check GenChk RB3LYP/6-31G(2df,p) Fr
 eq
 ----------------------------------------------------------------------

 Structure from the checkpoint file:  "/scratch/puck/g09_3ccbbdb7-430d-4d51-b14a-644433b3f552/Gau-2005.chk"
 -----
 titel
 -----
 Charge =  0 Multiplicity = 1

                         Standard orientation:
 ---------------------------------------------------------------------
 Center     Atomic      Atomic             Coordinates (Angstroms)
 Number     Number       Type             X           Y           Z
 ---------------------------------------------------------------------
      1          8           0        1.081759    2.076289   -0.076189
      2          6           0        0.239327    1.010212   -0.445889
      3          6           0       -1.082814    0.819989    0.356835
      4          8           0       -2.141020    0.279065   -0.455341
      5          6           0       -1.842450   -1.073195   -0.030739
      6          6           0       -0.635835   -0.605602    0.804041
      7          6           0        0.664251   -0.402681    0.019497
      8          6           0        2.049397   -0.737690    0.505476
      9          6           0        1.485528   -1.418302   -0.717379
     10          1           0        1.364604    1.929998    0.833304
     11          1           0        0.051994    1.119554   -1.517463
     12          1           0       -1.402526    1.638132    1.009127
     13          1           0       -2.668020   -1.491077    0.558945
     14          1           0       -1.627190   -1.739286   -0.875008
     15          1           0       -0.565507   -0.946487    1.837142
     16          1           0        2.823731    0.008776    0.358506
     17          1           0        2.145346   -1.317189    1.418306
     18          1           0        1.886634   -1.139025   -1.686350
     19          1           0        1.200602   -2.462615   -0.635322
 ---------------------------------------------------------------------

 SCF Done:  E(RB3LYP) =  -423.126415295     A.U. after    1 cycles

 The electronic state is 1-A.
 Alpha  occ. eigenvalues --  -19.14239 -19.13348 -10.23087 -10.23025 -10.22933
 Alpha  occ. eigenvalues --  -10.19966 -10.19472 -10.19388 -10.19156  -1.04214
 Alpha  occ. eigenvalues --   -1.02217  -0.86988  -0.78228  -0.71258  -0.63682
 Alpha  occ. eigenvalues --   -0.60786  -0.58681  -0.54126  -0.51599  -0.49621
 Alpha  occ. eigenvalues --   -0.48391  -0.46218  -0.43707  -0.41815  -0.40265
 Alpha  occ. eigenvalues --   -0.38760  -0.37100  -0.35461  -0.32562  -0.30383
 Alpha  occ. eigenvalues --   -0.28744  -0.28067  -0.27391  -0.23542
 Alpha virt. eigenvalues --    0.05548   0.08344   0.08662   0.10287   0.11393
 Alpha virt. eigenvalues --    0.11642   0.13914   0.15476   0.15839   0.17230
 Alpha virt. eigenvalues --    0.18000   0.19220   0.19932   0.21298   0.22132

 Mulliken charges:
               1
     1  O   -0.422534
     2  C    0.041249
     3  C    0.068665
     4  O   -0.287535
     5  C   -0.079449
     6  C   -0.189063
     7  C    0.323261
     8  C   -0.342665
     9  C   -0.325082
    10  H    0.281084
    11  H    0.101009
    12  H    0.077356
    13  H    0.100552
    14  H    0.103628
    15  H    0.076889
    16  H    0.123114
    17  H    0.114172
    18  H    0.121416
    19  H    0.113932
 Sum of Mulliken charges =   0.00000

 Dipole moment (field-independent basis, Debye):
    X=              1.0454    Y=             -1.7910    Z=              1.8666  Tot=              2.7901
 Quadrupole moment (field-independent basis, Debye-Ang):
   XX=            -56.8488   YY=            -54.6578   ZZ=            -50.6255
   XY=              1.2512   XZ=             -0.6135   YZ=              2.4758

  Exact polarizability:  81.403   0.909  76.532  -0.079   2.008  66.757
 Approx polarizability: 109.420   1.283 110.934   2.988   1.971 103.077

                      1                      2                      3
                      A                      A                      A
 Frequencies --     70.5628               196.2931               217.5638
 Red. masses --      3.9289                 2.6658                 2.5415
 Frc consts  --      0.0115                 0.0605                 0.0709
 IR Inten    --      0.4482                 1.1240                 3.9093

                      4                      5                      6
                      A                      A                      A
 Frequencies --    245.6027               280.8439               300.8140
 Red. masses --      3.5580                 1.6007                 2.7247
 Frc consts  --      0.1264                 0.0744                 0.1453
 IR Inten    --      1.8878                30.3129                12.1020

                      7                      8                      9
                      A                      A                      A
 Frequencies --    341.2472               432.6793               552.0259
 Red. masses --      1.9069                 4.2801                 3.9180
 Frc consts  --      0.1308                 0.4721                 0.7035
 IR Inten    --     66.1535                 0.6107                 6.1320

                     10                     11                     12
                      A                      A                      A
 Frequencies --    566.2313               744.2916               786.0740
 Red. masses --      3.0234                 2.7586                 1.0993
 Frc consts  --      0.5711                 0.9004                 0.4002
 IR Inten    --      4.7434                12.8857                 2.2944

                     13                     14                     15
                      A                      A                      A
 Frequencies --    822.1179               849.7182               877.1706
 Red. masses --      1.7397                 1.7915                 3.5572
 Frc consts  --      0.6928                 0.7621                 1.6126
 IR Inten    --      7.7700                 4.9020                 4.2722

                     16                     17                     18
                      A                      A                      A
 Frequencies --    924.3249               943.6103               961.9504
 Red. masses --      2.2990                 2.0015                 2.2318
 Frc consts  --      1.1573                 1.0500                 1.2168
 IR Inten    --      5.1953                 2.7737                23.6747

                     19                     20                     21
                      A                      A                      A
 Frequencies --    984.9327              1000.1458              1013.4126
 Red. masses --      2.6910                 2.8496                 3.6551
 Frc consts  --      1.5381                 1.6794                 2.2117
 IR Inten    --      2.3296                 3.6490                42.7856

                     22                     23                     24
                      A                      A                      A
 Frequencies --   1037.3852              1049.4889              1070.0030
 Red. masses --      3.4627                 1.3660                 2.1499
 Frc consts  --      2.1956                 0.8865                 1.4502
 IR Inten    --     72.1103                 2.1970                 8.3150

                     25                     26                     27
                      A                      A                      A
 Frequencies --   1080.8492              1117.9760              1151.8615
 Red. masses --      1.4110                 3.0087                 1.4595
 Frc consts  --      0.9712                 2.2156                 1.1409
 IR Inten    --      3.0579                96.2314                 1.8380

                     28                     29                     30
                      A                      A                      A
 Frequencies --   1175.6251              1192.3866              1198.0379
 Red. masses --      1.4894                 1.3014                 1.5852
 Frc consts  --      1.2128                 1.0901                 1.3405
 IR Inten    --      1.4667                 0.3322                 3.5930

                     31                     32                     33
                      A                      A                      A
 Frequencies --   1218.0845              1251.3407              1263.5677
 Red. masses --      1.3296                 1.4441                 1.7130
 Frc consts  --      1.1623                 1.3323                 1.6114
 IR Inten    --      2.4786                 6.3545                 1.6401

                     34                     35                     36
                      A                      A                      A
 Frequencies --   1272.3984              1307.4527              1354.7005
 Red. masses --      1.7426                 1.6300                 1.5611
 Frc consts  --      1.6622                 1.6417                 1.6880
 IR Inten    --      0.9130                 3.9737                 2.4729

                     37                     38                     39
                      A                      A                      A
 Frequencies --   1378.3020              1417.0889              1461.5624
 Red. masses --      2.3232                 1.3246                 1.0874
 Frc consts  --      2.6003                 1.5672                 1.3686
 IR Inten    --      6.4042                60.5393                 1.5236

                     40                     41                     42
                      A                      A                      A
 Frequencies --   1497.5892              1519.0344              3012.1477
 Red. masses --      1.4243                 1.1023                 1.0552
 Frc consts  --      1.8821                 1.4986                 5.6410
 IR Inten    --      0.2539                 0.9090                77.7990

                     43                     44                     45
                      A                      A                      A
 Frequencies --   3058.5073              3067.5196              3081.5576
 Red. masses --      1.1103                 1.0888                 1.0867
 Frc consts  --      6.1197                 6.0365                 6.0800
 IR Inten    --     34.8860                46.9760                23.6527

                     46                     47                     48
                      A                      A                      A
 Frequencies --   3106.7703              3121.9637              3125.3571
 Red. masses --      1.0903                 1.0502                 1.0573
 Frc consts  --      6.2003                 6.0306                 6.0850
 IR Inten    --     32.2251                16.4899                10.8078

                     49                     50                     51
                      A                      A                      A
 Frequencies --   3201.3578              3215.7643              3801.8705
 Red. masses --      1.1179                 1.1157                 1.0657
 Frc consts  --      6.7501                 6.7980                 9.0761
 IR Inten    --      0.0513                12.9700                12.9880

 - Thermochemistry -
 -------------------
 Temperature   298.150 Kelvin.  Pressure   1.00000 Atm.
 Atom     1 has atomic number  8 and mass  15.99491

 Molecular mass:   126.06808 amu.
 Principal axes and moments of inertia in atomic units:
                           1         2         3
     Eigenvalues --   723.371701087.300661537.49929
           X            0.99998  -0.00243  -0.00574
           Y            0.00252   0.99986   0.01643
           Z            0.00570  -0.01645   0.99985
 This molecule is an asymmetric top.
 Rotational symmetry number  1.
 Warning -- assumption of classical behavior for rotation
           may cause significant error
 Rotational temperatures (Kelvin)      0.11974     0.07966     0.05633
 Rotational constants (GHZ):           2.49490     1.65984     1.17382
 Zero-point vibrational energy     418209.5 (Joules/Mol)
                                   99.95446 (Kcal/Mol)
 Warning -- explicit consideration of  10 degrees of freedom as
           vibrations may cause significant error
 Vibrational temperatures:    101.52   282.42   313.03   353.37   404.07
          (Kelvin)            432.80   490.98   622.53   794.24   814.68
                             1070.87  1130.98  1182.84  1222.55  1262.05
                             1329.90  1357.64  1384.03  1417.10  1438.98
                             1458.07  1492.56  1509.98  1539.49  1555.10
                             1608.52  1657.27  1691.46  1715.58  1723.71
                             1752.55  1800.40  1817.99  1830.70  1881.13
                             1949.11  1983.07  2038.87  2102.86  2154.69
                             2185.55  4333.80  4400.50  4413.47  4433.67
                             4469.94  4491.80  4496.69  4606.03  4626.76
                             5470.04

 Zero-point correction=                           0.159288 (Hartree/Particle)
 Thermal correction to Energy=                    0.167329
 Thermal correction to Enthalpy=                  0.168273
 Thermal correction to Gibbs Free Energy=         0.126699
 Sum of electronic and zero-point Energies=           -422.967128
 Sum of electronic and thermal Energies=              -422.959086
 Sum of electronic and thermal Enthalpies=            -422.958142
 Sum of electronic and thermal Free Energies=         -422.999716

                     E (Thermal)             CV                S
                      KCal/Mol        Cal/Mol-Kelvin    Cal/Mol-Kelvin
 Total                  105.001             31.396             87.499
 Electronic               0.000              0.000              0.000
 Translational            0.889              2.981             40.409
 Rotational               0.889              2.981             28.582
 Vibrational            103.223             25.434             18.508
 Vibration     1          0.598              1.968              4.138
 Vibration     2          0.636              1.845              2.168
 Vibration     3          0.646              1.814              1.979
 Vibration     4          0.660              1.770              1.762
 Vibration     5          0.681              1.709              1.529
 Vibration     6          0.693              1.672              1.412
 Vibration     7          0.721              1.593              1.206
 Vibration     8          0.794              1.399              0.850
 Vibration     9          0.907              1.135              0.540
 Vibration    10          0.922              1.104              0.512

 Normal termination of Gaussian 09 at Tue Jan 28 00:43:11 2020.
