 Gaussian 09, Revision D.01,
 Gaussian 09:  ES64L-G09RevD.01 24-Apr-2013

 -----------------------------
 # b3lyp 6-31G(2df,p) opt Freq
 -----------------------------

 -----
 titel
 -----
 Symbolic Z-matrix:
 Charge =  0 Multiplicity = 1

 SCF Done:  E(RB3LYP) =  -423.174808995     A.U. after   14 cycles
 Optimization completed.
    -- Stationary point found.
 Normal termination of Gaussian 09 at Tue Jan 28 04:11:20 2020.

 ----------------------------------------------------------------------
 #N Geom=AllCheck Guess=TCheck SCRF=Check GenChk RB3LYP/6-31G(2df,p) Fr
 eq
 ----------------------------------------------------------------------

 Structure from the checkpoint file:  "/scratch/puck/g09_422fb284-002d-42c3-be23-b85b6a55f565/Gau-68904.chk"
 -----
 titel
 -----
 Charge =  0 Multiplicity = 1

                         Standard orientation:
 ---------------------------------------------------------------------
 Center     Atomic      Atomic             Coordinates (Angstroms)
 Number     Number       Type             X           Y           Z
 ---------------------------------------------------------------------
      1          8           0       -1.744487    1.511754    0.437231
      2          6           0       -1.409517    0.154056    0.584550
      3          6           0       -1.947817   -0.857607   -0.446729
      4          8           0       -0.613472   -1.288163   -0.766956
      5          6           0       -0.010476   -0.205697    0.024588
      6          6           0        1.093062   -0.687658    0.985587
      7          6           0        2.436050   -0.206168    0.383950
      8          6           0        2.003440    0.787884   -0.664584
      9          6           0        0.683695    0.806817   -0.842681
     10          1           0       -2.597304    1.665281    0.855072
     11          1           0       -1.538094   -0.182597    1.622039
     12          1           0       -2.570578   -1.680024   -0.074613
     13          1           0       -2.448415   -0.371922   -1.295610
     14          1           0        0.935859   -0.231210    1.968463
     15          1           0        1.034913   -1.771335    1.109810
     16          1           0        3.092158    0.242943    1.138521
     17          1           0        3.008457   -1.026305   -0.068744
     18          1           0        2.714199    1.394566   -1.216202
     19          1           0        0.141849    1.422117   -1.549027
 ---------------------------------------------------------------------

 SCF Done:  E(RB3LYP) =  -423.174808995     A.U. after    1 cycles

 The electronic state is 1-A.
 Alpha  occ. eigenvalues --  -19.14558 -19.12351 -10.23411 -10.23059 -10.21947
 Alpha  occ. eigenvalues --  -10.18225 -10.18070 -10.17710 -10.17023  -1.04016
 Alpha  occ. eigenvalues --   -1.01355  -0.83268  -0.72386  -0.70782  -0.69337
 Alpha  occ. eigenvalues --   -0.60916  -0.55993  -0.53051  -0.50265  -0.49849
 Alpha  occ. eigenvalues --   -0.47085  -0.44892  -0.43693  -0.41429  -0.37570
 Alpha  occ. eigenvalues --   -0.36212  -0.35827  -0.35313  -0.34501  -0.33352
 Alpha  occ. eigenvalues --   -0.30331  -0.26659  -0.24740  -0.23744
 Alpha virt. eigenvalues --    0.01553   0.07096   0.09639   0.11303   0.12184
 Alpha virt. eigenvalues --    0.13219   0.14782   0.15560   0.15648   0.17130
 Alpha virt. eigenvalues --    0.18261   0.19164   0.20116   0.21468   0.22406

 Mulliken charges:
               1
     1  O   -0.423878
     2  C   -0.008125
     3  C   -0.110134
     4  O   -0.325617
     5  C    0.401639
     6  C   -0.292364
     7  C   -0.264789
     8  C   -0.077400
     9  C   -0.089581
    10  H    0.288529
    11  H    0.073220
    12  H    0.094684
    13  H    0.096245
    14  H    0.106602
    15  H    0.112772
    16  H    0.105319
    17  H    0.114573
    18  H    0.095842
    19  H    0.102464
 Sum of Mulliken charges =   0.00000

 Dipole moment (field-independent basis, Debye):
    X=             -1.0294    Y=              0.5509    Z=              1.6615  Tot=              2.0307
 Quadrupole moment (field-independent basis, Debye-Ang):
   XX=            -43.5412   YY=            -56.3745   ZZ=            -52.4126
   XY=             -0.8547   XZ=             -2.4989   YZ=             -1.8874

  Exact polarizability:  99.793   2.744  67.769   2.240  -5.389  65.325
 Approx polarizability: 137.357   2.308 101.950   4.300  -5.089  96.707

                      1                      2                      3
                      A                      A                      A
 Frequencies --     61.3474                75.3387               184.4408
 Red. masses --      2.7588                 2.4679                 3.2204
 Frc consts  --      0.0061                 0.0083                 0.0645
 IR Inten    --      0.8994                 0.9525                 6.0263

                      4                      5                      6
                      A                      A                      A
 Frequencies --    226.1461               252.2307               292.0989
 Red. masses --      1.1309                 2.9615                 3.2542
 Frc consts  --      0.0341                 0.1110                 0.1636
 IR Inten    --     88.3614                 6.6562                 8.2347

                      7                      8                      9
                      A                      A                      A
 Frequencies --    389.3820               470.1672               479.9280
 Red. masses --      3.5001                 3.1577                 2.9585
 Frc consts  --      0.3127                 0.4113                 0.4015
 IR Inten    --      6.2981                 6.2038                 3.3511

                     10                     11                     12
                      A                      A                      A
 Frequencies --    563.1237               704.1974               754.8346
 Red. masses --      2.8306                 2.1117                 2.8272
 Frc consts  --      0.5289                 0.6170                 0.9491
 IR Inten    --      3.7554                 7.1391                 4.4213

                     13                     14                     15
                      A                      A                      A
 Frequencies --    768.5872               806.6659               833.8159
 Red. masses --      2.7178                 2.0542                 2.2855
 Frc consts  --      0.9459                 0.7875                 0.9362
 IR Inten    --      9.3499                13.6875                 9.4923

                     16                     17                     18
                      A                      A                      A
 Frequencies --    897.4468               918.0132               937.6493
 Red. masses --      2.2364                 2.0983                 2.4417
 Frc consts  --      1.0613                 1.0419                 1.2648
 IR Inten    --     34.8385                 2.9656                20.9713

                     19                     20                     21
                      A                      A                      A
 Frequencies --    980.2244               987.2917              1016.6382
 Red. masses --      1.5714                 1.9391                 5.0915
 Frc consts  --      0.8896                 1.1136                 3.1005
 IR Inten    --     10.0492                 4.7733               101.6098

                     22                     23                     24
                      A                      A                      A
 Frequencies --   1064.2262              1071.7873              1097.5088
 Red. masses --      2.3152                 2.7243                 1.6038
 Frc consts  --      1.5449                 1.8439                 1.1382
 IR Inten    --      8.0285                 9.1255                22.7191

                     25                     26                     27
                      A                      A                      A
 Frequencies --   1130.2201              1146.3588              1170.7038
 Red. masses --      1.7540                 1.7328                 1.2708
 Frc consts  --      1.3201                 1.3417                 1.0262
 IR Inten    --     81.5000                 8.6566                 6.0021

                     28                     29                     30
                      A                      A                      A
 Frequencies --   1182.3384              1199.0016              1238.3047
 Red. masses --      1.3263                 1.8275                 1.5086
 Frc consts  --      1.0924                 1.5480                 1.3629
 IR Inten    --      5.4452                15.9553                17.1554

                     31                     32                     33
                      A                      A                      A
 Frequencies --   1259.5180              1295.6625              1313.6269
 Red. masses --      1.5069                 1.3747                 1.4724
 Frc consts  --      1.4084                 1.3597                 1.4970
 IR Inten    --      7.7217                 1.3771                34.1418

                     34                     35                     36
                      A                      A                      A
 Frequencies --   1325.3307              1331.0025              1387.0623
 Red. masses --      1.6068                 1.4395                 1.8064
 Frc consts  --      1.6628                 1.5025                 2.0476
 IR Inten    --      3.1473                 2.1536                12.8228

                     37                     38                     39
                      A                      A                      A
 Frequencies --   1439.1284              1467.4005              1491.4589
 Red. masses --      1.5188                 1.0803                 1.0985
 Frc consts  --      1.8534                 1.3705                 1.4397
 IR Inten    --      5.7894                 1.1108                 2.6493

                     40                     41                     42
                      A                      A                      A
 Frequencies --   1514.2875              1681.7051              3002.8633
 Red. masses --      1.1051                 6.4643                 1.0565
 Frc consts  --      1.4930                10.7714                 5.6130
 IR Inten    --      2.5889                 5.9512                84.4145

                     43                     44                     45
                      A                      A                      A
 Frequencies --   3008.0872              3023.8586              3047.1721
 Red. masses --      1.0863                 1.0629                 1.0801
 Frc consts  --      5.7913                 5.7262                 5.9091
 IR Inten    --     25.2251                37.4118                 7.4482

                     46                     47                     48
                      A                      A                      A
 Frequencies --   3056.7415              3059.8819              3110.9347
 Red. masses --      1.1077                 1.0831                 1.1005
 Frc consts  --      6.0978                 5.9747                 6.2754
 IR Inten    --     55.5547                41.0886                15.3919

                     49                     50                     51
                      A                      A                      A
 Frequencies --   3184.1636              3226.1311              3824.3578
 Red. masses --      1.0884                 1.1004                 1.0663
 Frc consts  --      6.5016                 6.7477                 9.1888
 IR Inten    --     13.5950                 8.5242                26.6572

 - Thermochemistry -
 -------------------
 Temperature   298.150 Kelvin.  Pressure   1.00000 Atm.
 Atom     1 has atomic number  8 and mass  15.99491

 Molecular mass:   126.06808 amu.
 Principal axes and moments of inertia in atomic units:
                           1         2         3
     Eigenvalues --   606.772761337.944211507.35968
           X            0.99998   0.00434   0.00547
           Y           -0.00384   0.99603  -0.08893
           Z           -0.00584   0.08891   0.99602
 This molecule is an asymmetric top.
 Rotational symmetry number  1.
 Warning -- assumption of classical behavior for rotation
           may cause significant error
 Rotational temperatures (Kelvin)      0.14275     0.06474     0.05746
 Rotational constants (GHZ):           2.97433     1.34889     1.19729
 Zero-point vibrational energy     418396.3 (Joules/Mol)
                                   99.99911 (Kcal/Mol)
 Warning -- explicit consideration of  10 degrees of freedom as
           vibrations may cause significant error
 Vibrational temperatures:     88.27   108.40   265.37   325.37   362.90
          (Kelvin)            420.26   560.23   676.46   690.51   810.21
                             1013.18  1086.04  1105.82  1160.61  1199.67
                             1291.22  1320.81  1349.07  1410.32  1420.49
                             1462.71  1531.18  1542.06  1579.07  1626.13
                             1649.35  1684.38  1701.12  1725.09  1781.64
                             1812.16  1864.17  1890.01  1906.85  1915.01
                             1995.67  2070.58  2111.26  2145.87  2178.72
                             2419.60  4320.45  4327.96  4350.65  4384.20
                             4397.96  4402.48  4475.94  4581.30  4641.68
                             5502.39

 Zero-point correction=                           0.159359 (Hartree/Particle)
 Thermal correction to Energy=                    0.167775
 Thermal correction to Enthalpy=                  0.168719
 Thermal correction to Gibbs Free Energy=         0.125816
 Sum of electronic and zero-point Energies=           -423.015450
 Sum of electronic and thermal Energies=              -423.007034
 Sum of electronic and thermal Enthalpies=            -423.006090
 Sum of electronic and thermal Free Energies=         -423.048993

                     E (Thermal)             CV                S
                      KCal/Mol        Cal/Mol-Kelvin    Cal/Mol-Kelvin
 Total                  105.280             31.726             90.297
 Electronic               0.000              0.000              0.000
 Translational            0.889              2.981             40.409
 Rotational               0.889              2.981             28.594
 Vibrational            103.503             25.764             21.294
 Vibration     1          0.597              1.973              4.413
 Vibration     2          0.599              1.965              4.009
 Vibration     3          0.631              1.861              2.283
 Vibration     4          0.650              1.801              1.909
 Vibration     5          0.664              1.759              1.715
 Vibration     6          0.687              1.688              1.462
 Vibration     7          0.757              1.493              1.003
 Vibration     8          0.827              1.316              0.737
 Vibration     9          0.836              1.295              0.710
 Vibration    10          0.919              1.111              0.518

 Optimization completed.
    -- Stationary point found.
 Normal termination of Gaussian 09 at Tue Jan 28 04:59:55 2020.
