 Gaussian 09, Revision D.01,
 Gaussian 09:  ES64L-G09RevD.01 24-Apr-2013

 -----------------------------
 # b3lyp 6-31G(2df,p) opt Freq
 -----------------------------

 -----
 titel
 -----
 Symbolic Z-matrix:
 Charge =  0 Multiplicity = 1

 SCF Done:  E(RB3LYP) =  -423.088245233     A.U. after   12 cycles
 Optimization completed.
    -- Stationary point found.
 Normal termination of Gaussian 09 at Mon Jan 27 16:24:05 2020.

 ----------------------------------------------------------------------
 #N Geom=AllCheck Guess=TCheck SCRF=Check GenChk RB3LYP/6-31G(2df,p) Fr
 eq
 ----------------------------------------------------------------------

 Structure from the checkpoint file:  "/scratch/puck/g09_a2d144cb-791b-452a-ab35-80cfe841ddd8/Gau-37091.chk"
 -----
 titel
 -----
 Charge =  0 Multiplicity = 1

                         Standard orientation:
 ---------------------------------------------------------------------
 Center     Atomic      Atomic             Coordinates (Angstroms)
 Number     Number       Type             X           Y           Z
 ---------------------------------------------------------------------
      1          6           0        1.297395    1.558060    0.015608
      2          6           0        1.135532    0.054698    0.024973
      3          6           0        2.202742   -0.770937    0.619913
      4          8           0        2.097231   -0.644123   -0.796520
      5          6           0       -0.235429   -0.577037   -0.057420
      6          6           0       -1.393537   -0.172979    0.899927
      7          6           0       -2.407007   -0.800438   -0.086778
      8          6           0       -1.394978    0.066851   -0.872289
      9          8           0       -1.538492    1.111571    0.173403
     10          1           0        0.854300    1.993731   -0.883688
     11          1           0        0.804113    2.017431    0.874270
     12          1           0        2.362156    1.806504    0.030930
     13          1           0        3.064358   -0.281662    1.073057
     14          1           0        1.971462   -1.757790    1.021210
     15          1           0       -0.117800   -1.653963   -0.208349
     16          1           0       -1.414020   -0.138183    1.989749
     17          1           0       -2.394024   -1.882880   -0.234233
     18          1           0       -3.411985   -0.382562   -0.028750
     19          1           0       -1.416781    0.390478   -1.912863
 ---------------------------------------------------------------------

 SCF Done:  E(RB3LYP) =  -423.088245233     A.U. after    1 cycles

 The electronic state is 1-A.
 Alpha  occ. eigenvalues --  -19.14508 -19.13532 -10.25424 -10.25300 -10.24253
 Alpha  occ. eigenvalues --  -10.22957 -10.20369 -10.19802 -10.17310  -1.06660
 Alpha  occ. eigenvalues --   -1.05815  -0.80182  -0.74816  -0.68687  -0.66078
 Alpha  occ. eigenvalues --   -0.65148  -0.59052  -0.53413  -0.52548  -0.47954
 Alpha  occ. eigenvalues --   -0.47598  -0.44700  -0.42282  -0.40574  -0.40539
 Alpha  occ. eigenvalues --   -0.39128  -0.36802  -0.35075  -0.34730  -0.32759
 Alpha  occ. eigenvalues --   -0.32728  -0.28404  -0.26514  -0.24040
 Alpha virt. eigenvalues --    0.08143   0.08927   0.10788   0.11379   0.11933
 Alpha virt. eigenvalues --    0.12340   0.13258   0.13739   0.14413   0.15359
 Alpha virt. eigenvalues --    0.16575   0.16947   0.18056   0.18575   0.21160

 Mulliken charges:
               1
     1  C   -0.456229
     2  C    0.372387
     3  C   -0.221236
     4  O   -0.276219
     5  C   -0.004533
     6  C    0.027529
     7  C   -0.226119
     8  C    0.021135
     9  O   -0.312733
    10  H    0.128269
    11  H    0.131824
    12  H    0.112316
    13  H    0.111210
    14  H    0.103920
    15  H    0.078402
    16  H    0.096899
    17  H    0.099689
    18  H    0.112338
    19  H    0.101151
 Sum of Mulliken charges =   0.00000

 Dipole moment (field-independent basis, Debye):
    X=             -0.7105    Y=             -1.1730    Z=              1.2469  Tot=              1.8535
 Quadrupole moment (field-independent basis, Debye-Ang):
   XX=            -54.5483   YY=            -54.3083   ZZ=            -51.6236
   XY=              4.1544   XZ=              4.5076   YZ=             -2.1575

  Exact polarizability:  88.156   0.176  72.130   3.898  -2.561  66.393
 Approx polarizability: 113.543  -4.977 110.295   2.292  -1.893 109.392

                      1                      2                      3
                      A                      A                      A
 Frequencies --     46.0083               173.2845               206.7289
 Red. masses --      3.6740                 3.0609                 2.6533
 Frc consts  --      0.0046                 0.0542                 0.0668
 IR Inten    --      2.3288                 1.4566                 4.8117

                      4                      5                      6
                      A                      A                      A
 Frequencies --    225.4989               327.6266               348.0627
 Red. masses --      1.2443                 5.1999                 2.8380
 Frc consts  --      0.0373                 0.3289                 0.2026
 IR Inten    --      1.6747                 0.2238                 0.6351

                      7                      8                      9
                      A                      A                      A
 Frequencies --    373.9714               489.6977               511.1376
 Red. masses --      2.6053                 3.2241                 2.6557
 Frc consts  --      0.2147                 0.4555                 0.4088
 IR Inten    --      3.7926                 4.9322                 6.2822

                     10                     11                     12
                      A                      A                      A
 Frequencies --    621.7134               757.9881               778.0747
 Red. masses --      3.0241                 5.5812                 3.0520
 Frc consts  --      0.6887                 1.8893                 1.0886
 IR Inten    --      9.4331                17.6984                 3.8936

                     13                     14                     15
                      A                      A                      A
 Frequencies --    796.0668               834.3691               877.1764
 Red. masses --      3.9071                 3.5065                 2.5177
 Frc consts  --      1.4588                 1.4383                 1.1414
 IR Inten    --      6.0579                18.5696                18.4326

                     16                     17                     18
                      A                      A                      A
 Frequencies --    882.9728               910.9208               918.8584
 Red. masses --      2.3497                 2.3189                 2.4510
 Frc consts  --      1.0793                 1.1337                 1.2192
 IR Inten    --     11.6436                 1.7545                 9.2421

                     19                     20                     21
                      A                      A                      A
 Frequencies --    929.0702              1005.0147              1031.5843
 Red. masses --      1.9180                 2.6299                 1.7127
 Frc consts  --      0.9755                 1.5651                 1.0738
 IR Inten    --      7.4776                 5.5098                 4.9948

                     22                     23                     24
                      A                      A                      A
 Frequencies --   1034.4229              1067.4863              1096.6083
 Red. masses --      1.0488                 1.6962                 1.5319
 Frc consts  --      0.6612                 1.1388                 1.0854
 IR Inten    --      0.5962                 7.3246                 2.1971

                     25                     26                     27
                      A                      A                      A
 Frequencies --   1128.2266              1134.4152              1138.5615
 Red. masses --      1.4605                 1.5473                 1.3655
 Frc consts  --      1.0953                 1.1732                 1.0430
 IR Inten    --      8.3040                14.7084                 3.0121

                     28                     29                     30
                      A                      A                      A
 Frequencies --   1146.0187              1164.2769              1192.5247
 Red. masses --      3.4107                 1.3441                 1.3303
 Frc consts  --      2.6392                 1.0735                 1.1147
 IR Inten    --      1.4948                 0.6280                 1.9142

                     31                     32                     33
                      A                      A                      A
 Frequencies --   1209.9133              1249.8146              1282.7125
 Red. masses --      1.4615                 1.6556                 1.5622
 Frc consts  --      1.2605                 1.5237                 1.5144
 IR Inten    --     13.8131                 3.0090                 2.1458

                     34                     35                     36
                      A                      A                      A
 Frequencies --   1312.6666              1337.0848              1413.1754
 Red. masses --      2.3043                 2.7928                 1.3758
 Frc consts  --      2.3394                 2.9418                 1.6188
 IR Inten    --     13.2614                 6.8293                 7.6771

                     37                     38                     39
                      A                      A                      A
 Frequencies --   1435.2376              1476.1113              1486.8986
 Red. masses --      1.5289                 1.0790                 1.1302
 Frc consts  --      1.8556                 1.3852                 1.4722
 IR Inten    --      6.3061                 4.1563                 1.1832

                     40                     41                     42
                      A                      A                      A
 Frequencies --   1496.2838              1529.1383              3051.0706
 Red. masses --      1.1323                 1.3224                 1.0359
 Frc consts  --      1.4937                 1.8218                 5.6819
 IR Inten    --      3.6442                 3.0285                14.9751

                     43                     44                     45
                      A                      A                      A
 Frequencies --   3064.1694              3073.3606              3075.5714
 Red. masses --      1.0682                 1.0583                 1.0638
 Frc consts  --      5.9094                 5.8894                 5.9289
 IR Inten    --     12.6776                29.5754                40.2284

                     46                     47                     48
                      A                      A                      A
 Frequencies --   3113.3251              3120.4811              3123.3083
 Red. masses --      1.0911                 1.1016                 1.0959
 Frc consts  --      6.2311                 6.3199                 6.2988
 IR Inten    --     61.4000                21.9026                17.1588

                     49                     50                     51
                      A                      A                      A
 Frequencies --   3136.6553              3155.9551              3158.4154
 Red. masses --      1.1008                 1.1100                 1.1189
 Frc consts  --      6.3808                 6.5136                 6.5762
 IR Inten    --     14.0098                22.2793                29.1045

 - Thermochemistry -
 -------------------
 Temperature   298.150 Kelvin.  Pressure   1.00000 Atm.
 Atom     1 has atomic number  6 and mass  12.00000

 Molecular mass:   126.06808 amu.
 Principal axes and moments of inertia in atomic units:
                           1         2         3
     Eigenvalues --   504.894701452.953701632.45597
           X            0.99927   0.03416   0.01738
           Y           -0.03342   0.99859  -0.04133
           Z           -0.01876   0.04072   0.99899
 This molecule is an asymmetric top.
 Rotational symmetry number  1.
 Warning -- assumption of classical behavior for rotation
           may cause significant error
 Rotational temperatures (Kelvin)      0.17155     0.05961     0.05306
 Rotational constants (GHZ):           3.57449     1.24212     1.10554
 Zero-point vibrational energy     415401.6 (Joules/Mol)
                                   99.28335 (Kcal/Mol)
 Warning -- explicit consideration of   9 degrees of freedom as
           vibrations may cause significant error
 Vibrational temperatures:     66.20   249.32   297.44   324.44   471.38
          (Kelvin)            500.78   538.06   704.56   735.41   894.51
                             1090.57  1119.47  1145.36  1200.47  1262.06
                             1270.40  1310.61  1322.03  1336.72  1445.99
                             1484.22  1488.30  1535.87  1577.77  1623.26
                             1632.17  1638.13  1648.86  1675.13  1715.77
                             1740.79  1798.20  1845.53  1888.63  1923.76
                             2033.24  2064.98  2123.79  2139.31  2152.82
                             2200.09  4389.80  4408.65  4421.87  4425.06
                             4479.37  4489.67  4493.74  4512.94  4540.71
                             4544.25

 Zero-point correction=                           0.158218 (Hartree/Particle)
 Thermal correction to Energy=                    0.166217
 Thermal correction to Enthalpy=                  0.167161
 Thermal correction to Gibbs Free Energy=         0.125317
 Sum of electronic and zero-point Energies=           -422.930027
 Sum of electronic and thermal Energies=              -422.922029
 Sum of electronic and thermal Enthalpies=            -422.921084
 Sum of electronic and thermal Free Energies=         -422.962928

                     E (Thermal)             CV                S
                      KCal/Mol        Cal/Mol-Kelvin    Cal/Mol-Kelvin
 Total                  104.302             31.188             88.068
 Electronic               0.000              0.000              0.000
 Translational            0.889              2.981             40.409
 Rotational               0.889              2.981             28.573
 Vibrational            102.525             25.227             19.087
 Vibration     1          0.595              1.979              4.982
 Vibration     2          0.627              1.875              2.400
 Vibration     3          0.641              1.830              2.072
 Vibration     4          0.650              1.802              1.914
 Vibration     5          0.711              1.620              1.272
 Vibration     6          0.726              1.579              1.175
 Vibration     7          0.745              1.526              1.063
 Vibration     8          0.846              1.273              0.684
 Vibration     9          0.866              1.225              0.631

 Optimization completed.
    -- Stationary point found.
 Normal termination of Gaussian 09 at Mon Jan 27 17:18:18 2020.
