 Gaussian 09, Revision D.01,
 Gaussian 09:  ES64L-G09RevD.01 24-Apr-2013

 -----------------------------
 # b3lyp 6-31G(2df,p) opt Freq
 -----------------------------

 -----
 titel
 -----
 Symbolic Z-matrix:
 Charge =  0 Multiplicity = 1

 SCF Done:  E(RB3LYP) =  -423.207022039     A.U. after   14 cycles
 Optimization completed.
    -- Stationary point found.
 Normal termination of Gaussian 09 at Tue Jan 28 01:55:13 2020.

 ----------------------------------------------------------------------
 #N Geom=AllCheck Guess=TCheck SCRF=Check GenChk RB3LYP/6-31G(2df,p) Fr
 eq
 ----------------------------------------------------------------------

 Structure from the checkpoint file:  "/scratch/puck/g09_8a983993-11ae-4817-bc48-1e02d59cc71f/Gau-87574.chk"
 -----
 titel
 -----
 Charge =  0 Multiplicity = 1

                         Standard orientation:
 ---------------------------------------------------------------------
 Center     Atomic      Atomic             Coordinates (Angstroms)
 Number     Number       Type             X           Y           Z
 ---------------------------------------------------------------------
      1          8           0       -1.865763   -1.601691   -0.651741
      2          6           0       -1.546494   -0.700684    0.412430
      3          6           0       -0.062855   -0.778568    0.809682
      4          6           0        0.823222    0.048271   -0.143517
      5          6           0        0.394431    1.528092   -0.100835
      6          6           0       -1.101131    1.690681   -0.163755
      7          6           0       -1.967064    0.704126    0.068455
      8          6           0        2.278659   -0.093189    0.242977
      9          8           0        3.136581   -0.588894   -0.439615
     10          1           0       -1.599040   -1.182596   -1.476796
     11          1           0       -2.144136   -1.063480    1.257189
     12          1           0        0.054464   -0.400023    1.833913
     13          1           0        0.239875   -1.829757    0.807746
     14          1           0        0.722810   -0.338788   -1.163640
     15          1           0        0.774504    2.000231    0.819210
     16          1           0        0.862697    2.077820   -0.926057
     17          1           0       -1.468343    2.683723   -0.412964
     18          1           0       -3.036157    0.877828   -0.019817
     19          1           0        2.514181    0.307344    1.259440
 ---------------------------------------------------------------------

 SCF Done:  E(RB3LYP) =  -423.207022039     A.U. after    1 cycles

 The electronic state is 1-A.
 Alpha  occ. eigenvalues --  -19.14178 -19.13912 -10.27158 -10.24153 -10.20586
 Alpha  occ. eigenvalues --  -10.20391 -10.20014 -10.19387 -10.18981  -1.04878
 Alpha  occ. eigenvalues --   -1.02053  -0.84714  -0.76980  -0.74737  -0.65355
 Alpha  occ. eigenvalues --   -0.62791  -0.58134  -0.54602  -0.50777  -0.47700
 Alpha  occ. eigenvalues --   -0.46464  -0.44825  -0.44464  -0.43104  -0.41714
 Alpha  occ. eigenvalues --   -0.40933  -0.38354  -0.36121  -0.35639  -0.34754
 Alpha  occ. eigenvalues --   -0.31741  -0.28246  -0.26053  -0.24968
 Alpha virt. eigenvalues --   -0.02455   0.00205   0.07528   0.09239   0.10943
 Alpha virt. eigenvalues --    0.11925   0.13599   0.14361   0.16050   0.16313
 Alpha virt. eigenvalues --    0.17609   0.19161   0.19939   0.21372   0.22966

 Mulliken charges:
               1
     1  O   -0.435490
     2  C    0.087387
     3  C   -0.237607
     4  C   -0.076979
     5  C   -0.268223
     6  C   -0.061747
     7  C   -0.091238
     8  C    0.146397
     9  O   -0.245819
    10  H    0.280946
    11  H    0.091984
    12  H    0.100280
    13  H    0.120498
    14  H    0.087642
    15  H    0.116019
    16  H    0.121461
    17  H    0.097900
    18  H    0.098306
    19  H    0.068284
 Sum of Mulliken charges =   0.00000

 Dipole moment (field-independent basis, Debye):
    X=             -1.5643    Y=              2.3927    Z=              0.8380  Tot=              2.9789
 Quadrupole moment (field-independent basis, Debye-Ang):
   XX=            -64.3155   YY=            -54.7925   ZZ=            -50.6919
   XY=              0.2147   XZ=              2.8791   YZ=             -1.8185

  Exact polarizability:  91.138   2.534  78.515  -1.598  -0.801  63.972
 Approx polarizability: 126.531   9.163 120.134  -7.595   2.269 103.123

                      1                      2                      3
                      A                      A                      A
 Frequencies --     56.1390               101.0857               110.0509
 Red. masses --      5.1401                 3.6136                 3.5057
 Frc consts  --      0.0095                 0.0218                 0.0250
 IR Inten    --      5.3176                 1.9700                 2.1638

                      4                      5                      6
                      A                      A                      A
 Frequencies --    254.8953               280.1218               296.8195
 Red. masses --      1.9532                 1.5510                 1.7259
 Frc consts  --      0.0748                 0.0717                 0.0896
 IR Inten    --     10.6241                48.2352                39.1051

                      7                      8                      9
                      A                      A                      A
 Frequencies --    342.9514               357.4176               426.4746
 Red. masses --      2.9274                 3.8670                 2.7661
 Frc consts  --      0.2029                 0.2911                 0.2964
 IR Inten    --      4.8534                 1.0437                 0.5899

                     10                     11                     12
                      A                      A                      A
 Frequencies --    497.2865               554.5698               585.2597
 Red. masses --      2.7270                 3.7320                 3.3030
 Frc consts  --      0.3973                 0.6762                 0.6666
 IR Inten    --      3.5705                 9.6003                 0.8424

                     13                     14                     15
                      A                      A                      A
 Frequencies --    751.6851               777.3434               820.0632
 Red. masses --      1.5164                 2.7252                 3.0757
 Frc consts  --      0.5048                 0.9702                 1.2187
 IR Inten    --     16.3274                13.1542                10.5578

                     16                     17                     18
                      A                      A                      A
 Frequencies --    887.5998               903.9966               929.6193
 Red. masses --      1.5412                 3.6176                 2.5831
 Frc consts  --      0.7154                 1.7418                 1.3152
 IR Inten    --      5.2199                 7.8113                15.7789

                     19                     20                     21
                      A                      A                      A
 Frequencies --    980.1022              1008.0198              1016.0041
 Red. masses --      2.4080                 1.5178                 1.5541
 Frc consts  --      1.3628                 0.9087                 0.9452
 IR Inten    --     33.6195                 2.0938                 3.3077

                     22                     23                     24
                      A                      A                      A
 Frequencies --   1079.4425              1088.2920              1102.9144
 Red. masses --      2.0789                 2.9377                 2.1924
 Frc consts  --      1.4272                 2.0500                 1.5713
 IR Inten    --     48.3546                37.7027                 0.1550

                     25                     26                     27
                      A                      A                      A
 Frequencies --   1116.8453              1173.0385              1210.8238
 Red. masses --      2.6325                 1.1232                 1.1605
 Frc consts  --      1.9346                 0.9106                 1.0025
 IR Inten    --     24.1716                14.9482                 2.1816

                     28                     29                     30
                      A                      A                      A
 Frequencies --   1242.3133              1267.6443              1288.4572
 Red. masses --      1.2761                 1.3902                 1.2738
 Frc consts  --      1.1604                 1.3162                 1.2459
 IR Inten    --     17.3727                 8.3762                 2.4118

                     31                     32                     33
                      A                      A                      A
 Frequencies --   1318.8192              1353.8893              1366.3358
 Red. masses --      1.3826                 1.4557                 1.4529
 Frc consts  --      1.4169                 1.5722                 1.5981
 IR Inten    --      2.3286                 3.2225                 3.5269

                     34                     35                     36
                      A                      A                      A
 Frequencies --   1385.2169              1405.2395              1427.8428
 Red. masses --      1.5406                 1.2425                 1.3436
 Frc consts  --      1.7417                 1.4455                 1.6140
 IR Inten    --      1.6391                22.7238                28.9708

                     37                     38                     39
                      A                      A                      A
 Frequencies --   1429.5875              1468.9078              1482.0169
 Red. masses --      1.2767                 1.0888                 1.0916
 Frc consts  --      1.5373                 1.3841                 1.4126
 IR Inten    --     14.3844                 1.1038                11.3272

                     40                     41                     42
                      A                      A                      A
 Frequencies --   1718.2103              1836.0213              2834.1402
 Red. masses --      6.6549                10.4391                 1.0808
 Frc consts  --     11.5756                20.7332                 5.1147
 IR Inten    --      5.1512               203.8089                99.4623

                     43                     44                     45
                      A                      A                      A
 Frequencies --   2987.5000              3020.7948              3040.5129
 Red. masses --      1.0697                 1.0672                 1.0826
 Frc consts  --      5.6253                 5.7375                 5.8969
 IR Inten    --     21.9957                 8.4605                40.2249

                     46                     47                     48
                      A                      A                      A
 Frequencies --   3045.8036              3057.7240              3091.0920
 Red. masses --      1.0849                 1.0869                 1.0985
 Frc consts  --      5.9297                 5.9872                 6.1842
 IR Inten    --      7.2434                33.3629                18.7089

                     49                     50                     51
                      A                      A                      A
 Frequencies --   3147.5635              3173.2061              3810.6622
 Red. masses --      1.0843                 1.0965                 1.0662
 Frc consts  --      6.3293                 6.5051                 9.1224
 IR Inten    --      8.0770                26.8368                14.4437

 - Thermochemistry -
 -------------------
 Temperature   298.150 Kelvin.  Pressure   1.00000 Atm.
 Atom     1 has atomic number  8 and mass  15.99491

 Molecular mass:   126.06808 amu.
 Principal axes and moments of inertia in atomic units:
                           1         2         3
     Eigenvalues --   658.851561555.830951974.23788
           X            0.99997   0.00379   0.00733
           Y           -0.00364   0.99979  -0.02007
           Z           -0.00740   0.02005   0.99977
 This molecule is an asymmetric top.
 Rotational symmetry number  1.
 Warning -- assumption of classical behavior for rotation
           may cause significant error
 Rotational temperatures (Kelvin)      0.13146     0.05567     0.04387
 Rotational constants (GHZ):           2.73922     1.15999     0.91415
 Zero-point vibrational energy     418144.9 (Joules/Mol)
                                   99.93902 (Kcal/Mol)
 Warning -- explicit consideration of  12 degrees of freedom as
           vibrations may cause significant error
 Vibrational temperatures:     80.77   145.44   158.34   366.74   403.03
          (Kelvin)            427.06   493.43   514.24   613.60   715.48
                              797.90   842.06  1081.51  1118.42  1179.89
                             1277.06  1300.65  1337.51  1410.15  1450.31
                             1461.80  1553.08  1565.81  1586.85  1606.89
                             1687.74  1742.10  1787.41  1823.86  1853.80
                             1897.48  1947.94  1965.85  1993.02  2021.82
                             2054.34  2056.86  2113.43  2132.29  2472.12
                             2641.62  4077.69  4298.34  4346.24  4374.61
                             4382.23  4399.38  4447.39  4528.64  4565.53
                             5482.69

 Zero-point correction=                           0.159263 (Hartree/Particle)
 Thermal correction to Energy=                    0.168068
 Thermal correction to Enthalpy=                  0.169012
 Thermal correction to Gibbs Free Energy=         0.125160
 Sum of electronic and zero-point Energies=           -423.047759
 Sum of electronic and thermal Energies=              -423.038955
 Sum of electronic and thermal Enthalpies=            -423.038010
 Sum of electronic and thermal Free Energies=         -423.081862

                     E (Thermal)             CV                S
                      KCal/Mol        Cal/Mol-Kelvin    Cal/Mol-Kelvin
 Total                  105.464             32.683             92.294
 Electronic               0.000              0.000              0.000
 Translational            0.889              2.981             40.409
 Rotational               0.889              2.981             29.094
 Vibrational            103.687             26.721             22.791
 Vibration     1          0.596              1.975              4.589
 Vibration     2          0.604              1.948              3.433
 Vibration     3          0.606              1.941              3.268
 Vibration     4          0.665              1.755              1.696
 Vibration     5          0.680              1.710              1.533
 Vibration     6          0.690              1.680              1.435
 Vibration     7          0.722              1.590              1.198
 Vibration     8          0.733              1.560              1.133
 Vibration     9          0.788              1.413              0.870
 Vibration    10          0.853              1.256              0.665
 Vibration    11          0.910              1.130              0.535
 Vibration    12          0.942              1.063              0.476

 Optimization completed.
    -- Stationary point found.
 Normal termination of Gaussian 09 at Tue Jan 28 02:34:19 2020.
