 Gaussian 09, Revision D.01,
 Gaussian 09:  ES64L-G09RevD.01 24-Apr-2013

 -----------------------------
 # b3lyp 6-31G(2df,p) opt Freq
 -----------------------------

 -----
 titel
 -----
 Symbolic Z-matrix:
 Charge =  0 Multiplicity = 1

 SCF Done:  E(RB3LYP) =  -423.131664547     A.U. after   14 cycles
 SCF Done:  E(RB3LYP) =  -423.131665385     A.U. after    7 cycles
 SCF Done:  E(RB3LYP) =  -423.131666196     A.U. after    7 cycles
 Optimization completed.
    -- Stationary point found.
 Normal termination of Gaussian 09 at Mon Jan 27 15:35:21 2020.

 ----------------------------------------------------------------------
 #N Geom=AllCheck Guess=TCheck SCRF=Check GenChk RB3LYP/6-31G(2df,p) Fr
 eq
 ----------------------------------------------------------------------

 Structure from the checkpoint file:  "/scratch/puck/g09_fd5938fc-c6e3-4f60-9dbf-695039b460f4/Gau-80793.chk"
 -----
 titel
 -----
 Charge =  0 Multiplicity = 1

                         Standard orientation:
 ---------------------------------------------------------------------
 Center     Atomic      Atomic             Coordinates (Angstroms)
 Number     Number       Type             X           Y           Z
 ---------------------------------------------------------------------
      1          6           0        2.065820    1.381634   -0.568047
      2          6           0        1.493022   -0.026678   -0.488054
      3          8           0        2.406810   -0.817676    0.261232
      4          6           0        0.113462   -0.101147    0.162787
      5          6           0       -0.037556    0.493395    1.542267
      6          8           0       -0.479810   -1.402218   -0.013026
      7          6           0       -1.060629   -0.290391   -0.722470
      8          6           0       -2.389001    0.118298   -0.352738
      9          6           0       -3.503866    0.476563   -0.081032
     10          1           0        2.213813    1.798217    0.431681
     11          1           0        3.035633    1.356290   -1.071207
     12          1           0        1.397686    2.041321   -1.129725
     13          1           0        1.393461   -0.434765   -1.506538
     14          1           0        2.037459   -1.707864    0.299826
     15          1           0        0.013738    1.585810    1.506303
     16          1           0       -0.996542    0.206162    1.975044
     17          1           0        0.770556    0.133035    2.184743
     18          1           0       -0.880765   -0.318488   -1.797633
     19          1           0       -4.488555    0.789379    0.165588
 ---------------------------------------------------------------------

 SCF Done:  E(RB3LYP) =  -423.131666196     A.U. after    1 cycles

 The electronic state is 1-A.
 Alpha  occ. eigenvalues --  -19.16010 -19.13847 -10.26306 -10.24960 -10.24006
 Alpha  occ. eigenvalues --  -10.19274 -10.18779 -10.18095 -10.18073  -1.08064
 Alpha  occ. eigenvalues --   -1.02011  -0.77977  -0.77071  -0.72971  -0.68440
 Alpha  occ. eigenvalues --   -0.64719  -0.57175  -0.54029  -0.52503  -0.50093
 Alpha  occ. eigenvalues --   -0.48864  -0.44855  -0.41872  -0.40937  -0.39704
 Alpha  occ. eigenvalues --   -0.38735  -0.38475  -0.36615  -0.33900  -0.33015
 Alpha  occ. eigenvalues --   -0.29203  -0.28240  -0.27570  -0.25674
 Alpha virt. eigenvalues --    0.01656   0.03615   0.08760   0.09193   0.11278
 Alpha virt. eigenvalues --    0.11977   0.13276   0.14456   0.15386   0.16054
 Alpha virt. eigenvalues --    0.17477   0.18723   0.19371   0.19960   0.20302

 Mulliken charges:
               1
     1  C   -0.395871
     2  C    0.082197
     3  O   -0.435146
     4  C    0.369937
     5  C   -0.473037
     6  O   -0.294691
     7  C   -0.241601
     8  C    0.329078
     9  C   -0.402367
    10  H    0.130693
    11  H    0.130203
    12  H    0.118144
    13  H    0.068368
    14  H    0.293948
    15  H    0.128086
    16  H    0.139513
    17  H    0.138162
    18  H    0.111734
    19  H    0.202651
 Sum of Mulliken charges =   0.00000

 Dipole moment (field-independent basis, Debye):
    X=             -0.7299    Y=              1.2809    Z=             -0.5732  Tot=              1.5817
 Quadrupole moment (field-independent basis, Debye-Ang):
   XX=            -52.6588   YY=            -53.4684   ZZ=            -51.5406
   XY=             -2.4191   XZ=             -1.9631   YZ=              0.4719

  Exact polarizability: 105.540  -5.455  64.023  -0.633   1.420  65.684
 Approx polarizability: 148.954 -15.106 100.592  -1.221   1.813  96.457

                      1                      2                      3
                      A                      A                      A
 Frequencies --     62.9954               117.1057               131.8158
 Red. masses --      3.8107                 4.0133                 3.1892
 Frc consts  --      0.0089                 0.0324                 0.0326
 IR Inten    --      1.9944                 0.4843                 0.4674

                      4                      5                      6
                      A                      A                      A
 Frequencies --    193.5089               221.2769               251.9193
 Red. masses --      1.0883                 1.4623                 2.2161
 Frc consts  --      0.0240                 0.0422                 0.0829
 IR Inten    --      0.1261                 2.1245                 1.2343

                      7                      8                      9
                      A                      A                      A
 Frequencies --    265.6904               295.1339               342.9306
 Red. masses --      2.6317                 3.5454                 3.7705
 Frc consts  --      0.1095                 0.1820                 0.2613
 IR Inten    --      3.2891                 1.7602                 6.4074

                     10                     11                     12
                      A                      A                      A
 Frequencies --    405.5065               435.9328               449.2153
 Red. masses --      2.9029                 1.3608                 2.8967
 Frc consts  --      0.2812                 0.1524                 0.3444
 IR Inten    --      4.3473                90.6631                28.5532

                     13                     14                     15
                      A                      A                      A
 Frequencies --    510.3696               561.6056               618.6148
 Red. masses --      3.1825                 8.4103                 1.7494
 Frc consts  --      0.4884                 1.5629                 0.3944
 IR Inten    --     11.3050                 9.0107                19.6251

                     16                     17                     18
                      A                      A                      A
 Frequencies --    636.4809               670.4847               718.0973
 Red. masses --      1.9421                 1.2559                 3.4265
 Frc consts  --      0.4636                 0.3326                 1.0410
 IR Inten    --     34.2105                34.6404                 5.2485

                     19                     20                     21
                      A                      A                      A
 Frequencies --    832.9981               873.1803               917.7086
 Red. masses --      4.2959                 2.4917                 2.5236
 Frc consts  --      1.7563                 1.1193                 1.2522
 IR Inten    --     12.3850                24.2496                 5.8455

                     22                     23                     24
                      A                      A                      A
 Frequencies --    956.7412              1016.9111              1050.4102
 Red. masses --      2.1658                 2.6650                 2.0001
 Frc consts  --      1.1680                 1.6237                 1.3002
 IR Inten    --     19.1321                22.1379                31.7106

                     25                     26                     27
                      A                      A                      A
 Frequencies --   1080.7036              1092.1751              1115.1780
 Red. masses --      1.3826                 1.8766                 1.9139
 Frc consts  --      0.9514                 1.3189                 1.4024
 IR Inten    --      5.8771                70.4165                 5.1209

                     28                     29                     30
                      A                      A                      A
 Frequencies --   1149.4989              1263.9651              1284.8621
 Red. masses --      2.4102                 1.9874                 1.2805
 Frc consts  --      1.8764                 1.8707                 1.2455
 IR Inten    --     15.9614                15.0216                32.1584

                     31                     32                     33
                      A                      A                      A
 Frequencies --   1314.0864              1377.9274              1397.6021
 Red. masses --      1.7947                 1.2754                 1.2140
 Frc consts  --      1.8259                 1.4268                 1.3971
 IR Inten    --     49.4111                 6.8321                10.0903

                     34                     35                     36
                      A                      A                      A
 Frequencies --   1410.7621              1429.9286              1444.5735
 Red. masses --      1.3673                 1.4959                 2.1822
 Frc consts  --      1.6033                 1.8021                 2.6830
 IR Inten    --      8.0011                30.8935                13.6890

                     37                     38                     39
                      A                      A                      A
 Frequencies --   1479.3985              1487.6676              1496.1371
 Red. masses --      1.0540                 1.0858                 1.0711
 Frc consts  --      1.3591                 1.4158                 1.4126
 IR Inten    --      2.6677                 9.0776                 2.3046

                     40                     41                     42
                      A                      A                      A
 Frequencies --   1509.5684              2239.8471              2973.2536
 Red. masses --      1.1285                 5.9559                 1.0835
 Frc consts  --      1.5152                17.6050                 5.6435
 IR Inten    --      3.4347                 0.7686                44.9870

                     43                     44                     45
                      A                      A                      A
 Frequencies --   3047.9456              3052.5195              3103.0247
 Red. masses --      1.0351                 1.0361                 1.0851
 Frc consts  --      5.6655                 5.6881                 6.1560
 IR Inten    --      7.8107                12.6605                14.3560

                     46                     47                     48
                      A                      A                      A
 Frequencies --   3119.0285              3123.1527              3128.5805
 Red. masses --      1.1001                 1.1015                 1.1019
 Frc consts  --      6.3058                 6.3304                 6.3546
 IR Inten    --     13.2264                17.5570                19.4544

                     49                     50                     51
                      A                      A                      A
 Frequencies --   3149.3383              3501.3407              3795.2358
 Red. masses --      1.1013                 1.1621                 1.0657
 Frc consts  --      6.4357                 8.3937                 9.0444
 IR Inten    --      8.9612                73.9250                22.8338

 - Thermochemistry -
 -------------------
 Temperature   298.150 Kelvin.  Pressure   1.00000 Atm.
 Atom     1 has atomic number  6 and mass  12.00000

 Molecular mass:   126.06808 amu.
 Principal axes and moments of inertia in atomic units:
                           1         2         3
     Eigenvalues --   540.244421830.094191915.10645
           X            0.99987   0.01069  -0.01185
           Y           -0.01022   0.99916   0.03957
           Z            0.01226  -0.03945   0.99915
 This molecule is an asymmetric top.
 Rotational symmetry number  1.
 Warning -- assumption of classical behavior for rotation
           may cause significant error
 Rotational temperatures (Kelvin)      0.16032     0.04733     0.04523
 Rotational constants (GHZ):           3.34060     0.98615     0.94237
 Zero-point vibrational energy     407352.0 (Joules/Mol)
                                   97.35946 (Kcal/Mol)
 Warning -- explicit consideration of  15 degrees of freedom as
           vibrations may cause significant error
 Vibrational temperatures:     90.64   168.49   189.65   278.42   318.37
          (Kelvin)            362.46   382.27   424.63   493.40   583.43
                              627.21   646.32   734.31   808.02   890.05
                              915.75   964.68  1033.18  1198.50  1256.31
                             1320.38  1376.54  1463.11  1511.30  1554.89
                             1571.39  1604.49  1653.87  1818.56  1848.63
                             1890.67  1982.53  2010.84  2029.77  2057.35
                             2078.42  2128.52  2140.42  2152.60  2171.93
                             3222.64  4277.84  4385.31  4391.89  4464.55
                             4487.58  4493.51  4501.32  4531.19  5037.64
                             5460.49

 Zero-point correction=                           0.155152 (Hartree/Particle)
 Thermal correction to Energy=                    0.165255
 Thermal correction to Enthalpy=                  0.166199
 Thermal correction to Gibbs Free Energy=         0.120411
 Sum of electronic and zero-point Energies=           -422.976514
 Sum of electronic and thermal Energies=              -422.966411
 Sum of electronic and thermal Enthalpies=            -422.965467
 Sum of electronic and thermal Free Energies=         -423.011255

                     E (Thermal)             CV                S
                      KCal/Mol        Cal/Mol-Kelvin    Cal/Mol-Kelvin
 Total                  103.699             37.500             96.368
 Electronic               0.000              0.000              0.000
 Translational            0.889              2.981             40.409
 Rotational               0.889              2.981             29.028
 Vibrational            101.922             31.538             26.932
 Vibration     1          0.597              1.972              4.361
 Vibration     2          0.608              1.935              3.148
 Vibration     3          0.612              1.922              2.919
 Vibration     4          0.635              1.849              2.194
 Vibration     5          0.648              1.809              1.949
 Vibration     6          0.664              1.760              1.717
 Vibration     7          0.672              1.736              1.624
 Vibration     8          0.689              1.683              1.444
 Vibration     9          0.722              1.590              1.198
 Vibration    10          0.770              1.458              0.943
 Vibration    11          0.796              1.392              0.839
 Vibration    12          0.808              1.363              0.798
 Vibration    13          0.865              1.227              0.633
 Vibration    14          0.917              1.114              0.521
 Vibration    15          0.978              0.993              0.419

 Optimization completed.
    -- Stationary point found.
 Normal termination of Gaussian 09 at Mon Jan 27 16:14:52 2020.
