 Gaussian 09, Revision D.01,
 Gaussian 09:  ES64L-G09RevD.01 24-Apr-2013

 -----------------------------
 # b3lyp 6-31G(2df,p) opt Freq
 -----------------------------

 -----
 titel
 -----
 Symbolic Z-matrix:
 Charge =  0 Multiplicity = 1

 SCF Done:  E(RB3LYP) =  -423.102320354     A.U. after   14 cycles
 Optimization completed.
    -- Stationary point found.
 Normal termination of Gaussian 09 at Mon Jan 27 22:01:18 2020.

 ----------------------------------------------------------------------
 #N Geom=AllCheck Guess=TCheck SCRF=Check GenChk RB3LYP/6-31G(2df,p) Fr
 eq
 ----------------------------------------------------------------------

 Structure from the checkpoint file:  "/scratch/puck/g09_46e5cf11-89c0-49ae-904b-0db719afcaad/Gau-98518.chk"
 -----
 titel
 -----
 Charge =  0 Multiplicity = 1

                         Standard orientation:
 ---------------------------------------------------------------------
 Center     Atomic      Atomic             Coordinates (Angstroms)
 Number     Number       Type             X           Y           Z
 ---------------------------------------------------------------------
      1          6           0       -0.845177    1.770329   -0.973355
      2          6           0       -0.043913    0.770734   -0.193822
      3          6           0        1.518406    0.721843   -0.215637
      4          8           0        2.016719   -0.032522    0.901996
      5          6           0        1.510192   -0.736259   -0.246098
      6          6           0       -0.049696   -0.768886   -0.217119
      7          6           0       -0.879471   -1.731371   -1.011853
      8          6           0       -0.562268    0.003457    0.993224
      9          8           0       -1.955685    0.080053    1.124067
     10          1           0       -1.910996    1.542238   -0.905003
     11          1           0       -0.693911    2.783715   -0.581012
     12          1           0       -0.560904    1.779267   -2.032063
     13          1           0        2.182638    1.453400   -0.661940
     14          1           0        2.169086   -1.454385   -0.721623
     15          1           0       -0.728982   -2.763259   -0.668589
     16          1           0       -1.941152   -1.491464   -0.907720
     17          1           0       -0.631773   -1.702602   -2.079424
     18          1           0       -0.012046   -0.006702    1.929576
     19          1           0       -2.248664   -0.699537    1.607257
 ---------------------------------------------------------------------

 SCF Done:  E(RB3LYP) =  -423.102320354     A.U. after    1 cycles

 The electronic state is 1-A.
 Alpha  occ. eigenvalues --  -19.15054 -19.14779 -10.23557 -10.23510 -10.23105
 Alpha  occ. eigenvalues --  -10.19402 -10.19245 -10.18122 -10.17661  -1.07518
 Alpha  occ. eigenvalues --   -1.03095  -0.86336  -0.73397  -0.70330  -0.68216
 Alpha  occ. eigenvalues --   -0.62354  -0.56885  -0.52423  -0.50710  -0.49402
 Alpha  occ. eigenvalues --   -0.47159  -0.43031  -0.42098  -0.41108  -0.39637
 Alpha  occ. eigenvalues --   -0.39008  -0.38522  -0.37159  -0.34956  -0.32606
 Alpha  occ. eigenvalues --   -0.30883  -0.26084  -0.25559  -0.21600
 Alpha virt. eigenvalues --    0.06429   0.07039   0.10443   0.11623   0.12440
 Alpha virt. eigenvalues --    0.13525   0.14600   0.15236   0.15984   0.17041
 Alpha virt. eigenvalues --    0.17909   0.18257   0.20100   0.20942   0.21470

 Mulliken charges:
               1
     1  C   -0.503605
     2  C    0.225373
     3  C   -0.039787
     4  O   -0.247650
     5  C   -0.041176
     6  C    0.202216
     7  C   -0.509344
     8  C   -0.003072
     9  O   -0.435987
    10  H    0.143752
    11  H    0.120643
    12  H    0.112950
    13  H    0.105369
    14  H    0.104756
    15  H    0.115928
    16  H    0.130888
    17  H    0.118770
    18  H    0.109413
    19  H    0.290564
 Sum of Mulliken charges =   0.00000

 Dipole moment (field-independent basis, Debye):
    X=             -0.5477    Y=             -1.0290    Z=             -1.0964  Tot=              1.6003
 Quadrupole moment (field-independent basis, Debye-Ang):
   XX=            -55.0534   YY=            -50.1670   ZZ=            -52.3054
   XY=              3.0214   XZ=             -4.7089   YZ=             -2.1409

  Exact polarizability:  77.511   1.084  79.856  -1.708  -0.619  67.469
 Approx polarizability: 109.236   0.634 118.618  -0.902  -0.632 103.709

                      1                      2                      3
                      A                      A                      A
 Frequencies --    149.0124               172.3949               178.3344
 Red. masses --      2.5005                 1.0648                 1.0346
 Frc consts  --      0.0327                 0.0186                 0.0194
 IR Inten    --      0.0407                 4.5778                 0.3431

                      4                      5                      6
                      A                      A                      A
 Frequencies --    217.0721               255.8006               273.6517
 Red. masses --      2.9194                 3.1000                 2.0507
 Frc consts  --      0.0810                 0.1195                 0.0905
 IR Inten    --      1.9273                 1.9783                37.7677

                      7                      8                      9
                      A                      A                      A
 Frequencies --    278.0435               297.1051               363.8630
 Red. masses --      3.3815                 1.5608                 3.3973
 Frc consts  --      0.1540                 0.0812                 0.2650
 IR Inten    --      1.8044                81.1142                 4.8915

                     10                     11                     12
                      A                      A                      A
 Frequencies --    465.9168               495.6916               581.6271
 Red. masses --      7.8765                 2.7625                 5.4591
 Frc consts  --      1.0074                 0.3999                 1.0881
 IR Inten    --      3.4336                 6.8431                20.5273

                     13                     14                     15
                      A                      A                      A
 Frequencies --    633.8001               719.8170               758.9905
 Red. masses --      3.7270                 3.8501                 3.9727
 Frc consts  --      0.8821                 1.1754                 1.3484
 IR Inten    --      2.0952                 4.9860                 0.0990

                     16                     17                     18
                      A                      A                      A
 Frequencies --    813.6122               816.5440               858.9130
 Red. masses --      4.8870                 2.5471                 1.9234
 Frc consts  --      1.9060                 1.0006                 0.8360
 IR Inten    --      2.4872                10.6757                17.3890

                     19                     20                     21
                      A                      A                      A
 Frequencies --    867.7392               960.7797               973.8204
 Red. masses --      2.1362                 2.3509                 2.3058
 Frc consts  --      0.9477                 1.2786                 1.2883
 IR Inten    --      6.3530                 9.7299                31.9334

                     22                     23                     24
                      A                      A                      A
 Frequencies --   1034.8902              1072.5244              1085.6136
 Red. masses --      1.2649                 1.4836                 1.3379
 Frc consts  --      0.7982                 1.0055                 0.9290
 IR Inten    --      1.9857                 2.6757                10.1727

                     25                     26                     27
                      A                      A                      A
 Frequencies --   1103.9865              1135.0923              1171.1172
 Red. masses --      1.6553                 3.3660                 2.2814
 Frc consts  --      1.1886                 2.5552                 1.8436
 IR Inten    --      2.0340                65.5113                 1.2625

                     28                     29                     30
                      A                      A                      A
 Frequencies --   1187.9449              1195.8188              1249.9156
 Red. masses --      1.8571                 1.4689                 1.4691
 Frc consts  --      1.5441                 1.2376                 1.3523
 IR Inten    --      5.7950                 3.6833                 2.2055

                     31                     32                     33
                      A                      A                      A
 Frequencies --   1258.5746              1318.6396              1346.6551
 Red. masses --      1.5097                 2.3230                 2.7884
 Frc consts  --      1.4089                 2.3799                 2.9793
 IR Inten    --     65.2650                 8.0131                10.6229

                     34                     35                     36
                      A                      A                      A
 Frequencies --   1382.2825              1403.8479              1417.1586
 Red. masses --      2.5067                 1.3075                 1.3656
 Frc consts  --      2.8220                 1.5182                 1.6159
 IR Inten    --      3.8887                 0.6835                 3.1250

                     37                     38                     39
                      A                      A                      A
 Frequencies --   1466.1878              1488.8975              1492.5163
 Red. masses --      2.5390                 1.0448                 1.0491
 Frc consts  --      3.2158                 1.3647                 1.3769
 IR Inten    --     11.9916                 1.5803                 1.1817

                     40                     41                     42
                      A                      A                      A
 Frequencies --   1495.3197              1504.9344              3015.0493
 Red. masses --      1.0480                 1.1794                 1.0390
 Frc consts  --      1.3807                 1.5738                 5.5648
 IR Inten    --      4.3018                 9.6477                54.1832

                     43                     44                     45
                      A                      A                      A
 Frequencies --   3021.4633              3067.1352              3072.8945
 Red. masses --      1.0390                 1.0990                 1.1003
 Frc consts  --      5.5883                 6.0912                 6.1216
 IR Inten    --     33.2644                22.3914                26.7594

                     46                     47                     48
                      A                      A                      A
 Frequencies --   3111.2219              3127.2018              3144.4365
 Red. masses --      1.0971                 1.0965                 1.0878
 Frc consts  --      6.2571                 6.3178                 6.3367
 IR Inten    --      9.9384                 8.3048                16.4770

                     49                     50                     51
                      A                      A                      A
 Frequencies --   3170.5912              3185.8748              3810.9402
 Red. masses --      1.0869                 1.1021                 1.0663
 Frc consts  --      6.4377                 6.5906                 9.1238
 IR Inten    --     17.3470                24.0013                28.6866

 - Thermochemistry -
 -------------------
 Temperature   298.150 Kelvin.  Pressure   1.00000 Atm.
 Atom     1 has atomic number  6 and mass  12.00000

 Molecular mass:   126.06808 amu.
 Principal axes and moments of inertia in atomic units:
                           1         2         3
     Eigenvalues --   788.371261127.720511279.79929
           X            0.99984   0.01801   0.00232
           Y           -0.01795   0.99961  -0.02120
           Z           -0.00270   0.02115   0.99977
 This molecule is an asymmetric top.
 Rotational symmetry number  1.
 Warning -- assumption of classical behavior for rotation
           may cause significant error
 Rotational temperatures (Kelvin)      0.10986     0.07680     0.06768
 Rotational constants (GHZ):           2.28920     1.60034     1.41018
 Zero-point vibrational energy     410745.3 (Joules/Mol)
                                   98.17049 (Kcal/Mol)
 Warning -- explicit consideration of  12 degrees of freedom as
           vibrations may cause significant error
 Vibrational temperatures:    214.40   248.04   256.58   312.32   368.04
          (Kelvin)            393.72   400.04   427.47   523.52   670.35
                              713.19   836.83   911.90  1035.65  1092.02
                             1170.61  1174.82  1235.78  1248.48  1382.35
                             1401.11  1488.97  1543.12  1561.95  1588.39
                             1633.14  1684.97  1709.19  1720.51  1798.35
                             1810.81  1897.23  1937.53  1988.79  2019.82
                             2038.97  2109.51  2142.19  2147.40  2151.43
                             2165.26  4337.98  4347.21  4412.92  4421.20
                             4476.35  4499.34  4524.14  4561.77  4583.76
                             5483.09

 Zero-point correction=                           0.156445 (Hartree/Particle)
 Thermal correction to Energy=                    0.165431
 Thermal correction to Enthalpy=                  0.166376
 Thermal correction to Gibbs Free Energy=         0.123545
 Sum of electronic and zero-point Energies=           -422.945876
 Sum of electronic and thermal Energies=              -422.936889
 Sum of electronic and thermal Enthalpies=            -422.935945
 Sum of electronic and thermal Free Energies=         -422.978775

                     E (Thermal)             CV                S
                      KCal/Mol        Cal/Mol-Kelvin    Cal/Mol-Kelvin
 Total                  103.810             34.583             90.145
 Electronic               0.000              0.000              0.000
 Translational            0.889              2.981             40.409
 Rotational               0.889              2.981             28.522
 Vibrational            102.032             28.621             21.214
 Vibration     1          0.618              1.904              2.685
 Vibration     2          0.626              1.876              2.409
 Vibration     3          0.629              1.869              2.346
 Vibration     4          0.646              1.815              1.983
 Vibration     5          0.666              1.753              1.690
 Vibration     6          0.676              1.722              1.573
 Vibration     7          0.679              1.714              1.546
 Vibration     8          0.691              1.679              1.433
 Vibration     9          0.737              1.547              1.106
 Vibration    10          0.823              1.326              0.749
 Vibration    11          0.851              1.260              0.669
 Vibration    12          0.938              1.071              0.482

 Optimization completed.
    -- Stationary point found.
 Normal termination of Gaussian 09 at Mon Jan 27 22:48:16 2020.
