 Gaussian 09, Revision D.01,
 Gaussian 09:  ES64L-G09RevD.01 24-Apr-2013

 -----------------------------
 # b3lyp 6-31G(2df,p) opt Freq
 -----------------------------

 -----
 titel
 -----
 Symbolic Z-matrix:
 Charge =  0 Multiplicity = 1

 SCF Done:  E(RB3LYP) =  -423.157039350     A.U. after   13 cycles
 Optimization completed.
    -- Stationary point found.
 Normal termination of Gaussian 09 at Mon Jan 27 12:11:16 2020.

 ----------------------------------------------------------------------
 #N Geom=AllCheck Guess=TCheck SCRF=Check GenChk RB3LYP/6-31G(2df,p) Fr
 eq
 ----------------------------------------------------------------------

 Structure from the checkpoint file:  "/scratch/puck/g09_df322210-1557-4d0f-821c-b6e953c0c5ec/Gau-153036.chk"
 -----
 titel
 -----
 Charge =  0 Multiplicity = 1

                         Standard orientation:
 ---------------------------------------------------------------------
 Center     Atomic      Atomic             Coordinates (Angstroms)
 Number     Number       Type             X           Y           Z
 ---------------------------------------------------------------------
      1          6           0        2.790730    0.613964    0.285536
      2          8           0        2.610488   -0.800098    0.193351
      3          6           0        1.643263    0.046041   -0.433715
      4          6           0        0.250923    0.032998    0.141495
      5          6           0       -0.609413    1.243558   -0.315367
      6          6           0       -2.031574    0.723265   -0.271729
      7          8           0       -2.345707    0.015540    0.936385
      8          6           0       -2.009315   -0.743792   -0.235294
      9          6           0       -0.572904   -1.222857   -0.257142
     10          1           0        2.643762    1.039025    1.277871
     11          1           0        3.636938    1.016034   -0.270024
     12          1           0        1.692353    0.030745   -1.525892
     13          1           0        0.333135    0.054807    1.230688
     14          1           0       -0.454318    2.123030    0.316726
     15          1           0       -0.369555    1.534374   -1.347196
     16          1           0       -2.849486    1.294136   -0.704281
     17          1           0       -2.811612   -1.357429   -0.637391
     18          1           0       -0.385833   -2.065530    0.413856
     19          1           0       -0.323884   -1.551795   -1.274944
 ---------------------------------------------------------------------

 SCF Done:  E(RB3LYP) =  -423.157039350     A.U. after    1 cycles

 The electronic state is 1-A.
 Alpha  occ. eigenvalues --  -19.14924 -19.14649 -10.23825 -10.23467 -10.23385
 Alpha  occ. eigenvalues --  -10.23328 -10.19516 -10.19201 -10.18782  -1.06985
 Alpha  occ. eigenvalues --   -1.06839  -0.82031  -0.72583  -0.70163  -0.65883
 Alpha  occ. eigenvalues --   -0.61729  -0.57484  -0.56970  -0.52661  -0.49906
 Alpha  occ. eigenvalues --   -0.47351  -0.44337  -0.43584  -0.43253  -0.39669
 Alpha  occ. eigenvalues --   -0.37333  -0.37011  -0.36216  -0.35152  -0.34397
 Alpha  occ. eigenvalues --   -0.29840  -0.28952  -0.26711  -0.26125
 Alpha virt. eigenvalues --    0.09287   0.09749   0.10163   0.11342   0.11823
 Alpha virt. eigenvalues --    0.12088   0.12922   0.13649   0.14208   0.16643
 Alpha virt. eigenvalues --    0.17235   0.17745   0.18694   0.19633   0.20028

 Mulliken charges:
               1
     1  C   -0.182641
     2  O   -0.241852
     3  C    0.073951
     4  C    0.005146
     5  C   -0.271009
     6  C    0.051137
     7  O   -0.258161
     8  C    0.045872
     9  C   -0.259547
    10  H    0.113508
    11  H    0.113604
    12  H    0.087037
    13  H    0.096728
    14  H    0.113387
    15  H    0.100791
    16  H    0.093673
    17  H    0.093901
    18  H    0.122736
    19  H    0.101740
 Sum of Mulliken charges =   0.00000

 Dipole moment (field-independent basis, Debye):
    X=             -0.1037    Y=              1.4690    Z=             -1.9272  Tot=              2.4255
 Quadrupole moment (field-independent basis, Debye-Ang):
   XX=            -56.8299   YY=            -51.8637   ZZ=            -53.1992
   XY=              5.0192   XZ=              3.7580   YZ=              0.6968

  Exact polarizability:  87.402   3.765  72.947   2.825   1.258  63.365
 Approx polarizability: 108.505   2.227 112.253   1.971   1.075 103.988

                      1                      2                      3
                      A                      A                      A
 Frequencies --     78.9940                95.9531               174.3436
 Red. masses --      3.5225                 3.6647                 3.6096
 Frc consts  --      0.0130                 0.0199                 0.0646
 IR Inten    --      2.2643                 1.4376                 3.4083

                      4                      5                      6
                      A                      A                      A
 Frequencies --    304.7233               331.5799               340.2445
 Red. masses --      3.0124                 2.0700                 3.9300
 Frc consts  --      0.1648                 0.1341                 0.2681
 IR Inten    --      0.1395                 1.5959                 3.8921

                      7                      8                      9
                      A                      A                      A
 Frequencies --    438.2700               466.4671               661.2400
 Red. masses --      2.5151                 3.9548                 2.8135
 Frc consts  --      0.2846                 0.5070                 0.7248
 IR Inten    --      9.5604                 9.8260                 1.3242

                     10                     11                     12
                      A                      A                      A
 Frequencies --    664.9789               820.6406               825.8542
 Red. masses --      5.3073                 3.0110                 3.5975
 Frc consts  --      1.3827                 1.1947                 1.4456
 IR Inten    --      1.9928                 3.7612                 0.0814

                     13                     14                     15
                      A                      A                      A
 Frequencies --    861.0112               862.4151               894.7981
 Red. masses --      3.0495                 3.6584                 2.0003
 Frc consts  --      1.3320                 1.6031                 0.9436
 IR Inten    --     23.1680                27.7518                15.1175

                     16                     17                     18
                      A                      A                      A
 Frequencies --    907.6863               917.8943               960.8490
 Red. masses --      1.4874                 2.8770                 2.2720
 Frc consts  --      0.7220                 1.4281                 1.2358
 IR Inten    --      3.2812                11.9285                19.5639

                     19                     20                     21
                      A                      A                      A
 Frequencies --    985.4482              1023.6516              1067.4644
 Red. masses --      1.9600                 1.3610                 2.0082
 Frc consts  --      1.1214                 0.8402                 1.3483
 IR Inten    --      1.1154                 2.4783                 0.1633

                     22                     23                     24
                      A                      A                      A
 Frequencies --   1078.6292              1091.3338              1109.4088
 Red. masses --      2.4543                 1.1456                 1.6492
 Frc consts  --      1.6824                 0.8039                 1.1960
 IR Inten    --      5.2916                 0.1416                 1.8699

                     25                     26                     27
                      A                      A                      A
 Frequencies --   1150.1627              1162.7751              1178.0605
 Red. masses --      1.8560                 1.4547                 1.4961
 Frc consts  --      1.4466                 1.1588                 1.2233
 IR Inten    --      2.1535                 2.9837                 2.3286

                     28                     29                     30
                      A                      A                      A
 Frequencies --   1179.4975              1228.8772              1258.5183
 Red. masses --      1.3029                 1.4411                 1.3697
 Frc consts  --      1.0679                 1.2822                 1.2782
 IR Inten    --      0.1182                 6.3032                 6.0934

                     31                     32                     33
                      A                      A                      A
 Frequencies --   1280.6359              1295.6979              1301.3025
 Red. masses --      1.4208                 1.5030                 1.4897
 Frc consts  --      1.3729                 1.4867                 1.4863
 IR Inten    --      3.7103                 4.2300                 0.9878

                     34                     35                     36
                      A                      A                      A
 Frequencies --   1317.5237              1344.2408              1348.2168
 Red. masses --      1.3027                 1.4806                 1.5312
 Frc consts  --      1.3324                 1.5763                 1.6399
 IR Inten    --      0.0461                 5.7685                11.0117

                     37                     38                     39
                      A                      A                      A
 Frequencies --   1442.3188              1450.0445              1476.9212
 Red. masses --      2.9108                 1.8013                 1.0938
 Frc consts  --      3.5677                 2.2315                 1.4057
 IR Inten    --     22.7912                11.1647                 2.1575

                     40                     41                     42
                      A                      A                      A
 Frequencies --   1488.9163              1530.3732              3023.3059
 Red. masses --      1.1070                 1.3754                 1.0656
 Frc consts  --      1.4459                 1.8979                 5.7386
 IR Inten    --      1.2665                 4.0952                24.1801

                     43                     44                     45
                      A                      A                      A
 Frequencies --   3028.0359              3068.0899              3078.1712
 Red. masses --      1.0673                 1.0826                 1.0840
 Frc consts  --      5.7656                 6.0044                 6.0517
 IR Inten    --     20.6394                13.5299                 5.6782

                     46                     47                     48
                      A                      A                      A
 Frequencies --   3081.5894              3088.8428              3099.9962
 Red. masses --      1.0583                 1.0939                 1.0948
 Frc consts  --      5.9209                 6.1494                 6.1989
 IR Inten    --     24.6609                21.9634                33.8854

                     49                     50                     51
                      A                      A                      A
 Frequencies --   3140.6050              3153.2942              3166.7934
 Red. masses --      1.0867                 1.0957                 1.1194
 Frc consts  --      6.3152                 6.4191                 6.6143
 IR Inten    --     20.1057                44.7039                28.5166

 - Thermochemistry -
 -------------------
 Temperature   298.150 Kelvin.  Pressure   1.00000 Atm.
 Atom     1 has atomic number  6 and mass  12.00000

 Molecular mass:   126.06808 amu.
 Principal axes and moments of inertia in atomic units:
                           1         2         3
     Eigenvalues --   411.330721792.798261977.22388
           X            0.99981   0.01628   0.01063
           Y           -0.01644   0.99975   0.01500
           Z           -0.01038  -0.01517   0.99983
 This molecule is an asymmetric top.
 Rotational symmetry number  1.
 Rotational temperatures (Kelvin)      0.21057     0.04831     0.04381
 Rotational constants (GHZ):           4.38757     1.00666     0.91277
 Zero-point vibrational energy     420647.0 (Joules/Mol)
                                  100.53704 (Kcal/Mol)
 Warning -- explicit consideration of   8 degrees of freedom as
           vibrations may cause significant error
 Vibrational temperatures:    113.65   138.05   250.84   438.43   477.07
          (Kelvin)            489.54   630.57   671.14   951.38   956.76
                             1180.72  1188.22  1238.80  1240.82  1287.41
                             1305.96  1320.64  1382.45  1417.84  1472.80
                             1535.84  1551.90  1570.18  1596.19  1654.83
                             1672.97  1694.96  1697.03  1768.08  1810.72
                             1842.55  1864.22  1872.28  1895.62  1934.06
                             1939.78  2075.17  2086.29  2124.96  2142.22
                             2201.86  4349.86  4356.66  4414.29  4428.80
                             4433.71  4444.15  4460.20  4518.62  4536.88
                             4556.30

 Zero-point correction=                           0.160216 (Hartree/Particle)
 Thermal correction to Energy=                    0.167961
 Thermal correction to Enthalpy=                  0.168905
 Thermal correction to Gibbs Free Energy=         0.127424
 Sum of electronic and zero-point Energies=           -422.996823
 Sum of electronic and thermal Energies=              -422.989079
 Sum of electronic and thermal Enthalpies=            -422.988134
 Sum of electronic and thermal Free Energies=         -423.029615

                     E (Thermal)             CV                S
                      KCal/Mol        Cal/Mol-Kelvin    Cal/Mol-Kelvin
 Total                  105.397             29.803             87.303
 Electronic               0.000              0.000              0.000
 Translational            0.889              2.981             40.409
 Rotational               0.889              2.981             28.768
 Vibrational            103.620             23.841             18.126
 Vibration     1          0.600              1.963              3.916
 Vibration     2          0.603              1.952              3.535
 Vibration     3          0.627              1.874              2.388
 Vibration     4          0.696              1.665              1.391
 Vibration     5          0.714              1.612              1.252
 Vibration     6          0.720              1.595              1.211
 Vibration     7          0.798              1.387              0.832
 Vibration     8          0.824              1.324              0.748

 Optimization completed.
    -- Stationary point found.
 Normal termination of Gaussian 09 at Mon Jan 27 12:51:56 2020.
