 Gaussian 09, Revision D.01,
 Gaussian 09:  ES64L-G09RevD.01 24-Apr-2013

 -----------------------------
 # b3lyp 6-31G(2df,p) opt Freq
 -----------------------------

 -----
 titel
 -----
 Symbolic Z-matrix:
 Charge =  0 Multiplicity = 1

 SCF Done:  E(RB3LYP) =  -423.164512472     A.U. after   13 cycles
 Optimization completed.
    -- Stationary point found.
 Normal termination of Gaussian 09 at Mon Jan 27 18:01:34 2020.

 ----------------------------------------------------------------------
 #N Geom=AllCheck Guess=TCheck SCRF=Check GenChk RB3LYP/6-31G(2df,p) Fr
 eq
 ----------------------------------------------------------------------

 Structure from the checkpoint file:  "/scratch/puck/g09_6bedf76c-d393-482e-b162-bd5f0af22068/Gau-16849.chk"
 -----
 titel
 -----
 Charge =  0 Multiplicity = 1

                         Standard orientation:
 ---------------------------------------------------------------------
 Center     Atomic      Atomic             Coordinates (Angstroms)
 Number     Number       Type             X           Y           Z
 ---------------------------------------------------------------------
      1          8           0       -1.394737   -1.644324   -0.419833
      2          6           0       -0.934355   -0.438734    0.089461
      3          6           0       -1.926757    0.565851    0.558413
      4          6           0       -1.041210    0.895432   -0.635732
      5          6           0        0.197621    1.740800   -0.350068
      6          6           0        1.151202    0.826842    0.455283
      7          6           0        2.072342   -0.101368   -0.371477
      8          8           0        1.334897   -1.284863    0.016842
      9          6           0        0.405284   -0.487983    0.796017
     10          1           0       -0.618705   -2.065265   -0.816146
     11          1           0       -2.964527    0.334837    0.343918
     12          1           0       -1.764488    1.088273    1.498318
     13          1           0       -1.520271    0.951754   -1.606162
     14          1           0        0.674337    2.073366   -1.278433
     15          1           0       -0.051776    2.646554    0.215020
     16          1           0        1.655134    1.334010    1.278047
     17          1           0        2.051177    0.059966   -1.456624
     18          1           0        3.114989   -0.156686   -0.038286
     19          1           0        0.358087   -0.838357    1.832901
 ---------------------------------------------------------------------

 SCF Done:  E(RB3LYP) =  -423.164512472     A.U. after    1 cycles

 The electronic state is 1-A.
 Alpha  occ. eigenvalues --  -19.13980 -19.13647 -10.23502 -10.23374 -10.23265
 Alpha  occ. eigenvalues --  -10.19708 -10.18942 -10.18546 -10.18357  -1.04853
 Alpha  occ. eigenvalues --   -1.01908  -0.86625  -0.76774  -0.70361  -0.68263
 Alpha  occ. eigenvalues --   -0.59644  -0.56687  -0.54862  -0.52611  -0.50069
 Alpha  occ. eigenvalues --   -0.47020  -0.44565  -0.43538  -0.41522  -0.41154
 Alpha  occ. eigenvalues --   -0.39574  -0.37031  -0.34739  -0.34056  -0.30789
 Alpha  occ. eigenvalues --   -0.30134  -0.29071  -0.25869  -0.23417
 Alpha virt. eigenvalues --    0.06340   0.08660   0.09803   0.11139   0.12240
 Alpha virt. eigenvalues --    0.13246   0.14447   0.15299   0.15740   0.16998
 Alpha virt. eigenvalues --    0.18281   0.18516   0.20678   0.22260   0.22895

 Mulliken charges:
               1
     1  O   -0.473016
     2  C    0.428857
     3  C   -0.341250
     4  C   -0.114187
     5  C   -0.259287
     6  C   -0.065133
     7  C   -0.079678
     8  O   -0.308589
     9  C    0.030445
    10  H    0.288428
    11  H    0.125133
    12  H    0.105854
    13  H    0.090159
    14  H    0.101749
    15  H    0.101569
    16  H    0.079299
    17  H    0.102017
    18  H    0.107003
    19  H    0.080627
 Sum of Mulliken charges =   0.00000

 Dipole moment (field-independent basis, Debye):
    X=              1.2325    Y=              2.0298    Z=              0.0457  Tot=              2.3752
 Quadrupole moment (field-independent basis, Debye-Ang):
   XX=            -53.7054   YY=            -55.9353   ZZ=            -50.5564
   XY=             -0.2330   XZ=             -0.6343   YZ=              0.9093

  Exact polarizability:  81.863  -0.131  72.126  -2.681  -0.121  66.791
 Approx polarizability: 109.658   0.401 108.605  -4.780   0.166 102.878

                      1                      2                      3
                      A                      A                      A
 Frequencies --     91.2583               179.5045               246.4001
 Red. masses --      2.6980                 3.5341                 4.3315
 Frc consts  --      0.0132                 0.0671                 0.1549
 IR Inten    --      0.2134                 0.0361                10.3057

                      4                      5                      6
                      A                      A                      A
 Frequencies --    346.0447               365.2791               421.6350
 Red. masses --      2.5988                 2.7462                 1.9474
 Frc consts  --      0.1834                 0.2159                 0.2040
 IR Inten    --      1.9543                 0.1813                 0.5468

                      7                      8                      9
                      A                      A                      A
 Frequencies --    478.4485               506.3428               554.9456
 Red. masses --      2.2893                 1.5946                 3.8878
 Frc consts  --      0.3088                 0.2409                 0.7054
 IR Inten    --     22.4390                75.3952                 8.9468

                     10                     11                     12
                      A                      A                      A
 Frequencies --    653.0861               761.2160               792.3848
 Red. masses --      3.7866                 3.4968                 2.8286
 Frc consts  --      0.9516                 1.1938                 1.0464
 IR Inten    --      4.5611                 0.8684                 1.6671

                     13                     14                     15
                      A                      A                      A
 Frequencies --    840.6509               866.8265               879.7227
 Red. masses --      1.7695                 2.3164                 2.4796
 Frc consts  --      0.7368                 1.0255                 1.1306
 IR Inten    --      5.6575                 7.3198                 9.6688

                     16                     17                     18
                      A                      A                      A
 Frequencies --    887.7841               917.1744               960.8787
 Red. masses --      1.7972                 1.7253                 1.6768
 Frc consts  --      0.8345                 0.8551                 0.9122
 IR Inten    --      6.7070                 1.1141                 5.7827

                     19                     20                     21
                      A                      A                      A
 Frequencies --    986.8316               999.2903              1020.9273
 Red. masses --      3.1328                 3.2108                 6.6421
 Frc consts  --      1.7975                 1.8890                 4.0789
 IR Inten    --      6.2891                28.6646                92.1813

                     22                     23                     24
                      A                      A                      A
 Frequencies --   1038.1105              1055.3502              1076.0005
 Red. masses --      1.7945                 1.3881                 1.5481
 Frc consts  --      1.1394                 0.9109                 1.0560
 IR Inten    --     13.9888                 1.2806                 7.9773

                     25                     26                     27
                      A                      A                      A
 Frequencies --   1096.7783              1122.8398              1165.3521
 Red. masses --      2.4299                 1.8403                 1.1208
 Frc consts  --      1.7222                 1.3670                 0.8968
 IR Inten    --      2.6506                 2.0096                 0.4559

                     28                     29                     30
                      A                      A                      A
 Frequencies --   1208.9720              1226.9249              1238.4307
 Red. masses --      1.4225                 1.6921                 1.5676
 Frc consts  --      1.2250                 1.5008                 1.4166
 IR Inten    --      1.6391                45.3553                15.4989

                     31                     32                     33
                      A                      A                      A
 Frequencies --   1261.9802              1278.9678              1302.6069
 Red. masses --      1.5496                 1.6434                 1.3420
 Frc consts  --      1.4540                 1.5839                 1.3416
 IR Inten    --     31.5314                 0.9913                30.8801

                     34                     35                     36
                      A                      A                      A
 Frequencies --   1315.3137              1336.5966              1365.9757
 Red. masses --      1.8398                 1.3583                 1.5012
 Frc consts  --      1.8754                 1.4297                 1.6503
 IR Inten    --     13.8638                 5.2364                 1.5985

                     37                     38                     39
                      A                      A                      A
 Frequencies --   1374.2131              1430.2710              1489.6271
 Red. masses --      2.0978                 1.4276                 1.4772
 Frc consts  --      2.3341                 1.7207                 1.9312
 IR Inten    --     74.3858                27.2881                 8.2802

                     40                     41                     42
                      A                      A                      A
 Frequencies --   1500.0112              1521.8246              3015.3322
 Red. masses --      1.2112                 1.0992                 1.0560
 Frc consts  --      1.6056                 1.4999                 5.6571
 IR Inten    --      7.2262                 0.3876                70.0209

                     43                     44                     45
                      A                      A                      A
 Frequencies --   3030.2994              3049.1225              3061.7376
 Red. masses --      1.0620                 1.0870                 1.1095
 Frc consts  --      5.7460                 5.9544                 6.1282
 IR Inten    --     48.6168                39.4162                33.5553

                     46                     47                     48
                      A                      A                      A
 Frequencies --   3068.4649              3109.8754              3112.3297
 Red. masses --      1.1018                 1.0873                 1.0588
 Frc consts  --      6.1124                 6.1954                 6.0430
 IR Inten    --     19.9953                33.9629                19.7555

                     49                     50                     51
                      A                      A                      A
 Frequencies --   3181.0176              3209.5935              3745.7446
 Red. masses --      1.0916                 1.1124                 1.0648
 Frc consts  --      6.5077                 6.7519                 8.8021
 IR Inten    --      8.5442                 7.0110                38.6766

 - Thermochemistry -
 -------------------
 Temperature   298.150 Kelvin.  Pressure   1.00000 Atm.
 Atom     1 has atomic number  8 and mass  15.99491

 Molecular mass:   126.06808 amu.
 Principal axes and moments of inertia in atomic units:
                           1         2         3
     Eigenvalues --   687.12619 960.086301367.03656
           X            0.99995  -0.00308  -0.01002
           Y            0.00307   1.00000  -0.00076
           Z            0.01002   0.00073   0.99995
 This molecule is an asymmetric top.
 Rotational symmetry number  1.
 Warning -- assumption of classical behavior for rotation
           may cause significant error
 Rotational temperatures (Kelvin)      0.12605     0.09021     0.06336
 Rotational constants (GHZ):           2.62651     1.87977     1.32019
 Zero-point vibrational energy     423156.8 (Joules/Mol)
                                  101.13691 (Kcal/Mol)
 Warning -- explicit consideration of   9 degrees of freedom as
           vibrations may cause significant error
 Vibrational temperatures:    131.30   258.27   354.51   497.88   525.55
          (Kelvin)            606.64   688.38   728.51   798.44   939.64
                             1095.22  1140.06  1209.51  1247.17  1265.72
                             1277.32  1319.61  1382.49  1419.83  1437.75
                             1468.88  1493.61  1518.41  1548.12  1578.02
                             1615.51  1676.68  1739.44  1765.27  1781.82
                             1815.71  1840.15  1874.16  1892.44  1923.06
                             1965.33  1977.18  2057.84  2143.24  2158.18
                             2189.56  4338.39  4359.92  4387.00  4405.15
                             4414.83  4474.41  4477.94  4576.77  4617.88
                             5389.28

 Zero-point correction=                           0.161172 (Hartree/Particle)
 Thermal correction to Energy=                    0.168534
 Thermal correction to Enthalpy=                  0.169478
 Thermal correction to Gibbs Free Energy=         0.129477
 Sum of electronic and zero-point Energies=           -423.003341
 Sum of electronic and thermal Energies=              -422.995979
 Sum of electronic and thermal Enthalpies=            -422.995035
 Sum of electronic and thermal Free Energies=         -423.035036

                     E (Thermal)             CV                S
                      KCal/Mol        Cal/Mol-Kelvin    Cal/Mol-Kelvin
 Total                  105.756             29.867             84.190
 Electronic               0.000              0.000              0.000
 Translational            0.889              2.981             40.409
 Rotational               0.889              2.981             28.291
 Vibrational            103.979             23.906             15.490
 Vibration     1          0.602              1.955              3.633
 Vibration     2          0.629              1.867              2.334
 Vibration     3          0.661              1.769              1.756
 Vibration     4          0.724              1.583              1.184
 Vibration     5          0.738              1.544              1.100
 Vibration     6          0.784              1.423              0.886
 Vibration     7          0.835              1.298              0.714
 Vibration     8          0.862              1.236              0.642
 Vibration     9          0.910              1.129              0.534

 Normal termination of Gaussian 09 at Mon Jan 27 19:58:48 2020.
