 Gaussian 09, Revision D.01,
 Gaussian 09:  ES64L-G09RevD.01 24-Apr-2013

 -----------------------------
 # b3lyp 6-31G(2df,p) opt Freq
 -----------------------------

 -----
 titel
 -----
 Symbolic Z-matrix:
 Charge =  0 Multiplicity = 1

 SCF Done:  E(RB3LYP) =  -423.130627107     A.U. after   12 cycles
 Optimization completed.
    -- Stationary point found.
 Normal termination of Gaussian 09 at Mon Jan 27 23:06:10 2020.

 ----------------------------------------------------------------------
 #N Geom=AllCheck Guess=TCheck SCRF=Check GenChk RB3LYP/6-31G(2df,p) Fr
 eq
 ----------------------------------------------------------------------

 Structure from the checkpoint file:  "/scratch/puck/g09_4d1c0cc9-78e4-40b7-b804-439dc335478e/Gau-67605.chk"
 -----
 titel
 -----
 Charge =  0 Multiplicity = 1

                         Standard orientation:
 ---------------------------------------------------------------------
 Center     Atomic      Atomic             Coordinates (Angstroms)
 Number     Number       Type             X           Y           Z
 ---------------------------------------------------------------------
      1          8           0       -1.466881    1.772637   -0.563617
      2          6           0       -0.566963    1.155308    0.328504
      3          6           0        0.922030    1.241511   -0.045338
      4          6           0        1.743451    0.436096    0.946669
      5          6           0        1.004366   -0.296912   -0.116032
      6          8           0        1.680842   -1.155322   -0.958657
      7          6           0       -0.470232   -0.390292    0.229942
      8          6           0       -1.473500   -1.242069   -0.492690
      9          6           0       -1.205049   -1.456583    0.981843
     10          1           0       -1.295801    1.416747   -1.442953
     11          1           0       -0.822876    1.547217    1.318479
     12          1           0        1.362135    2.014387   -0.664071
     13          1           0        2.815114    0.492422    0.782345
     14          1           0        1.446655    0.366995    1.991430
     15          1           0        1.205314   -1.188370   -1.796727
     16          1           0       -2.411193   -0.778418   -0.781863
     17          1           0       -1.106426   -1.995816   -1.183601
     18          1           0       -1.972526   -1.149114    1.684893
     19          1           0       -0.656705   -2.346927    1.272873
 ---------------------------------------------------------------------

 SCF Done:  E(RB3LYP) =  -423.130627107     A.U. after    1 cycles

 The electronic state is 1-A.
 Alpha  occ. eigenvalues --  -19.15542 -19.13920 -10.24320 -10.23513 -10.19510
 Alpha  occ. eigenvalues --  -10.19106 -10.18724 -10.18654 -10.18579  -1.04175
 Alpha  occ. eigenvalues --   -1.02238  -0.89170  -0.83992  -0.69583  -0.62504
 Alpha  occ. eigenvalues --   -0.60689  -0.58678  -0.56586  -0.51284  -0.49891
 Alpha  occ. eigenvalues --   -0.48496  -0.45700  -0.42669  -0.42052  -0.40111
 Alpha  occ. eigenvalues --   -0.37360  -0.36589  -0.35325  -0.33796  -0.31034
 Alpha  occ. eigenvalues --   -0.29870  -0.27404  -0.25951  -0.23443
 Alpha virt. eigenvalues --    0.06048   0.08926   0.09905   0.10401   0.11856
 Alpha virt. eigenvalues --    0.12978   0.13201   0.14948   0.16222   0.17143
 Alpha virt. eigenvalues --    0.18274   0.20072   0.21173   0.22615   0.23286

 Mulliken charges:
               1
     1  O   -0.430424
     2  C    0.079575
     3  C   -0.211670
     4  C   -0.317366
     5  C    0.340750
     6  O   -0.451911
     7  C    0.244676
     8  C   -0.352516
     9  C   -0.336788
    10  H    0.274242
    11  H    0.088623
    12  H    0.093424
    13  H    0.120362
    14  H    0.108432
    15  H    0.283059
    16  H    0.123892
    17  H    0.107305
    18  H    0.117657
    19  H    0.118679
 Sum of Mulliken charges =   0.00000

 Dipole moment (field-independent basis, Debye):
    X=             -0.0063    Y=             -0.5445    Z=             -1.1299  Tot=              1.2543
 Quadrupole moment (field-independent basis, Debye-Ang):
   XX=            -57.2093   YY=            -57.4039   ZZ=            -46.7227
   XY=              4.4122   XZ=              0.4295   YZ=              0.4563

  Exact polarizability:  79.065   4.038  75.908   2.434   0.480  72.236
 Approx polarizability: 109.542   0.736 111.846   3.768   1.193 111.068

                      1                      2                      3
                      A                      A                      A
 Frequencies --    109.1548               205.4353               211.5502
 Red. masses --      4.1470                 3.6750                 3.3230
 Frc consts  --      0.0291                 0.0914                 0.0876
 IR Inten    --      1.0661                 0.9335                 3.1737

                      4                      5                      6
                      A                      A                      A
 Frequencies --    222.1648               275.5498               313.0228
 Red. masses --      2.2059                 1.2182                 2.4627
 Frc consts  --      0.0641                 0.0545                 0.1422
 IR Inten    --      1.1840                 7.6396                 2.1550

                      7                      8                      9
                      A                      A                      A
 Frequencies --    362.8778               397.7016               457.0193
 Red. masses --      1.3460                 2.0778                 3.2971
 Frc consts  --      0.1044                 0.1936                 0.4057
 IR Inten    --    179.4828                30.8066                 4.4972

                     10                     11                     12
                      A                      A                      A
 Frequencies --    490.7221               515.6018               596.7271
 Red. masses --      3.2225                 4.0901                 3.7640
 Frc consts  --      0.4572                 0.6406                 0.7897
 IR Inten    --      1.7522                 1.0395                 3.0153

                     13                     14                     15
                      A                      A                      A
 Frequencies --    676.1656               790.1776               817.7478
 Red. masses --      3.1629                 1.1489                 2.5322
 Frc consts  --      0.8520                 0.4226                 0.9977
 IR Inten    --     13.0668                 2.4927                 1.1268

                     16                     17                     18
                      A                      A                      A
 Frequencies --    834.5512               850.9050               909.3629
 Red. masses --      2.0763                 1.8934                 1.6224
 Frc consts  --      0.8520                 0.8077                 0.7905
 IR Inten    --      8.8271                 3.8947                 7.9326

                     19                     20                     21
                      A                      A                      A
 Frequencies --    952.7486               960.9841               974.9891
 Red. masses --      1.6200                 2.3108                 2.0594
 Frc consts  --      0.8664                 1.2573                 1.1534
 IR Inten    --     15.9183                13.3624                 7.8293

                     22                     23                     24
                      A                      A                      A
 Frequencies --   1004.1831              1008.9991              1038.3038
 Red. masses --      2.1648                 2.2302                 1.8479
 Frc consts  --      1.2862                 1.3377                 1.1738
 IR Inten    --     11.4090                15.3036                20.6977

                     25                     26                     27
                      A                      A                      A
 Frequencies --   1050.5993              1078.2649              1091.8850
 Red. masses --      1.4156                 1.4046                 1.5491
 Frc consts  --      0.9206                 0.9622                 1.0881
 IR Inten    --      8.2626                 0.0766                23.5255

                     28                     29                     30
                      A                      A                      A
 Frequencies --   1107.2201              1175.7449              1193.6933
 Red. masses --      2.3395                 1.8967                 1.2750
 Frc consts  --      1.6898                 1.5448                 1.0704
 IR Inten    --     74.9906                12.2125                 0.4333

                     31                     32                     33
                      A                      A                      A
 Frequencies --   1222.5833              1238.5894              1249.4746
 Red. masses --      1.8302                 1.5638                 1.8019
 Frc consts  --      1.6117                 1.4135                 1.6575
 IR Inten    --     26.4875                11.0598                19.2073

                     34                     35                     36
                      A                      A                      A
 Frequencies --   1286.2198              1307.7285              1396.7480
 Red. masses --      1.7361                 2.0324                 2.4588
 Frc consts  --      1.6922                 2.0479                 2.8262
 IR Inten    --     28.1709               116.2757                54.2007

                     37                     38                     39
                      A                      A                      A
 Frequencies --   1411.2951              1432.5003              1456.9329
 Red. masses --      1.8440                 1.3495                 1.0935
 Frc consts  --      2.1639                 1.6316                 1.3676
 IR Inten    --      6.9611                46.9956                 1.8830

                     40                     41                     42
                      A                      A                      A
 Frequencies --   1496.7915              1499.0568              3056.5985
 Red. masses --      1.5105                 1.5763                 1.0859
 Frc consts  --      1.9938                 2.0870                 5.9772
 IR Inten    --     13.2214                 4.2906                39.8215

                     43                     44                     45
                      A                      A                      A
 Frequencies --   3100.7561              3117.1290              3125.3106
 Red. masses --      1.0576                 1.0525                 1.0548
 Frc consts  --      5.9910                 6.0252                 6.0704
 IR Inten    --     20.2490                15.7386                13.3200

                     46                     47                     48
                      A                      A                      A
 Frequencies --   3187.1530              3200.0553              3200.6073
 Red. masses --      1.0960                 1.1166                 1.1103
 Frc consts  --      6.5593                 6.7369                 6.7013
 IR Inten    --      6.6827                 0.4946                10.5270

                     49                     50                     51
                      A                      A                      A
 Frequencies --   3215.0777              3789.1336              3797.2847
 Red. masses --      1.1156                 1.0656                 1.0655
 Frc consts  --      6.7944                 9.0143                 9.0523
 IR Inten    --     12.0652                12.5016                11.9489

 - Thermochemistry -
 -------------------
 Temperature   298.150 Kelvin.  Pressure   1.00000 Atm.
 Atom     1 has atomic number  8 and mass  15.99491

 Molecular mass:   126.06808 amu.
 Principal axes and moments of inertia in atomic units:
                           1         2         3
     Eigenvalues --   861.655991010.592781402.41670
           X            0.98089   0.19418   0.01204
           Y           -0.19420   0.98096   0.00034
           Z           -0.01175  -0.00268   0.99993
 This molecule is an asymmetric top.
 Rotational symmetry number  1.
 Warning -- assumption of classical behavior for rotation
           may cause significant error
 Rotational temperatures (Kelvin)      0.10052     0.08571     0.06176
 Rotational constants (GHZ):           2.09450     1.78582     1.28688
 Zero-point vibrational energy     415469.5 (Joules/Mol)
                                   99.29960 (Kcal/Mol)
 Warning -- explicit consideration of  12 degrees of freedom as
           vibrations may cause significant error
 Vibrational temperatures:    157.05   295.58   304.37   319.65   396.45
          (Kelvin)            450.37   522.10   572.20   657.55   706.04
                              741.83   858.56   972.85  1136.89  1176.56
                             1200.73  1224.26  1308.37  1370.79  1382.64
                             1402.79  1444.79  1451.72  1493.89  1511.58
                             1551.38  1570.98  1593.04  1691.63  1717.46
                             1759.02  1782.05  1797.71  1850.58  1881.53
                             2009.61  2030.54  2061.05  2096.20  2153.55
                             2156.81  4397.76  4461.29  4484.85  4496.62
                             4585.60  4604.16  4604.95  4625.77  5451.71
                             5463.44

 Zero-point correction=                           0.158244 (Hartree/Particle)
 Thermal correction to Energy=                    0.166734
 Thermal correction to Enthalpy=                  0.167679
 Thermal correction to Gibbs Free Energy=         0.125731
 Sum of electronic and zero-point Energies=           -422.972383
 Sum of electronic and thermal Energies=              -422.963893
 Sum of electronic and thermal Enthalpies=            -422.962948
 Sum of electronic and thermal Free Energies=         -423.004896

                     E (Thermal)             CV                S
                      KCal/Mol        Cal/Mol-Kelvin    Cal/Mol-Kelvin
 Total                  104.627             33.785             88.287
 Electronic               0.000              0.000              0.000
 Translational            0.889              2.981             40.409
 Rotational               0.889              2.981             28.592
 Vibrational            102.850             27.823             19.286
 Vibration     1          0.606              1.942              3.284
 Vibration     2          0.640              1.832              2.084
 Vibration     3          0.643              1.823              2.030
 Vibration     4          0.648              1.807              1.941
 Vibration     5          0.677              1.719              1.561
 Vibration     6          0.701              1.649              1.346
 Vibration     7          0.737              1.549              1.110
 Vibration     8          0.764              1.475              0.971
 Vibration     9          0.815              1.345              0.775
 Vibration    10          0.847              1.271              0.682
 Vibration    11          0.871              1.215              0.620
 Vibration    12          0.955              1.039              0.455

 Normal termination of Gaussian 09 at Mon Jan 27 23:51:12 2020.
