 Gaussian 09, Revision D.01,
 Gaussian 09:  ES64L-G09RevD.01 24-Apr-2013

 -----------------------------
 # b3lyp 6-31G(2df,p) opt Freq
 -----------------------------

 -----
 titel
 -----
 Symbolic Z-matrix:
 Charge =  0 Multiplicity = 1

 SCF Done:  E(RB3LYP) =  -423.175612787     A.U. after   14 cycles
 Optimization completed.
    -- Stationary point found.
 Normal termination of Gaussian 09 at Mon Jan 27 22:14:52 2020.

 ----------------------------------------------------------------------
 #N Geom=AllCheck Guess=TCheck SCRF=Check GenChk RB3LYP/6-31G(2df,p) Fr
 eq
 ----------------------------------------------------------------------

 Structure from the checkpoint file:  "/scratch/puck/g09_f8d59c3d-a0fb-48e1-a12f-b331c8df3160/Gau-28533.chk"
 -----
 titel
 -----
 Charge =  0 Multiplicity = 1

                         Standard orientation:
 ---------------------------------------------------------------------
 Center     Atomic      Atomic             Coordinates (Angstroms)
 Number     Number       Type             X           Y           Z
 ---------------------------------------------------------------------
      1          6           0       -1.603007    1.329775    0.987214
      2          6           0       -0.651460    0.621148    0.054443
      3          6           0        0.362009    1.386108   -0.730862
      4          6           0        1.506779    0.713546   -0.890909
      5          6           0        1.497501   -0.606967   -0.147355
      6          8           0        2.472393   -0.665056    0.891049
      7          6           0        0.059183   -0.696951    0.365876
      8          6           0       -1.062664   -0.667085   -0.641713
      9          8           0       -2.297830   -1.207823   -0.277677
     10          1           0       -1.065619    1.826920    1.802003
     11          1           0       -2.177714    2.094422    0.451614
     12          1           0       -2.314500    0.622276    1.417304
     13          1           0        0.143991    2.363946   -1.148326
     14          1           0        2.369608    1.045426   -1.456563
     15          1           0        1.746959   -1.451466   -0.801067
     16          1           0        2.375015    0.141351    1.410285
     17          1           0       -0.123340   -1.221130    1.297988
     18          1           0       -0.814319   -0.759027   -1.700285
     19          1           0       -2.186632   -2.157128   -0.160091
 ---------------------------------------------------------------------

 SCF Done:  E(RB3LYP) =  -423.175612787     A.U. after    1 cycles

 The electronic state is 1-A.
 Alpha  occ. eigenvalues --  -19.14739 -19.13215 -10.23721 -10.23389 -10.19823
 Alpha  occ. eigenvalues --  -10.18868 -10.18384 -10.17913 -10.17558  -1.03294
 Alpha  occ. eigenvalues --   -1.01389  -0.88151  -0.76073  -0.72460  -0.67379
 Alpha  occ. eigenvalues --   -0.60436  -0.57081  -0.53799  -0.52203  -0.50434
 Alpha  occ. eigenvalues --   -0.45466  -0.44699  -0.42068  -0.41481  -0.40140
 Alpha  occ. eigenvalues --   -0.39450  -0.37393  -0.35003  -0.33421  -0.31447
 Alpha  occ. eigenvalues --   -0.30370  -0.26674  -0.25570  -0.23927
 Alpha virt. eigenvalues --    0.00612   0.07935   0.09837   0.11326   0.12453
 Alpha virt. eigenvalues --    0.13019   0.13597   0.15424   0.16186   0.17143
 Alpha virt. eigenvalues --    0.17666   0.19075   0.20608   0.22078   0.23440

 Mulliken charges:
               1
     1  C   -0.487658
     2  C    0.284261
     3  C   -0.137651
     4  C   -0.146115
     5  C    0.088043
     6  O   -0.431365
     7  C   -0.205243
     8  C    0.065234
     9  O   -0.430246
    10  H    0.111699
    11  H    0.118064
    12  H    0.136923
    13  H    0.099647
    14  H    0.100510
    15  H    0.091681
    16  H    0.274895
    17  H    0.091483
    18  H    0.086512
    19  H    0.289328
 Sum of Mulliken charges =   0.00000

 Dipole moment (field-independent basis, Debye):
    X=             -0.3230    Y=              0.2308    Z=             -0.1033  Tot=              0.4102
 Quadrupole moment (field-independent basis, Debye-Ang):
   XX=            -60.4570   YY=            -48.0375   ZZ=            -51.7381
   XY=              4.6162   XZ=             -1.9747   YZ=              1.1980

  Exact polarizability:  88.168  -2.555  77.517  -3.544  -1.195  65.447
 Approx polarizability: 130.284  -9.133 117.309  -1.596  -2.292  98.634

                      1                      2                      3
                      A                      A                      A
 Frequencies --    127.6549               178.3338               197.3655
 Red. masses --      3.7877                 1.0442                 3.6693
 Frc consts  --      0.0364                 0.0196                 0.0842
 IR Inten    --      3.7364                 6.7210                 0.4290

                      4                      5                      6
                      A                      A                      A
 Frequencies --    224.2885               248.0144               287.9578
 Red. masses --      2.1326                 1.6207                 2.6207
 Frc consts  --      0.0632                 0.0587                 0.1280
 IR Inten    --     48.3387                20.9427                 9.2354

                      7                      8                      9
                      A                      A                      A
 Frequencies --    312.8654               347.1757               399.6790
 Red. masses --      2.8062                 1.1980                 2.4522
 Frc consts  --      0.1618                 0.0851                 0.2308
 IR Inten    --     11.5249                82.8880                10.3696

                     10                     11                     12
                      A                      A                      A
 Frequencies --    416.5839               496.2317               586.6661
 Red. masses --      3.6923                 4.9287                 3.3735
 Frc consts  --      0.3775                 0.7151                 0.6841
 IR Inten    --      0.4120                 8.8253                 0.2581

                     13                     14                     15
                      A                      A                      A
 Frequencies --    639.6476               742.0560               779.8329
 Red. masses --      3.6118                 2.4017                 5.1953
 Frc consts  --      0.8707                 0.7792                 1.8615
 IR Inten    --      5.4762                 6.9947                 2.6520

                     16                     17                     18
                      A                      A                      A
 Frequencies --    811.3526               857.6627               914.7131
 Red. masses --      1.7187                 3.5048                 2.4321
 Frc consts  --      0.6666                 1.5190                 1.1989
 IR Inten    --     28.7369                11.9253                22.0976

                     19                     20                     21
                      A                      A                      A
 Frequencies --    937.5044               959.9241               979.0214
 Red. masses --      2.0995                 1.3079                 1.3915
 Frc consts  --      1.0872                 0.7101                 0.7858
 IR Inten    --     11.4984                 7.2714                 4.9580

                     22                     23                     24
                      A                      A                      A
 Frequencies --   1036.6944              1043.8619              1060.6564
 Red. masses --      5.3368                 1.8354                 1.5787
 Frc consts  --      3.3794                 1.1783                 1.0464
 IR Inten    --    112.3372                21.1686                14.3697

                     25                     26                     27
                      A                      A                      A
 Frequencies --   1089.3554              1111.2826              1122.5082
 Red. masses --      1.3908                 1.7456                 1.2156
 Frc consts  --      0.9724                 1.2701                 0.9024
 IR Inten    --     10.7383                17.2480                 1.1831

                     28                     29                     30
                      A                      A                      A
 Frequencies --   1153.5713              1230.0111              1247.2255
 Red. masses --      3.7502                 1.7991                 1.7510
 Frc consts  --      2.9403                 1.6037                 1.6048
 IR Inten    --     42.9879                31.3402                 1.8861

                     31                     32                     33
                      A                      A                      A
 Frequencies --   1262.3212              1279.6093              1304.8391
 Red. masses --      1.4755                 1.3529                 1.6848
 Frc consts  --      1.3852                 1.3052                 1.6901
 IR Inten    --     13.1357                24.9724                33.1162

                     34                     35                     36
                      A                      A                      A
 Frequencies --   1321.1730              1380.0035              1412.7604
 Red. masses --      1.6503                 1.7397                 1.3948
 Frc consts  --      1.6972                 1.9520                 1.6402
 IR Inten    --      0.5799                10.3492                 2.8651

                     37                     38                     39
                      A                      A                      A
 Frequencies --   1422.6763              1438.9554              1493.6335
 Red. masses --      1.2237                 2.2552                 1.0476
 Frc consts  --      1.4593                 2.7513                 1.3771
 IR Inten    --     57.8382                37.1692                 4.0504

                     40                     41                     42
                      A                      A                      A
 Frequencies --   1497.7758              1655.5162              3029.9644
 Red. masses --      1.0581                 6.5375                 1.0383
 Frc consts  --      1.3986                10.5568                 5.6165
 IR Inten    --      8.4497                 2.9822                38.6329

                     43                     44                     45
                      A                      A                      A
 Frequencies --   3040.6818              3085.0023              3086.5224
 Red. masses --      1.0839                 1.1005                 1.0879
 Frc consts  --      5.9045                 6.1709                 6.1063
 IR Inten    --     32.9497                17.1106                35.4753

                     46                     47                     48
                      A                      A                      A
 Frequencies --   3132.0258              3175.8370              3179.3358
 Red. masses --      1.0977                 1.0902                 1.0866
 Frc consts  --      6.3441                 6.4786                 6.4713
 IR Inten    --      7.8002                 6.4270                 8.2499

                     49                     50                     51
                      A                      A                      A
 Frequencies --   3210.1845              3796.7971              3804.3578
 Red. masses --      1.1019                 1.0659                 1.0663
 Frc consts  --      6.6906                 9.0536                 9.0928
 IR Inten    --     14.5806                13.9423                24.1299

 - Thermochemistry -
 -------------------
 Temperature   298.150 Kelvin.  Pressure   1.00000 Atm.
 Atom     1 has atomic number  6 and mass  12.00000

 Molecular mass:   126.06808 amu.
 Principal axes and moments of inertia in atomic units:
                           1         2         3
     Eigenvalues --   675.912821368.749281584.62748
           X            0.99966  -0.00836  -0.02476
           Y            0.00931   0.99920   0.03879
           Z            0.02442  -0.03900   0.99894
 This molecule is an asymmetric top.
 Rotational symmetry number  1.
 Warning -- assumption of classical behavior for rotation
           may cause significant error
 Rotational temperatures (Kelvin)      0.12814     0.06328     0.05466
 Rotational constants (GHZ):           2.67008     1.31853     1.13891
 Zero-point vibrational energy     415999.4 (Joules/Mol)
                                   99.42625 (Kcal/Mol)
 Warning -- explicit consideration of  12 degrees of freedom as
           vibrations may cause significant error
 Vibrational temperatures:    183.67   256.58   283.96   322.70   356.84
          (Kelvin)            414.31   450.14   499.51   575.05   599.37
                              713.97   844.08   920.31  1067.65  1122.00
                             1167.35  1233.98  1316.07  1348.86  1381.11
                             1408.59  1491.57  1501.88  1526.05  1567.34
                             1598.89  1615.04  1659.73  1769.71  1794.48
                             1816.20  1841.07  1877.37  1900.87  1985.51
                             2032.64  2046.91  2070.33  2149.00  2154.96
                             2381.92  4359.44  4374.86  4438.62  4440.81
                             4506.28  4569.32  4574.35  4618.73  5462.74
                             5473.62

 Zero-point correction=                           0.158446 (Hartree/Particle)
 Thermal correction to Energy=                    0.167277
 Thermal correction to Enthalpy=                  0.168222
 Thermal correction to Gibbs Free Energy=         0.125555
 Sum of electronic and zero-point Energies=           -423.017167
 Sum of electronic and thermal Energies=              -423.008335
 Sum of electronic and thermal Enthalpies=            -423.007391
 Sum of electronic and thermal Free Energies=         -423.050058

                     E (Thermal)             CV                S
                      KCal/Mol        Cal/Mol-Kelvin    Cal/Mol-Kelvin
 Total                  104.968             34.269             89.799
 Electronic               0.000              0.000              0.000
 Translational            0.889              2.981             40.409
 Rotational               0.889              2.981             28.774
 Vibrational            103.191             28.307             20.617
 Vibration     1          0.611              1.926              2.981
 Vibration     2          0.629              1.869              2.346
 Vibration     3          0.637              1.844              2.158
 Vibration     4          0.649              1.804              1.924
 Vibration     5          0.662              1.766              1.745
 Vibration     6          0.685              1.696              1.486
 Vibration     7          0.701              1.649              1.347
 Vibration     8          0.725              1.581              1.179
 Vibration     9          0.766              1.471              0.964
 Vibration    10          0.780              1.434              0.904
 Vibration    11          0.852              1.258              0.668
 Vibration    12          0.944              1.060              0.473

 Optimization completed.
    -- Stationary point found.
 Normal termination of Gaussian 09 at Tue Jan 28 00:28:25 2020.
