 Gaussian 09, Revision D.01,
 Gaussian 09:  ES64L-G09RevD.01 24-Apr-2013

 -----------------------------
 # b3lyp 6-31G(2df,p) opt Freq
 -----------------------------

 -----
 titel
 -----
 Symbolic Z-matrix:
 Charge =  0 Multiplicity = 1

 SCF Done:  E(RB3LYP) =  -423.126133032     A.U. after   14 cycles
 Optimization completed.
    -- Stationary point found.
 Normal termination of Gaussian 09 at Tue Jan 28 13:23:32 2020.

 ----------------------------------------------------------------------
 #N Geom=AllCheck Guess=TCheck SCRF=Check GenChk RB3LYP/6-31G(2df,p) Fr
 eq
 ----------------------------------------------------------------------

 Structure from the checkpoint file:  "/scratch/puck/g09_42f4ed11-eb45-4d94-852a-3673468511bd/Gau-144640.chk"
 -----
 titel
 -----
 Charge =  0 Multiplicity = 1

                         Standard orientation:
 ---------------------------------------------------------------------
 Center     Atomic      Atomic             Coordinates (Angstroms)
 Number     Number       Type             X           Y           Z
 ---------------------------------------------------------------------
      1          6           0       -2.568046    0.025905    1.216044
      2          6           0       -2.099364   -0.012298   -0.243433
      3          6           0       -0.816631   -0.789187   -0.401979
      4          8           0       -0.097759   -0.642634   -1.630714
      5          6           0        0.525278   -0.164082   -0.426821
      6          6           0        1.754330   -0.955122    0.011033
      7          8           0        2.109915   -0.690888    1.352145
      8          6           0        0.678178    1.266936   -0.294127
      9          6           0        0.889056    2.441462   -0.138483
     10          1           0       -2.721197   -0.983485    1.612948
     11          1           0       -1.831789    0.526374    1.852533
     12          1           0       -3.514960    0.565410    1.305570
     13          1           0       -2.865547   -0.481896   -0.872799
     14          1           0       -1.950671    1.001592   -0.626602
     15          1           0       -0.847017   -1.817026   -0.032027
     16          1           0        1.528321   -2.022503   -0.057460
     17          1           0        2.578847   -0.739122   -0.685275
     18          1           0        2.301250    0.251878    1.418722
     19          1           0        1.048721    3.485271   -0.020468
 ---------------------------------------------------------------------

 SCF Done:  E(RB3LYP) =  -423.126133032     A.U. after    1 cycles

 The electronic state is 1-A.
 Alpha  occ. eigenvalues --  -19.16010 -19.14119 -10.26377 -10.24522 -10.23738
 Alpha  occ. eigenvalues --  -10.19849 -10.19431 -10.18968 -10.18130  -1.08143
 Alpha  occ. eigenvalues --   -1.02370  -0.78517  -0.77959  -0.72454  -0.66905
 Alpha  occ. eigenvalues --   -0.64110  -0.60155  -0.53622  -0.52421  -0.49699
 Alpha  occ. eigenvalues --   -0.47795  -0.44584  -0.44389  -0.41987  -0.41224
 Alpha  occ. eigenvalues --   -0.37476  -0.36606  -0.35400  -0.34463  -0.32493
 Alpha  occ. eigenvalues --   -0.29632  -0.28429  -0.27810  -0.25928
 Alpha virt. eigenvalues --    0.01506   0.03141   0.08691   0.08990   0.10915
 Alpha virt. eigenvalues --    0.11430   0.13715   0.14570   0.14853   0.15905
 Alpha virt. eigenvalues --    0.16415   0.18423   0.18743   0.19496   0.21776

 Mulliken charges:
               1
     1  C   -0.382765
     2  C   -0.232754
     3  C    0.041823
     4  O   -0.290677
     5  C    0.171544
     6  C   -0.152122
     7  O   -0.409542
     8  C    0.280370
     9  C   -0.437810
    10  H    0.119652
    11  H    0.129950
    12  H    0.120029
    13  H    0.110007
    14  H    0.118615
    15  H    0.094891
    16  H    0.121391
    17  H    0.103720
    18  H    0.288779
    19  H    0.204898
 Sum of Mulliken charges =   0.00000

 Dipole moment (field-independent basis, Debye):
    X=             -0.5874    Y=              1.2876    Z=              0.7537  Tot=              1.6035
 Quadrupole moment (field-independent basis, Debye-Ang):
   XX=            -50.6933   YY=            -47.1327   ZZ=            -59.8563
   XY=              4.0602   XZ=             -1.6750   YZ=              1.8974

  Exact polarizability:  81.394   7.153  89.580   0.176   2.683  62.277
 Approx polarizability: 104.341  15.192 143.636   3.586   8.211  96.788

                      1                      2                      3
                      A                      A                      A
 Frequencies --     61.5582                71.8459               121.2383
 Red. masses --      2.9906                 3.8731                 4.0210
 Frc consts  --      0.0067                 0.0118                 0.0348
 IR Inten    --      0.6525                 1.4971                 1.0016

                      4                      5                      6
                      A                      A                      A
 Frequencies --    146.1073               174.6847               217.2337
 Red. masses --      2.1609                 2.5898                 1.4189
 Frc consts  --      0.0272                 0.0466                 0.0395
 IR Inten    --      0.2269                 1.3041                 0.0263

                      7                      8                      9
                      A                      A                      A
 Frequencies --    282.8179               288.9226               364.3851
 Red. masses --      2.2780                 3.2587                 1.2776
 Frc consts  --      0.1074                 0.1603                 0.0999
 IR Inten    --      5.9623                 3.5318               130.6045

                     10                     11                     12
                      A                      A                      A
 Frequencies --    387.3843               439.5728               489.2353
 Red. masses --      3.5407                 3.2695                 6.3525
 Frc consts  --      0.3131                 0.3722                 0.8958
 IR Inten    --      5.5585                11.6934                 5.3600

                     13                     14                     15
                      A                      A                      A
 Frequencies --    581.6666               585.7627               625.9989
 Red. masses --      4.9801                 6.5680                 1.2168
 Frc consts  --      0.9927                 1.3278                 0.2809
 IR Inten    --      4.7624                 1.5945                46.1231

                     16                     17                     18
                      A                      A                      A
 Frequencies --    678.2147               682.4970               782.9911
 Red. masses --      1.3721                 2.9794                 1.4984
 Frc consts  --      0.3719                 0.8177                 0.5412
 IR Inten    --     34.7791                19.9318                 1.6483

                     19                     20                     21
                      A                      A                      A
 Frequencies --    852.3523               903.0175               936.8603
 Red. masses --      2.1352                 2.7432                 2.2875
 Frc consts  --      0.9140                 1.3180                 1.1829
 IR Inten    --     10.3586                 6.3385                20.9459

                     22                     23                     24
                      A                      A                      A
 Frequencies --   1018.2858              1027.5837              1061.9043
 Red. masses --      1.2992                 2.9150                 2.2819
 Frc consts  --      0.7937                 1.8135                 1.5161
 IR Inten    --      7.5671                43.3223                13.4380

                     25                     26                     27
                      A                      A                      A
 Frequencies --   1082.7751              1149.2271              1165.7349
 Red. masses --      5.0615                 2.5334                 1.7653
 Frc consts  --      3.4963                 1.9713                 1.4134
 IR Inten    --     79.1841                 0.4110                 0.8948

                     28                     29                     30
                      A                      A                      A
 Frequencies --   1178.6695              1246.1392              1282.7871
 Red. masses --      1.4639                 1.9031                 1.2026
 Frc consts  --      1.1982                 1.7411                 1.1659
 IR Inten    --     12.7218                 6.5012                 1.4708

                     31                     32                     33
                      A                      A                      A
 Frequencies --   1331.1880              1359.4458              1376.6417
 Red. masses --      1.3815                 1.7050                 1.2583
 Frc consts  --      1.4424                 1.8565                 1.4050
 IR Inten    --     18.4677                10.8274                 1.7297

                     34                     35                     36
                      A                      A                      A
 Frequencies --   1412.1988              1417.2309              1465.8108
 Red. masses --      1.2436                 1.2222                 2.5498
 Frc consts  --      1.4612                 1.4463                 3.2278
 IR Inten    --      0.5515                55.2679                10.0254

                     37                     38                     39
                      A                      A                      A
 Frequencies --   1485.3448              1499.8584              1502.5443
 Red. masses --      1.0639                 1.0410                 1.0963
 Frc consts  --      1.3830                 1.3798                 1.4583
 IR Inten    --      1.3166                 4.9744                 0.9911

                     40                     41                     42
                      A                      A                      A
 Frequencies --   1508.0228              2226.9204              2993.5151
 Red. masses --      1.1095                 5.9693                 1.0691
 Frc consts  --      1.4866                17.4415                 5.6447
 IR Inten    --      7.5617                 0.9986                51.5592

                     43                     44                     45
                      A                      A                      A
 Frequencies --   3035.2923              3038.0351              3076.4578
 Red. masses --      1.0610                 1.0401                 1.0880
 Frc consts  --      5.7592                 5.6558                 6.0671
 IR Inten    --     15.3812                26.8752                 8.7847

                     46                     47                     48
                      A                      A                      A
 Frequencies --   3089.0147              3098.4584              3110.0010
 Red. masses --      1.0956                 1.0943                 1.1004
 Frc consts  --      6.1594                 6.1901                 6.2709
 IR Inten    --      5.0515                20.3367                45.6464

                     49                     50                     51
                      A                      A                      A
 Frequencies --   3115.8151              3497.5471              3794.5564
 Red. masses --      1.1022                 1.1612                 1.0657
 Frc consts  --      6.3043                 8.3691                 9.0411
 IR Inten    --     28.3361                72.3052                21.3693

 - Thermochemistry -
 -------------------
 Temperature   298.150 Kelvin.  Pressure   1.00000 Atm.
 Atom     1 has atomic number  6 and mass  12.00000

 Molecular mass:   126.06808 amu.
 Principal axes and moments of inertia in atomic units:
                           1         2         3
     Eigenvalues --   905.747491517.415181661.06892
           X            0.99939   0.00054  -0.03478
           Y            0.00022   0.99976   0.02177
           Z            0.03478  -0.02177   0.99916
 This molecule is an asymmetric top.
 Rotational symmetry number  1.
 Warning -- assumption of classical behavior for rotation
           may cause significant error
 Rotational temperatures (Kelvin)      0.09563     0.05708     0.05214
 Rotational constants (GHZ):           1.99254     1.18935     1.08649
 Zero-point vibrational energy     408652.4 (Joules/Mol)
                                   97.67028 (Kcal/Mol)
 Warning -- explicit consideration of  14 degrees of freedom as
           vibrations may cause significant error
 Vibrational temperatures:     88.57   103.37   174.43   210.22   251.33
          (Kelvin)            312.55   406.91   415.69   524.27   557.36
                              632.45   703.90   836.89   842.78   900.67
                              975.80   981.96  1126.55  1226.34  1299.24
                             1347.93  1465.08  1478.46  1527.84  1557.87
                             1653.48  1677.23  1695.84  1792.91  1845.64
                             1915.28  1955.94  1980.68  2031.84  2039.08
                             2108.97  2137.08  2157.96  2161.82  2169.71
                             3204.04  4307.00  4367.10  4371.05  4426.33
                             4444.40  4457.98  4474.59  4482.96  5032.18
                             5459.51

 Zero-point correction=                           0.155647 (Hartree/Particle)
 Thermal correction to Energy=                    0.165858
 Thermal correction to Enthalpy=                  0.166802
 Thermal correction to Gibbs Free Energy=         0.120108
 Sum of electronic and zero-point Energies=           -422.970486
 Sum of electronic and thermal Energies=              -422.960275
 Sum of electronic and thermal Enthalpies=            -422.959331
 Sum of electronic and thermal Free Energies=         -423.006025

                     E (Thermal)             CV                S
                      KCal/Mol        Cal/Mol-Kelvin    Cal/Mol-Kelvin
 Total                  104.078             36.867             98.276
 Electronic               0.000              0.000              0.000
 Translational            0.889              2.981             40.409
 Rotational               0.889              2.981             29.214
 Vibrational            102.300             30.906             28.653
 Vibration     1          0.597              1.973              4.407
 Vibration     2          0.598              1.967              4.102
 Vibration     3          0.609              1.931              3.081
 Vibration     4          0.617              1.907              2.722
 Vibration     5          0.627              1.874              2.384
 Vibration     6          0.646              1.815              1.982
 Vibration     7          0.682              1.705              1.517
 Vibration     8          0.685              1.694              1.480
 Vibration     9          0.738              1.546              1.103
 Vibration    10          0.756              1.497              1.010
 Vibration    11          0.800              1.384              0.828
 Vibration    12          0.845              1.274              0.686
 Vibration    13          0.938              1.071              0.482
 Vibration    14          0.943              1.062              0.475

 Optimization completed.
    -- Stationary point found.
 Normal termination of Gaussian 09 at Tue Jan 28 14:03:02 2020.
