 Gaussian 09, Revision D.01,
 Gaussian 09:  ES64L-G09RevD.01 24-Apr-2013

 -----------------------------
 # b3lyp 6-31G(2df,p) opt Freq
 -----------------------------

 -----
 titel
 -----
 Symbolic Z-matrix:
 Charge =  0 Multiplicity = 1

 SCF Done:  E(RB3LYP) =  -423.202977552     A.U. after   14 cycles
 Optimization completed.
    -- Stationary point found.
 Normal termination of Gaussian 09 at Mon Jan 27 17:25:02 2020.

 ----------------------------------------------------------------------
 #N Geom=AllCheck Guess=TCheck SCRF=Check GenChk RB3LYP/6-31G(2df,p) Fr
 eq
 ----------------------------------------------------------------------

 Structure from the checkpoint file:  "/scratch/puck/g09_7faa119a-dfeb-4618-a5d6-803b9a74ab75/Gau-147243.chk"
 -----
 titel
 -----
 Charge =  0 Multiplicity = 1

                         Standard orientation:
 ---------------------------------------------------------------------
 Center     Atomic      Atomic             Coordinates (Angstroms)
 Number     Number       Type             X           Y           Z
 ---------------------------------------------------------------------
      1          6           0        2.398184   -0.299530   -0.772481
      2          6           0        1.158613   -0.118897    0.068676
      3          6           0        0.815055   -1.061329    1.174083
      4          6           0       -0.030198   -1.055845   -0.108209
      5          6           0       -1.414063   -0.499934   -0.126150
      6          8           0       -2.358690   -1.146280   -0.523222
      7          6           0       -1.532753    0.959451    0.290072
      8          6           0       -0.317043    1.734767   -0.234170
      9          8           0        0.878014    1.233573    0.342209
     10          1           0        2.271672    0.164070   -1.756260
     11          1           0        3.256177    0.171150   -0.282287
     12          1           0        2.622710   -1.359847   -0.918811
     13          1           0        1.425895   -1.941927    1.338458
     14          1           0        0.381887   -0.627823    2.067828
     15          1           0        0.092759   -1.917939   -0.754923
     16          1           0       -2.476400    1.353297   -0.096239
     17          1           0       -1.551337    1.038566    1.384055
     18          1           0       -0.276781    1.680457   -1.333145
     19          1           0       -0.367936    2.789552    0.048506
 ---------------------------------------------------------------------

 SCF Done:  E(RB3LYP) =  -423.202977552     A.U. after    1 cycles

 The electronic state is 1-A.
 Alpha  occ. eigenvalues --  -19.15290 -19.12170 -10.26703 -10.25616 -10.24263
 Alpha  occ. eigenvalues --  -10.20203 -10.20159 -10.19227 -10.18775  -1.05222
 Alpha  occ. eigenvalues --   -1.03197  -0.86717  -0.78691  -0.72367  -0.66319
 Alpha  occ. eigenvalues --   -0.64662  -0.57647  -0.53298  -0.50738  -0.49102
 Alpha  occ. eigenvalues --   -0.46802  -0.44580  -0.43927  -0.41924  -0.40685
 Alpha  occ. eigenvalues --   -0.40134  -0.39359  -0.38330  -0.35919  -0.35044
 Alpha  occ. eigenvalues --   -0.32177  -0.28186  -0.26321  -0.23618
 Alpha virt. eigenvalues --   -0.01460   0.07939   0.09068   0.11354   0.12484
 Alpha virt. eigenvalues --    0.13173   0.13982   0.14918   0.15957   0.16094
 Alpha virt. eigenvalues --    0.17031   0.18814   0.20001   0.20539   0.21847

 Mulliken charges:
               1
     1  C   -0.446814
     2  C    0.404757
     3  C   -0.331683
     4  C   -0.185179
     5  C    0.390957
     6  O   -0.327935
     7  C   -0.318202
     8  C   -0.096831
     9  O   -0.296112
    10  H    0.125037
    11  H    0.132308
    12  H    0.119361
    13  H    0.123824
    14  H    0.128041
    15  H    0.108465
    16  H    0.124233
    17  H    0.127786
    18  H    0.101584
    19  H    0.116403
 Sum of Mulliken charges =   0.00000

 Dipole moment (field-independent basis, Debye):
    X=              1.9540    Y=              0.9366    Z=              0.3371  Tot=              2.1929
 Quadrupole moment (field-independent basis, Debye-Ang):
   XX=            -59.2956   YY=            -52.9271   ZZ=            -51.9011
   XY=             -8.3101   XZ=             -3.1264   YZ=             -1.9620

  Exact polarizability:  87.051  -2.433  76.549   2.077  -0.423  65.487
 Approx polarizability: 123.980   5.395 111.289  10.223   3.006 102.054

                      1                      2                      3
                      A                      A                      A
 Frequencies --     89.1079               133.4466               221.2529
 Red. masses --      4.0585                 3.5288                 1.0789
 Frc consts  --      0.0190                 0.0370                 0.0311
 IR Inten    --      7.1375                 0.1275                 0.1934

                      4                      5                      6
                      A                      A                      A
 Frequencies --    232.2955               321.2176               341.2528
 Red. masses --      2.1274                 2.5910                 2.5672
 Frc consts  --      0.0676                 0.1575                 0.1761
 IR Inten    --      1.5806                 1.0360                 0.7218

                      7                      8                      9
                      A                      A                      A
 Frequencies --    410.0492               434.8675               463.2416
 Red. masses --      3.4095                 4.7044                 4.5613
 Frc consts  --      0.3378                 0.5242                 0.5767
 IR Inten    --      1.8302                 7.1365                11.3344

                     10                     11                     12
                      A                      A                      A
 Frequencies --    501.5677               571.9513               658.3384
 Red. masses --      2.3466                 2.7942                 4.3134
 Frc consts  --      0.3478                 0.5385                 1.1015
 IR Inten    --      6.6910                 0.7228                 1.8517

                     13                     14                     15
                      A                      A                      A
 Frequencies --    721.6806               760.7787               844.5266
 Red. masses --      2.8437                 2.7217                 1.9987
 Frc consts  --      0.8726                 0.9281                 0.8399
 IR Inten    --      1.6887                 8.6034                19.0667

                     16                     17                     18
                      A                      A                      A
 Frequencies --    871.8342               890.6069               927.2825
 Red. masses --      1.8874                 1.9463                 1.8934
 Frc consts  --      0.8453                 0.9095                 0.9592
 IR Inten    --      5.0548                 8.8739                 1.8425

                     19                     20                     21
                      A                      A                      A
 Frequencies --    942.6137              1002.8811              1030.3766
 Red. masses --      2.0169                 1.6672                 1.9295
 Frc consts  --      1.0559                 0.9880                 1.2070
 IR Inten    --      2.5388                13.4050                 4.4328

                     22                     23                     24
                      A                      A                      A
 Frequencies --   1052.6595              1074.9393              1104.3986
 Red. masses --      1.3531                 2.0410                 2.7568
 Frc consts  --      0.8834                 1.3895                 1.9811
 IR Inten    --      1.9902                 3.7308                12.3952

                     25                     26                     27
                      A                      A                      A
 Frequencies --   1116.0624              1126.0974              1197.1716
 Red. masses --      1.6260                 2.1827                 1.5825
 Frc consts  --      1.1933                 1.6308                 1.3363
 IR Inten    --     18.2937                60.0589                21.1179

                     28                     29                     30
                      A                      A                      A
 Frequencies --   1230.6807              1253.6018              1274.5926
 Red. masses --      2.1524                 1.4719                 1.4216
 Frc consts  --      1.9207                 1.3628                 1.3607
 IR Inten    --      1.0676                26.9130                20.6350

                     31                     32                     33
                      A                      A                      A
 Frequencies --   1298.4756              1336.1973              1389.2181
 Red. masses --      3.0481                 1.4399                 1.7010
 Frc consts  --      3.0279                 1.5147                 1.9342
 IR Inten    --    129.0159                11.5031                15.1438

                     34                     35                     36
                      A                      A                      A
 Frequencies --   1404.7043              1421.3922              1451.4116
 Red. masses --      1.3363                 1.5730                 1.1095
 Frc consts  --      1.5536                 1.8724                 1.3770
 IR Inten    --     16.6823                26.1139                 5.4390

                     37                     38                     39
                      A                      A                      A
 Frequencies --   1478.1733              1481.5948              1497.7254
 Red. masses --      1.1978                 1.1004                 1.1138
 Frc consts  --      1.5420                 1.4232                 1.4721
 IR Inten    --     12.8345                 3.9248                 2.6656

                     40                     41                     42
                      A                      A                      A
 Frequencies --   1507.2642              1798.7216              2988.0116
 Red. masses --      1.1014                11.5250                 1.0700
 Frc consts  --      1.4743                21.9695                 5.6288
 IR Inten    --      2.3952               237.1938                45.9695

                     43                     44                     45
                      A                      A                      A
 Frequencies --   3036.6532              3039.9219              3093.6249
 Red. masses --      1.0350                 1.0631                 1.0942
 Frc consts  --      5.6234                 5.7884                 6.1698
 IR Inten    --     20.1707                 9.8970                30.8509

                     46                     47                     48
                      A                      A                      A
 Frequencies --   3104.9478              3109.5629              3116.6059
 Red. masses --      1.1017                 1.0988                 1.1014
 Frc consts  --      6.2577                 6.2600                 6.3031
 IR Inten    --     17.1695                13.8471                16.5411

                     49                     50                     51
                      A                      A                      A
 Frequencies --   3140.4651              3173.7533              3233.5549
 Red. masses --      1.0542                 1.0896                 1.1173
 Frc consts  --      6.1258                 6.4663                 6.8831
 IR Inten    --      7.9458                 4.0365                 4.3132

 - Thermochemistry -
 -------------------
 Temperature   298.150 Kelvin.  Pressure   1.00000 Atm.
 Atom     1 has atomic number  6 and mass  12.00000

 Molecular mass:   126.06808 amu.
 Principal axes and moments of inertia in atomic units:
                           1         2         3
     Eigenvalues --   686.735681174.730231531.01086
           X            0.99563  -0.08983  -0.02534
           Y            0.08934   0.99580  -0.01990
           Z            0.02703   0.01755   0.99948
 This molecule is an asymmetric top.
 Rotational symmetry number  1.
 Warning -- assumption of classical behavior for rotation
           may cause significant error
 Rotational temperatures (Kelvin)      0.12612     0.07373     0.05657
 Rotational constants (GHZ):           2.62800     1.53630     1.17879
 Zero-point vibrational energy     418114.9 (Joules/Mol)
                                   99.93186 (Kcal/Mol)
 Warning -- explicit consideration of  11 degrees of freedom as
           vibrations may cause significant error
 Vibrational temperatures:    128.21   192.00   318.33   334.22   462.16
          (Kelvin)            490.99   589.97   625.68   666.50   721.64
                              822.91   947.20  1038.34  1094.59  1215.08
                             1254.37  1281.38  1334.15  1356.21  1442.92
                             1482.48  1514.54  1546.60  1588.98  1605.76
                             1620.20  1722.46  1770.67  1803.65  1833.85
                             1868.21  1922.49  1998.77  2021.05  2045.06
                             2088.26  2126.76  2131.68  2154.89  2168.61
                             2587.96  4299.08  4369.06  4373.76  4451.03
                             4467.32  4473.96  4484.10  4518.42  4566.32
                             4652.36

 Zero-point correction=                           0.159252 (Hartree/Particle)
 Thermal correction to Energy=                    0.167474
 Thermal correction to Enthalpy=                  0.168418
 Thermal correction to Gibbs Free Energy=         0.126608
 Sum of electronic and zero-point Energies=           -423.043726
 Sum of electronic and thermal Energies=              -423.035504
 Sum of electronic and thermal Enthalpies=            -423.034559
 Sum of electronic and thermal Free Energies=         -423.076369

                     E (Thermal)             CV                S
                      KCal/Mol        Cal/Mol-Kelvin    Cal/Mol-Kelvin
 Total                  105.092             32.024             87.997
 Electronic               0.000              0.000              0.000
 Translational            0.889              2.981             40.409
 Rotational               0.889              2.981             28.603
 Vibrational            103.314             26.062             18.985
 Vibration     1          0.602              1.957              3.680
 Vibration     2          0.613              1.920              2.896
 Vibration     3          0.648              1.809              1.949
 Vibration     4          0.653              1.792              1.861
 Vibration     5          0.707              1.633              1.304
 Vibration     6          0.721              1.593              1.206
 Vibration     7          0.774              1.448              0.926
 Vibration     8          0.795              1.394              0.843
 Vibration     9          0.821              1.332              0.757
 Vibration    10          0.857              1.247              0.654
 Vibration    11          0.928              1.092              0.501

 Optimization completed.
    -- Stationary point found.
 Normal termination of Gaussian 09 at Mon Jan 27 18:09:43 2020.
