 Gaussian 09, Revision D.01,
 Gaussian 09:  ES64L-G09RevD.01 24-Apr-2013

 -----------------------------
 # b3lyp 6-31G(2df,p) opt Freq
 -----------------------------

 -----
 titel
 -----
 Symbolic Z-matrix:
 Charge =  0 Multiplicity = 1

 SCF Done:  E(RB3LYP) =  -423.107673004     A.U. after   14 cycles
 Optimization completed.
    -- Stationary point found.
 Normal termination of Gaussian 09 at Mon Jan 27 15:50:16 2020.

 ----------------------------------------------------------------------
 #N Geom=AllCheck Guess=TCheck SCRF=Check GenChk RB3LYP/6-31G(2df,p) Fr
 eq
 ----------------------------------------------------------------------

 Structure from the checkpoint file:  "/scratch/puck/g09_e558153e-f084-4236-96e9-e6f0c9914f40/Gau-35409.chk"
 -----
 titel
 -----
 Charge =  0 Multiplicity = 1

                         Standard orientation:
 ---------------------------------------------------------------------
 Center     Atomic      Atomic             Coordinates (Angstroms)
 Number     Number       Type             X           Y           Z
 ---------------------------------------------------------------------
      1          6           0        1.146324    2.098792    0.018232
      2          6           0        0.648900    0.682682    0.277344
      3          8           0       -0.716786    0.645351   -0.117849
      4          6           0       -1.423042   -0.501516    0.324779
      5          6           0       -2.840294   -0.349925    0.022728
      6          6           0       -4.012598   -0.252711   -0.217938
      7          6           0        1.470515   -0.337562   -0.493359
      8          6           0        1.871854   -1.630493    0.078784
      9          8           0        2.797762   -0.547948   -0.010394
     10          1           0        1.040431    2.349956   -1.041705
     11          1           0        0.564319    2.816896    0.600857
     12          1           0        2.200170    2.180610    0.296004
     13          1           0        0.736702    0.450229    1.352270
     14          1           0       -1.042428   -1.415222   -0.156899
     15          1           0       -1.288742   -0.636846    1.411671
     16          1           0       -5.048655   -0.159639   -0.431748
     17          1           0        1.388283   -0.254195   -1.578884
     18          1           0        1.558451   -1.891424    1.089260
     19          1           0        2.073704   -2.475190   -0.578294
 ---------------------------------------------------------------------

 SCF Done:  E(RB3LYP) =  -423.107673005     A.U. after    1 cycles

 The electronic state is 1-A.
 Alpha  occ. eigenvalues --  -19.15869 -19.15086 -10.25894 -10.24325 -10.24139
 Alpha  occ. eigenvalues --  -10.24104 -10.18648 -10.17997 -10.17720  -1.07933
 Alpha  occ. eigenvalues --   -1.04361  -0.79714  -0.75168  -0.68981  -0.68477
 Alpha  occ. eigenvalues --   -0.64722  -0.59064  -0.53772  -0.52383  -0.50134
 Alpha  occ. eigenvalues --   -0.48501  -0.48056  -0.45588  -0.41500  -0.40682
 Alpha  occ. eigenvalues --   -0.38804  -0.38468  -0.36271  -0.33297  -0.30781
 Alpha  occ. eigenvalues --   -0.29030  -0.27900  -0.27153  -0.25734
 Alpha virt. eigenvalues --    0.02848   0.05099   0.08501   0.09487   0.10801
 Alpha virt. eigenvalues --    0.11489   0.12044   0.12469   0.14771   0.16120
 Alpha virt. eigenvalues --    0.17677   0.17796   0.18113   0.18822   0.20982

 Mulliken charges:
               1
     1  C   -0.409182
     2  C    0.111789
     3  O   -0.255804
     4  C   -0.223033
     5  C    0.289073
     6  C   -0.413653
     7  C    0.077913
     8  C   -0.180826
     9  O   -0.235802
    10  H    0.126818
    11  H    0.125858
    12  H    0.135883
    13  H    0.070777
    14  H    0.124349
    15  H    0.117186
    16  H    0.201429
    17  H    0.101777
    18  H    0.115184
    19  H    0.120263
 Sum of Mulliken charges =   0.00000

 Dipole moment (field-independent basis, Debye):
    X=             -0.7002    Y=             -1.1870    Z=              0.3596  Tot=              1.4243
 Quadrupole moment (field-independent basis, Debye-Ang):
   XX=            -56.2311   YY=            -50.8794   ZZ=            -52.0776
   XY=              0.5312   XZ=             -0.1596   YZ=              0.1601

  Exact polarizability: 101.449  -1.326  73.536   4.081  -1.750  60.598
 Approx polarizability: 142.159  -3.254 100.047  10.860  -4.791  92.814

                      1                      2                      3
                      A                      A                      A
 Frequencies --     46.9036                75.9509                95.3084
 Red. masses --      3.3605                 4.2081                 3.0898
 Frc consts  --      0.0044                 0.0143                 0.0165
 IR Inten    --      0.5371                 2.1696                 0.9993

                      4                      5                      6
                      A                      A                      A
 Frequencies --    141.4091               198.8878               224.6236
 Red. masses --      3.5278                 3.0096                 1.0998
 Frc consts  --      0.0416                 0.0701                 0.0327
 IR Inten    --      1.9395                 8.3909                 0.0614

                      7                      8                      9
                      A                      A                      A
 Frequencies --    257.2428               321.3520               341.2264
 Red. masses --      3.9942                 2.7068                 3.3725
 Frc consts  --      0.1557                 0.1647                 0.2314
 IR Inten    --      2.4963                 7.1359                 0.0276

                     10                     11                     12
                      A                      A                      A
 Frequencies --    361.4163               420.9677               526.3389
 Red. masses --      3.5059                 6.4607                 3.1973
 Frc consts  --      0.2698                 0.6746                 0.5219
 IR Inten    --      2.8905                 1.3126                 3.1777

                     13                     14                     15
                      A                      A                      A
 Frequencies --    583.9780               610.8079               676.9163
 Red. masses --      5.2353                 1.1963                 1.2426
 Frc consts  --      1.0519                 0.2630                 0.3355
 IR Inten    --      0.4013                43.8742                34.0657

                     16                     17                     18
                      A                      A                      A
 Frequencies --    809.4427               875.2502               906.0817
 Red. masses --      1.7889                 6.6282                 2.5427
 Frc consts  --      0.6906                 2.9917                 1.2299
 IR Inten    --      8.8470                18.3942                10.1782

                     19                     20                     21
                      A                      A                      A
 Frequencies --    951.8367               967.5454               976.5849
 Red. masses --      3.0125                 1.2437                 3.5606
 Frc consts  --      1.6081                 0.6860                 2.0008
 IR Inten    --     33.7150                 2.2745                 3.7793

                     22                     23                     24
                      A                      A                      A
 Frequencies --   1034.9122              1060.2456              1104.3596
 Red. masses --      1.6355                 2.2345                 1.6581
 Frc consts  --      1.0321                 1.4800                 1.1915
 IR Inten    --      3.6728                18.1199                57.1536

                     25                     26                     27
                      A                      A                      A
 Frequencies --   1135.8242              1153.4170              1160.1217
 Red. masses --      3.8918                 1.5484                 1.9729
 Frc consts  --      2.9582                 1.2137                 1.5644
 IR Inten    --    167.8099                 9.5793                16.0530

                     28                     29                     30
                      A                      A                      A
 Frequencies --   1172.6069              1190.0719              1256.1978
 Red. masses --      1.4464                 2.0536                 1.0637
 Frc consts  --      1.1718                 1.7136                 0.9890
 IR Inten    --      0.9592                17.2245                 4.1696

                     31                     32                     33
                      A                      A                      A
 Frequencies --   1278.9804              1319.2441              1345.2215
 Red. masses --      1.5271                 1.3811                 1.2364
 Frc consts  --      1.4718                 1.4162                 1.3182
 IR Inten    --      7.2392                37.2317                35.9564

                     34                     35                     36
                      A                      A                      A
 Frequencies --   1403.0204              1422.2971              1444.7251
 Red. masses --      1.2620                 1.4345                 1.6670
 Frc consts  --      1.4637                 1.7098                 2.0500
 IR Inten    --     12.7294                23.6654                 0.3298

                     37                     38                     39
                      A                      A                      A
 Frequencies --   1487.0781              1497.1934              1502.7467
 Red. masses --      1.0502                 1.0659                 1.0767
 Frc consts  --      1.3683                 1.4078                 1.4325
 IR Inten    --      5.0947                 0.6799                 2.7900

                     40                     41                     42
                      A                      A                      A
 Frequencies --   1526.0760              2248.4234              2959.0183
 Red. masses --      1.3495                 5.8934                 1.0679
 Frc consts  --      1.8518                17.5538                 5.5088
 IR Inten    --      1.8372                 1.9846                 6.8901

                     43                     44                     45
                      A                      A                      A
 Frequencies --   2963.5674              2996.0407              3047.5751
 Red. masses --      1.0783                 1.0929                 1.0349
 Frc consts  --      5.5798                 5.7801                 5.6629
 IR Inten    --     56.7701                27.4502                12.4555

                     46                     47                     48
                      A                      A                      A
 Frequencies --   3080.4247              3096.8398              3122.0012
 Red. masses --      1.0498                 1.0884                 1.1012
 Frc consts  --      5.8692                 6.1498                 6.3239
 IR Inten    --     25.3105                15.8510                20.1344

                     49                     50                     51
                      A                      A                      A
 Frequencies --   3134.8403              3168.0581              3506.2055
 Red. masses --      1.1027                 1.1193                 1.1639
 Frc consts  --      6.3847                 6.6191                 8.4305
 IR Inten    --     14.1078                25.9353                63.2304

 - Thermochemistry -
 -------------------
 Temperature   298.150 Kelvin.  Pressure   1.00000 Atm.
 Atom     1 has atomic number  6 and mass  12.00000

 Molecular mass:   126.06808 amu.
 Principal axes and moments of inertia in atomic units:
                           1         2         3
     Eigenvalues --   553.129092129.078602570.54071
           X            0.99996   0.00863  -0.00046
           Y           -0.00863   0.99996  -0.00266
           Z            0.00043   0.00266   1.00000
 This molecule is an asymmetric top.
 Rotational symmetry number  1.
 Warning -- assumption of classical behavior for rotation
           may cause significant error
 Rotational temperatures (Kelvin)      0.15659     0.04068     0.03369
 Rotational constants (GHZ):           3.26278     0.84766     0.70209
 Zero-point vibrational energy     407851.3 (Joules/Mol)
                                   97.47879 (Kcal/Mol)
 Warning -- explicit consideration of  14 degrees of freedom as
           vibrations may cause significant error
 Vibrational temperatures:     67.48   109.28   137.13   203.46   286.15
          (Kelvin)            323.18   370.11   462.35   490.95   520.00
                              605.68   757.28   840.21   878.82   973.93
                             1164.61  1259.29  1303.65  1369.48  1392.08
                             1405.09  1489.01  1525.46  1588.93  1634.20
                             1659.51  1669.15  1687.12  1712.25  1807.39
                             1840.17  1898.10  1935.47  2018.63  2046.37
                             2078.63  2139.57  2154.12  2162.11  2195.68
                             3234.98  4257.36  4263.91  4310.63  4384.78
                             4432.04  4455.66  4491.86  4510.33  4558.12
                             5044.64

 Zero-point correction=                           0.155342 (Hartree/Particle)
 Thermal correction to Energy=                    0.165399
 Thermal correction to Enthalpy=                  0.166343
 Thermal correction to Gibbs Free Energy=         0.119425
 Sum of electronic and zero-point Energies=           -422.952331
 Sum of electronic and thermal Energies=              -422.942274
 Sum of electronic and thermal Enthalpies=            -422.941330
 Sum of electronic and thermal Free Energies=         -422.988248

                     E (Thermal)             CV                S
                      KCal/Mol        Cal/Mol-Kelvin    Cal/Mol-Kelvin
 Total                  103.790             35.701             98.749
 Electronic               0.000              0.000              0.000
 Translational            0.889              2.981             40.409
 Rotational               0.889              2.981             29.494
 Vibrational            102.012             29.739             28.846
 Vibration     1          0.595              1.979              4.944
 Vibration     2          0.599              1.965              3.993
 Vibration     3          0.603              1.953              3.548
 Vibration     4          0.615              1.912              2.785
 Vibration     5          0.637              1.841              2.143
 Vibration     6          0.649              1.804              1.922
 Vibration     7          0.667              1.751              1.680
 Vibration     8          0.707              1.633              1.303
 Vibration     9          0.721              1.593              1.206
 Vibration    10          0.736              1.552              1.116
 Vibration    11          0.783              1.425              0.889
 Vibration    12          0.881              1.192              0.595
 Vibration    13          0.941              1.066              0.478
 Vibration    14          0.970              1.009              0.431

 Optimization completed.
    -- Stationary point found.
 Normal termination of Gaussian 09 at Mon Jan 27 16:28:53 2020.
