 Gaussian 09, Revision D.01,
 Gaussian 09:  ES64L-G09RevD.01 24-Apr-2013

 -----------------------------
 # b3lyp 6-31G(2df,p) opt Freq
 -----------------------------

 -----
 titel
 -----
 Symbolic Z-matrix:
 Charge =  0 Multiplicity = 1

 SCF Done:  E(RB3LYP) =  -423.172186512     A.U. after   14 cycles
 Optimization completed.
    -- Stationary point found.
 Normal termination of Gaussian 09 at Mon Jan 27 23:09:19 2020.

 ----------------------------------------------------------------------
 #N Geom=AllCheck Guess=TCheck SCRF=Check GenChk RB3LYP/6-31G(2df,p) Fr
 eq
 ----------------------------------------------------------------------

 Structure from the checkpoint file:  "/scratch/puck/g09_cd38c267-c80e-48c3-b730-b9f8add8a705/Gau-162096.chk"
 -----
 titel
 -----
 Charge =  0 Multiplicity = 1

                         Standard orientation:
 ---------------------------------------------------------------------
 Center     Atomic      Atomic             Coordinates (Angstroms)
 Number     Number       Type             X           Y           Z
 ---------------------------------------------------------------------
      1          6           0       -2.654130   -0.851529   -0.461916
      2          6           0       -1.441558   -0.186288    0.150192
      3          8           0       -1.542873    0.562757    1.105682
      4          6           0       -0.097383   -0.490234   -0.470753
      5          6           0        0.939987   -1.007290    0.550809
      6          6           0        2.287674   -1.124213   -0.100201
      7          6           0        1.813601    0.225551    0.360820
      8          6           0        0.822128    0.810126   -0.656742
      9          8           0        0.244698    2.031396   -0.320335
     10          1           0       -2.751555   -0.545464   -1.510408
     11          1           0       -2.531147   -1.940695   -0.463552
     12          1           0       -3.554746   -0.577561    0.088572
     13          1           0       -0.216776   -1.116363   -1.360702
     14          1           0        0.684757   -1.533362    1.462506
     15          1           0        3.059921   -1.581065    0.510293
     16          1           0        2.370453   -1.347980   -1.162129
     17          1           0        2.346564    0.817965    1.094376
     18          1           0        1.214060    0.920315   -1.673858
     19          1           0       -0.258041    1.894245    0.498867
 ---------------------------------------------------------------------

 SCF Done:  E(RB3LYP) =  -423.172186512     A.U. after    1 cycles

 The electronic state is 1-A.
 Alpha  occ. eigenvalues --  -19.13924 -19.12819 -10.27893 -10.24169 -10.20345
 Alpha  occ. eigenvalues --  -10.19859 -10.19485 -10.19423 -10.19120  -1.05103
 Alpha  occ. eigenvalues --   -1.01545  -0.89575  -0.76906  -0.72138  -0.66252
 Alpha  occ. eigenvalues --   -0.60039  -0.56985  -0.54752  -0.49925  -0.48353
 Alpha  occ. eigenvalues --   -0.46909  -0.45168  -0.43568  -0.43132  -0.42569
 Alpha  occ. eigenvalues --   -0.39497  -0.38395  -0.36746  -0.35102  -0.32139
 Alpha  occ. eigenvalues --   -0.30513  -0.26988  -0.26249  -0.24450
 Alpha virt. eigenvalues --   -0.02714   0.08696   0.09960   0.10466   0.10998
 Alpha virt. eigenvalues --    0.12935   0.14238   0.14841   0.15546   0.17052
 Alpha virt. eigenvalues --    0.17222   0.18041   0.19942   0.21582   0.23003

 Mulliken charges:
               1
     1  C   -0.488033
     2  C    0.410202
     3  O   -0.344684
     4  C   -0.181958
     5  C   -0.023097
     6  C   -0.309082
     7  C   -0.076692
     8  C    0.137597
     9  O   -0.430133
    10  H    0.148482
    11  H    0.142646
    12  H    0.142920
    13  H    0.069529
    14  H    0.094947
    15  H    0.118423
    16  H    0.106864
    17  H    0.095390
    18  H    0.089126
    19  H    0.297552
 Sum of Mulliken charges =   0.00000

 Dipole moment (field-independent basis, Debye):
    X=              0.0903    Y=             -2.8073    Z=             -0.9034  Tot=              2.9505
 Quadrupole moment (field-independent basis, Debye-Ang):
   XX=            -50.2294   YY=            -56.7883   ZZ=            -52.9734
   XY=              1.2928   XZ=              3.6429   YZ=              0.7771

  Exact polarizability:  88.693  -0.061  72.204   0.335   3.258  67.353
 Approx polarizability: 113.140   0.162 112.989  -3.731   8.975 109.129

                      1                      2                      3
                      A                      A                      A
 Frequencies --     37.8318               117.3862               158.4963
 Red. masses --      3.6728                 3.1986                 1.0646
 Frc consts  --      0.0031                 0.0260                 0.0158
 IR Inten    --      4.0863                 1.7575                 0.2506

                      4                      5                      6
                      A                      A                      A
 Frequencies --    208.1806               248.3610               308.1949
 Red. masses --      4.3965                 3.9294                 4.3314
 Frc consts  --      0.1123                 0.1428                 0.2424
 IR Inten    --      1.1456                 4.3308                 2.1879

                      7                      8                      9
                      A                      A                      A
 Frequencies --    366.5598               410.4392               479.7613
 Red. masses --      2.8948                 4.4839                 3.8190
 Frc consts  --      0.2292                 0.4450                 0.5179
 IR Inten    --      0.8718                 1.4164                 1.9637

                     10                     11                     12
                      A                      A                      A
 Frequencies --    579.1403               595.7232               627.1113
 Red. masses --      1.5735                 2.4161                 1.8755
 Frc consts  --      0.3109                 0.5052                 0.4346
 IR Inten    --     51.8316                75.8086                31.9838

                     13                     14                     15
                      A                      A                      A
 Frequencies --    735.6306               772.4403               798.0568
 Red. masses --      2.6507                 2.0630                 1.8274
 Frc consts  --      0.8451                 0.7252                 0.6857
 IR Inten    --      0.4044                 0.3377                 7.7094

                     16                     17                     18
                      A                      A                      A
 Frequencies --    871.2869               904.4562               933.2273
 Red. masses --      2.2530                 2.4881                 2.7534
 Frc consts  --      1.0077                 1.1992                 1.4128
 IR Inten    --     12.6956                12.5968                 6.5977

                     19                     20                     21
                      A                      A                      A
 Frequencies --    945.1984               977.6230              1007.5994
 Red. masses --      2.1081                 2.2557                 1.8195
 Frc consts  --      1.1097                 1.2702                 1.0884
 IR Inten    --     13.2978                13.0857                11.3742

                     22                     23                     24
                      A                      A                      A
 Frequencies --   1022.7447              1052.9606              1068.8066
 Red. masses --      1.6742                 1.4165                 1.3864
 Frc consts  --      1.0318                 0.9253                 0.9331
 IR Inten    --      2.6216                 2.1829                 0.8876

                     25                     26                     27
                      A                      A                      A
 Frequencies --   1078.3841              1087.8809              1146.9265
 Red. masses --      1.6338                 1.5752                 3.0186
 Frc consts  --      1.1194                 1.0984                 2.3396
 IR Inten    --      5.4873                 2.3731                81.4140

                     28                     29                     30
                      A                      A                      A
 Frequencies --   1184.0417              1193.6836              1202.3403
 Red. masses --      1.7696                 1.6559                 1.9037
 Frc consts  --      1.4617                 1.3902                 1.6214
 IR Inten    --     54.5354                78.9756                 3.7777

                     31                     32                     33
                      A                      A                      A
 Frequencies --   1241.5709              1280.1386              1317.9503
 Red. masses --      1.2750                 1.4771                 1.4670
 Frc consts  --      1.1580                 1.4262                 1.5013
 IR Inten    --      1.6519                28.5800                 4.0431

                     34                     35                     36
                      A                      A                      A
 Frequencies --   1343.1039              1365.3053              1387.4003
 Red. masses --      2.5473                 1.4841                 1.5781
 Frc consts  --      2.7074                 1.6300                 1.7897
 IR Inten    --      4.5653                21.8934                70.8490

                     37                     38                     39
                      A                      A                      A
 Frequencies --   1459.4165              1464.4516              1472.7275
 Red. masses --      1.0608                 1.2017                 1.0500
 Frc consts  --      1.3312                 1.5184                 1.3418
 IR Inten    --     18.2515                86.0596                 8.1280

                     40                     41                     42
                      A                      A                      A
 Frequencies --   1491.0216              1771.0321              3032.1992
 Red. masses --      1.2135                 9.4709                 1.0385
 Frc consts  --      1.5895                17.5023                 5.6254
 IR Inten    --      9.6633               109.1035                 0.3500

                     43                     44                     45
                      A                      A                      A
 Frequencies --   3043.0283              3056.0078              3092.2869
 Red. masses --      1.0846                 1.0856                 1.0978
 Frc consts  --      5.9174                 5.9735                 6.1848
 IR Inten    --     28.1987                52.4454                 5.3323

                     46                     47                     48
                      A                      A                      A
 Frequencies --   3102.1906              3152.9838              3181.1141
 Red. masses --      1.0580                 1.1020                 1.0898
 Frc consts  --      5.9990                 6.4547                 6.4978
 IR Inten    --     22.6478                10.8555                12.8793

                     49                     50                     51
                      A                      A                      A
 Frequencies --   3189.8123              3202.3314              3675.6075
 Red. masses --      1.1021                 1.1058                 1.0651
 Frc consts  --      6.6068                 6.6815                 8.4785
 IR Inten    --      2.9688                17.6634                79.5033

 - Thermochemistry -
 -------------------
 Temperature   298.150 Kelvin.  Pressure   1.00000 Atm.
 Atom     1 has atomic number  6 and mass  12.00000

 Molecular mass:   126.06808 amu.
 Principal axes and moments of inertia in atomic units:
                           1         2         3
     Eigenvalues --   663.175341316.658881626.84767
           X            0.99973   0.01096   0.02045
           Y           -0.01146   0.99963   0.02456
           Z           -0.02017  -0.02479   0.99949
 This molecule is an asymmetric top.
 Rotational symmetry number  1.
 Warning -- assumption of classical behavior for rotation
           may cause significant error
 Rotational temperatures (Kelvin)      0.13060     0.06578     0.05324
 Rotational constants (GHZ):           2.72136     1.37070     1.10935
 Zero-point vibrational energy     415356.3 (Joules/Mol)
                                   99.27254 (Kcal/Mol)
 Warning -- explicit consideration of  11 degrees of freedom as
           vibrations may cause significant error
 Vibrational temperatures:     54.43   168.89   228.04   299.53   357.34
          (Kelvin)            443.42   527.40   590.53   690.27   833.25
                              857.11   902.27  1058.41  1111.37  1148.22
                             1253.59  1301.31  1342.70  1359.93  1406.58
                             1449.71  1471.50  1514.97  1537.77  1551.55
                             1565.22  1650.17  1703.57  1717.44  1729.90
                             1786.34  1841.83  1896.23  1932.42  1964.37
                             1996.16  2099.77  2107.02  2118.92  2145.24
                             2548.12  4362.65  4378.23  4396.91  4449.11
                             4463.35  4536.43  4576.91  4589.42  4607.43
                             5288.37

 Zero-point correction=                           0.158201 (Hartree/Particle)
 Thermal correction to Energy=                    0.166884
 Thermal correction to Enthalpy=                  0.167828
 Thermal correction to Gibbs Free Energy=         0.124273
 Sum of electronic and zero-point Energies=           -423.013986
 Sum of electronic and thermal Energies=              -423.005302
 Sum of electronic and thermal Enthalpies=            -423.004358
 Sum of electronic and thermal Free Energies=         -423.047913

                     E (Thermal)             CV                S
                      KCal/Mol        Cal/Mol-Kelvin    Cal/Mol-Kelvin
 Total                  104.721             32.854             91.670
 Electronic               0.000              0.000              0.000
 Translational            0.889              2.981             40.409
 Rotational               0.889              2.981             28.742
 Vibrational            102.944             26.892             22.519
 Vibration     1          0.594              1.982              5.370
 Vibration     2          0.608              1.935              3.143
 Vibration     3          0.621              1.893              2.568
 Vibration     4          0.641              1.828              2.060
 Vibration     5          0.662              1.765              1.742
 Vibration     6          0.698              1.658              1.372
 Vibration     7          0.739              1.541              1.094
 Vibration     8          0.775              1.448              0.925
 Vibration     9          0.836              1.295              0.711
 Vibration    10          0.936              1.076              0.487
 Vibration    11          0.953              1.041              0.457

 Normal termination of Gaussian 09 at Mon Jan 27 23:53:37 2020.
