 Gaussian 09, Revision D.01,
 Gaussian 09:  ES64L-G09RevD.01 24-Apr-2013

 -----------------------------
 # b3lyp 6-31G(2df,p) opt Freq
 -----------------------------

 -----
 titel
 -----
 Symbolic Z-matrix:
 Charge =  0 Multiplicity = 1

 SCF Done:  E(RB3LYP) =  -423.101973308     A.U. after   13 cycles
 Optimization completed.
    -- Stationary point found.
 Normal termination of Gaussian 09 at Tue Jan 28 02:54:52 2020.

 ----------------------------------------------------------------------
 #N Geom=AllCheck Guess=TCheck SCRF=Check GenChk RB3LYP/6-31G(2df,p) Fr
 eq
 ----------------------------------------------------------------------

 Structure from the checkpoint file:  "/scratch/puck/g09_2366e90d-0b0a-4dac-83e4-e45a50735764/Gau-92256.chk"
 -----
 titel
 -----
 Charge =  0 Multiplicity = 1

                         Standard orientation:
 ---------------------------------------------------------------------
 Center     Atomic      Atomic             Coordinates (Angstroms)
 Number     Number       Type             X           Y           Z
 ---------------------------------------------------------------------
      1          8           0       -2.409177   -0.009566   -0.477758
      2          6           0       -1.231269   -0.712254   -0.159170
      3          6           0       -0.683344   -0.582191    1.323050
      4          6           0        0.604859    0.039962    0.728907
      5          6           0        1.866825   -0.765091    0.323578
      6          6           0        1.287259   -0.838126   -1.143849
      7          6           0        0.051931   -0.014037   -0.681547
      8          6           0        0.133863    1.520548   -0.614272
      9          8           0        0.702003    1.476854    0.740417
     10          1           0       -3.134743   -0.391354    0.027232
     11          1           0       -1.291377   -1.759972   -0.489257
     12          1           0       -1.245967    0.136803    1.923302
     13          1           0       -0.575232   -1.519785    1.875036
     14          1           0        2.789719   -0.191278    0.427113
     15          1           0        1.992888   -1.729327    0.823307
     16          1           0        1.901425   -0.361170   -1.912063
     17          1           0        1.045606   -1.849547   -1.481598
     18          1           0        0.823387    1.994563   -1.323068
     19          1           0       -0.829060    2.039908   -0.631466
 ---------------------------------------------------------------------

 SCF Done:  E(RB3LYP) =  -423.101973308     A.U. after    1 cycles

 The electronic state is 1-A.
 Alpha  occ. eigenvalues --  -19.14321 -19.12660 -10.24127 -10.22756 -10.22297
 Alpha  occ. eigenvalues --  -10.19083 -10.18594 -10.18347 -10.17574  -1.03591
 Alpha  occ. eigenvalues --   -1.02152  -0.84949  -0.75418  -0.70962  -0.63271
 Alpha  occ. eigenvalues --   -0.61631  -0.60701  -0.52150  -0.49621  -0.47416
 Alpha  occ. eigenvalues --   -0.46261  -0.44520  -0.42900  -0.41525  -0.41299
 Alpha  occ. eigenvalues --   -0.38133  -0.37646  -0.35403  -0.33497  -0.31152
 Alpha  occ. eigenvalues --   -0.29097  -0.27616  -0.23882  -0.22696
 Alpha virt. eigenvalues --    0.06081   0.06691   0.08722   0.09629   0.11785
 Alpha virt. eigenvalues --    0.12635   0.14119   0.15019   0.15560   0.17504
 Alpha virt. eigenvalues --    0.18085   0.18787   0.20905   0.22160   0.22283

 Mulliken charges:
               1
     1  O   -0.426783
     2  C    0.046268
     3  C   -0.342723
     4  C    0.398866
     5  C   -0.297701
     6  C   -0.304019
     7  C    0.199949
     8  C   -0.155524
     9  O   -0.338866
    10  H    0.286307
    11  H    0.067453
    12  H    0.115491
    13  H    0.097578
    14  H    0.117407
    15  H    0.100956
    16  H    0.106991
    17  H    0.104679
    18  H    0.100286
    19  H    0.123386
 Sum of Mulliken charges =   0.00000

 Dipole moment (field-independent basis, Debye):
    X=             -0.6864    Y=             -2.1871    Z=             -0.1250  Tot=              2.2957
 Quadrupole moment (field-independent basis, Debye-Ang):
   XX=            -49.5554   YY=            -53.5255   ZZ=            -54.3003
   XY=              0.9835   XZ=             -4.3233   YZ=             -3.0044

  Exact polarizability:  79.808  -1.584  73.174  -3.367  -3.897  68.591
 Approx polarizability: 108.707  -1.215 108.034  -1.105  -3.834 103.980

                      1                      2                      3
                      A                      A                      A
 Frequencies --     91.2748               208.7957               246.4321
 Red. masses --      3.0684                 1.9522                 2.0779
 Frc consts  --      0.0151                 0.0501                 0.0743
 IR Inten    --      0.3521                 2.7819                35.9354

                      4                      5                      6
                      A                      A                      A
 Frequencies --    270.9279               305.0805               325.5111
 Red. masses --      1.3489                 2.3059                 4.0212
 Frc consts  --      0.0583                 0.1264                 0.2510
 IR Inten    --     70.3943                 0.5602                 1.9882

                      7                      8                      9
                      A                      A                      A
 Frequencies --    384.3675               446.8068               561.5660
 Red. masses --      2.4991                 3.2622                 3.8995
 Frc consts  --      0.2175                 0.3837                 0.7245
 IR Inten    --     11.2440                 7.8577                 8.9990

                     10                     11                     12
                      A                      A                      A
 Frequencies --    656.0151               688.7722               711.7551
 Red. masses --      2.9239                 3.4935                 1.1756
 Frc consts  --      0.7414                 0.9765                 0.3509
 IR Inten    --      0.4556                 2.9600                 1.2349

                     13                     14                     15
                      A                      A                      A
 Frequencies --    721.5838               802.6261               867.7563
 Red. masses --      3.7446                 2.5833                 1.8558
 Frc consts  --      1.1488                 0.9805                 0.8234
 IR Inten    --      1.9591                 3.4740                 5.9552

                     16                     17                     18
                      A                      A                      A
 Frequencies --    888.8222               893.0926               911.7585
 Red. masses --      2.9814                 2.9191                 2.1191
 Frc consts  --      1.3877                 1.3718                 1.0379
 IR Inten    --      2.7627                 8.0423                 9.8481

                     19                     20                     21
                      A                      A                      A
 Frequencies --    922.4795               952.0301              1001.4514
 Red. masses --      3.7555                 6.9606                 1.7241
 Frc consts  --      1.8829                 3.7170                 1.0188
 IR Inten    --      4.1613                68.1890                12.8108

                     22                     23                     24
                      A                      A                      A
 Frequencies --   1049.0099              1105.8351              1148.9542
 Red. masses --      1.6364                 2.2557                 1.4178
 Frc consts  --      1.0610                 1.6253                 1.1027
 IR Inten    --     25.6511                58.0879                 3.9555

                     25                     26                     27
                      A                      A                      A
 Frequencies --   1153.7192              1168.9905              1179.9241
 Red. masses --      3.3803                 1.9606                 2.0224
 Frc consts  --      2.6510                 1.5785                 1.6590
 IR Inten    --     21.9383                 7.9172                 8.8600

                     28                     29                     30
                      A                      A                      A
 Frequencies --   1205.4641              1229.9838              1243.9930
 Red. masses --      1.3653                 1.3967                 1.4804
 Frc consts  --      1.1690                 1.2449                 1.3497
 IR Inten    --      6.1182                33.3384                 1.9137

                     31                     32                     33
                      A                      A                      A
 Frequencies --   1249.0914              1256.2611              1280.4792
 Red. masses --      1.4363                 2.3088                 1.8875
 Frc consts  --      1.3203                 2.1469                 1.8234
 IR Inten    --     15.8062                 3.8815                24.7277

                     34                     35                     36
                      A                      A                      A
 Frequencies --   1287.2949              1321.5422              1342.3823
 Red. masses --      1.9842                 1.4094                 1.6140
 Frc consts  --      1.9373                 1.4503                 1.7136
 IR Inten    --      3.3941                33.0114                 8.2029

                     37                     38                     39
                      A                      A                      A
 Frequencies --   1412.1455              1447.1094              1459.2869
 Red. masses --      1.4389                 1.1348                 1.0869
 Frc consts  --      1.6906                 1.4002                 1.3637
 IR Inten    --      6.5143                 2.2050                 1.5799

                     40                     41                     42
                      A                      A                      A
 Frequencies --   1475.4026              1511.5516              2981.0331
 Red. masses --      1.1101                 1.0991                 1.0853
 Frc consts  --      1.4237                 1.4796                 5.6826
 IR Inten    --      2.4211                 1.5388                56.6468

                     43                     44                     45
                      A                      A                      A
 Frequencies --   3023.9275              3053.9526              3055.5253
 Red. masses --      1.0593                 1.0581                 1.0587
 Frc consts  --      5.7071                 5.8144                 5.8236
 IR Inten    --     71.9262                48.8161                18.2894

                     46                     47                     48
                      A                      A                      A
 Frequencies --   3062.5655              3087.5765              3104.1591
 Red. masses --      1.0608                 1.1071                 1.1081
 Frc consts  --      5.8623                 6.2180                 6.2910
 IR Inten    --     37.4853                22.3257                 7.7723

                     49                     50                     51
                      A                      A                      A
 Frequencies --   3123.1676              3128.0734              3811.4864
 Red. masses --      1.1082                 1.1074                 1.0660
 Frc consts  --      6.3686                 6.3841                 9.1245
 IR Inten    --      9.4337                32.5005                23.4680

 - Thermochemistry -
 -------------------
 Temperature   298.150 Kelvin.  Pressure   1.00000 Atm.
 Atom     1 has atomic number  8 and mass  15.99491

 Molecular mass:   126.06808 amu.
 Principal axes and moments of inertia in atomic units:
                           1         2         3
     Eigenvalues --   685.347761090.802491184.33110
           X            0.99884  -0.02854  -0.03875
           Y            0.02295   0.99020  -0.13777
           Z            0.04230   0.13672   0.98971
 This molecule is an asymmetric top.
 Rotational symmetry number  1.
 Warning -- assumption of classical behavior for rotation
           may cause significant error
 Rotational temperatures (Kelvin)      0.12638     0.07940     0.07313
 Rotational constants (GHZ):           2.63332     1.65451     1.52385
 Zero-point vibrational energy     417609.1 (Joules/Mol)
                                   99.81098 (Kcal/Mol)
 Warning -- explicit consideration of   9 degrees of freedom as
           vibrations may cause significant error
 Vibrational temperatures:    131.32   300.41   354.56   389.80   438.94
          (Kelvin)            468.34   553.02   642.85   807.97   943.86
                              990.99  1024.06  1038.20  1154.80  1248.51
                             1278.82  1284.96  1311.82  1327.24  1369.76
                             1440.86  1509.29  1591.05  1653.09  1659.94
                             1681.91  1697.65  1734.39  1769.67  1789.83
                             1797.16  1807.48  1842.32  1852.13  1901.40
                             1931.39  2031.76  2082.07  2099.59  2122.77
                             2174.78  4289.04  4350.75  4393.95  4396.21
                             4406.34  4442.33  4466.19  4493.54  4500.59
                             5483.87

 Zero-point correction=                           0.159059 (Hartree/Particle)
 Thermal correction to Energy=                    0.166888
 Thermal correction to Enthalpy=                  0.167832
 Thermal correction to Gibbs Free Energy=         0.127068
 Sum of electronic and zero-point Energies=           -422.942914
 Sum of electronic and thermal Energies=              -422.935086
 Sum of electronic and thermal Enthalpies=            -422.934141
 Sum of electronic and thermal Free Energies=         -422.974906

                     E (Thermal)             CV                S
                      KCal/Mol        Cal/Mol-Kelvin    Cal/Mol-Kelvin
 Total                  104.724             31.302             85.796
 Electronic               0.000              0.000              0.000
 Translational            0.889              2.981             40.409
 Rotational               0.889              2.981             28.273
 Vibrational            102.946             25.341             17.114
 Vibration     1          0.602              1.955              3.633
 Vibration     2          0.642              1.827              2.054
 Vibration     3          0.661              1.769              1.756
 Vibration     4          0.675              1.727              1.590
 Vibration     5          0.696              1.664              1.389
 Vibration     6          0.710              1.624              1.282
 Vibration     7          0.753              1.504              1.022
 Vibration     8          0.806              1.368              0.805
 Vibration     9          0.917              1.114              0.521

 Normal termination of Gaussian 09 at Tue Jan 28 03:45:14 2020.
