 Gaussian 09, Revision D.01,
 Gaussian 09:  ES64L-G09RevD.01 24-Apr-2013

 -----------------------------
 # b3lyp 6-31G(2df,p) opt Freq
 -----------------------------

 -----
 titel
 -----
 Symbolic Z-matrix:
 Charge =  0 Multiplicity = 1

 SCF Done:  E(RB3LYP) =  -423.123827034     A.U. after   14 cycles
 Optimization completed.
    -- Stationary point found.
 Normal termination of Gaussian 09 at Mon Jan 27 23:09:50 2020.

 ----------------------------------------------------------------------
 #N Geom=AllCheck Guess=TCheck SCRF=Check GenChk RB3LYP/6-31G(2df,p) Fr
 eq
 ----------------------------------------------------------------------

 Structure from the checkpoint file:  "/scratch/puck/g09_38d6455a-239b-4cfa-b64d-3b2e93cbcefe/Gau-162093.chk"
 -----
 titel
 -----
 Charge =  0 Multiplicity = 1

                         Standard orientation:
 ---------------------------------------------------------------------
 Center     Atomic      Atomic             Coordinates (Angstroms)
 Number     Number       Type             X           Y           Z
 ---------------------------------------------------------------------
      1          8           0       -1.088977    2.040553    0.205069
      2          6           0       -0.975387    0.683387    0.556248
      3          6           0       -1.801273   -0.315374   -0.283187
      4          8           0       -1.464896   -1.618520    0.206810
      5          6           0       -0.581942   -1.002828   -0.740134
      6          6           0        0.325510   -0.049558    0.051308
      7          6           0        1.396778    0.740120   -0.749161
      8          6           0        2.483664   -0.177986   -0.123123
      9          6           0        1.448018   -0.624629    0.945313
     10          1           0       -0.905867    2.127974   -0.737330
     11          1           0       -1.161840    0.624003    1.631571
     12          1           0       -2.771644   -0.180921   -0.749298
     13          1           0       -0.373141   -1.551424   -1.653139
     14          1           0        1.309555    0.748414   -1.840326
     15          1           0        1.469445    1.772498   -0.395358
     16          1           0        2.763729   -0.996152   -0.791925
     17          1           0        3.396684    0.305649    0.230538
     18          1           0        1.384529   -1.687188    1.190385
     19          1           0        1.547330   -0.057905    1.876267
 ---------------------------------------------------------------------

 SCF Done:  E(RB3LYP) =  -423.123827034     A.U. after    1 cycles

 The electronic state is 1-A.
 Alpha  occ. eigenvalues --  -19.15429 -19.14736 -10.23724 -10.23535 -10.23469
 Alpha  occ. eigenvalues --  -10.19624 -10.18764 -10.18544 -10.17988  -1.08057
 Alpha  occ. eigenvalues --   -1.02787  -0.84959  -0.75981  -0.66584  -0.65748
 Alpha  occ. eigenvalues --   -0.63142  -0.59031  -0.55624  -0.51116  -0.48411
 Alpha  occ. eigenvalues --   -0.46991  -0.45287  -0.43264  -0.41414  -0.40373
 Alpha  occ. eigenvalues --   -0.38671  -0.35172  -0.34591  -0.33109  -0.32648
 Alpha  occ. eigenvalues --   -0.30632  -0.29649  -0.26177  -0.24766
 Alpha virt. eigenvalues --    0.05880   0.07917   0.09591   0.10556   0.11338
 Alpha virt. eigenvalues --    0.13176   0.13467   0.15240   0.16005   0.16860
 Alpha virt. eigenvalues --    0.17719   0.18893   0.19447   0.20029   0.22037

 Mulliken charges:
               1
     1  O   -0.424020
     2  C    0.023926
     3  C   -0.033555
     4  O   -0.244438
     5  C   -0.049096
     6  C    0.308602
     7  C   -0.304903
     8  C   -0.212700
     9  C   -0.286874
    10  H    0.284370
    11  H    0.100109
    12  H    0.105797
    13  H    0.101802
    14  H    0.093759
    15  H    0.115228
    16  H    0.104461
    17  H    0.101667
    18  H    0.109389
    19  H    0.106477
 Sum of Mulliken charges =   0.00000

 Dipole moment (field-independent basis, Debye):
    X=              1.0071    Y=              0.4621    Z=             -1.8762  Tot=              2.1790
 Quadrupole moment (field-independent basis, Debye-Ang):
   XX=            -53.2456   YY=            -58.2776   ZZ=            -50.4772
   XY=             -1.1941   XZ=              2.3413   YZ=             -0.7419

  Exact polarizability:  84.405  -0.895  71.557  -0.181   0.262  67.567
 Approx polarizability: 112.370  -1.838 110.656  -3.603  -0.804 103.806

                      1                      2                      3
                      A                      A                      A
 Frequencies --    102.3530               114.0720               202.1561
 Red. masses --      2.5602                 2.6230                 3.2925
 Frc consts  --      0.0158                 0.0201                 0.0793
 IR Inten    --      0.2039                 3.1038                 0.8851

                      4                      5                      6
                      A                      A                      A
 Frequencies --    256.9642               284.2001               326.8783
 Red. masses --      3.0583                 3.0048                 1.5132
 Frc consts  --      0.1190                 0.1430                 0.0953
 IR Inten    --      3.3844                 0.1016                45.9836

                      7                      8                      9
                      A                      A                      A
 Frequencies --    354.0025               509.6245               542.1933
 Red. masses --      1.9597                 6.2165                 3.9284
 Frc consts  --      0.1447                 0.9513                 0.6804
 IR Inten    --     69.6199                 2.2967                13.1822

                     10                     11                     12
                      A                      A                      A
 Frequencies --    549.8365               693.0672               782.2116
 Red. masses --      3.7728                 1.4958                 1.5261
 Frc consts  --      0.6720                 0.4233                 0.5501
 IR Inten    --      0.5220                 2.7185                 1.0532

                     13                     14                     15
                      A                      A                      A
 Frequencies --    811.2695               844.6518               855.6658
 Red. masses --      2.3685                 2.3624                 1.9342
 Frc consts  --      0.9184                 0.9930                 0.8344
 IR Inten    --      5.9539                 3.5792                16.6309

                     16                     17                     18
                      A                      A                      A
 Frequencies --    869.8639               879.1670               938.0814
 Red. masses --      2.9074                 2.3471                 2.4715
 Frc consts  --      1.2962                 1.0688                 1.2814
 IR Inten    --     32.7269                 0.2321                 1.2182

                     19                     20                     21
                      A                      A                      A
 Frequencies --    957.4747               967.9952               990.7850
 Red. masses --      2.8248                 2.0510                 2.4084
 Frc consts  --      1.5258                 1.1323                 1.3929
 IR Inten    --      1.0532                23.4449                 7.6974

                     22                     23                     24
                      A                      A                      A
 Frequencies --   1049.4621              1060.1052              1089.0949
 Red. masses --      1.2754                 1.4423                 3.0960
 Frc consts  --      0.8276                 0.9550                 2.1636
 IR Inten    --      0.3268                 5.5967                 4.9607

                     25                     26                     27
                      A                      A                      A
 Frequencies --   1114.1675              1145.8903              1176.4682
 Red. masses --      3.1557                 2.0758                 2.3031
 Frc consts  --      2.3081                 1.6059                 1.8781
 IR Inten    --     75.0273                 8.3340                 3.5049

                     28                     29                     30
                      A                      A                      A
 Frequencies --   1203.4270              1219.7837              1233.2360
 Red. masses --      1.3337                 1.3536                 1.3679
 Frc consts  --      1.1380                 1.1866                 1.2257
 IR Inten    --      1.2459                15.2099                 1.6960

                     31                     32                     33
                      A                      A                      A
 Frequencies --   1239.7698              1251.7508              1272.4654
 Red. masses --      1.4640                 1.2195                 1.3921
 Frc consts  --      1.3258                 1.1258                 1.3280
 IR Inten    --      3.8524                 0.3160                 0.5984

                     34                     35                     36
                      A                      A                      A
 Frequencies --   1285.7414              1288.2957              1314.9790
 Red. masses --      1.6468                 1.6336                 2.3805
 Frc consts  --      1.6040                 1.5975                 2.4252
 IR Inten    --      1.7006                 0.5551                 1.1973

                     37                     38                     39
                      A                      A                      A
 Frequencies --   1374.2090              1421.8996              1475.1016
 Red. masses --      4.2039                 1.2738                 1.0871
 Frc consts  --      4.6775                 1.5173                 1.3937
 IR Inten    --     14.8201                69.4726                 1.1056

                     40                     41                     42
                      A                      A                      A
 Frequencies --   1484.7555              1505.7670              3043.5775
 Red. masses --      1.0822                 1.1289                 1.0584
 Frc consts  --      1.4056                 1.5081                 5.7765
 IR Inten    --      1.5215                 0.0416                39.2252

                     43                     44                     45
                      A                      A                      A
 Frequencies --   3054.9726              3063.4815              3085.5495
 Red. masses --      1.0596                 1.0610                 1.0867
 Frc consts  --      5.8262                 5.8669                 6.0956
 IR Inten    --     18.7516                41.5383                27.1725

                     46                     47                     48
                      A                      A                      A
 Frequencies --   3094.3542              3106.8735              3121.6578
 Red. masses --      1.1057                 1.1058                 1.1074
 Frc consts  --      6.2377                 6.2886                 6.3579
 IR Inten    --      8.4471                10.0315                46.8382

                     49                     50                     51
                      A                      A                      A
 Frequencies --   3162.8444              3180.7771              3797.3857
 Red. masses --      1.0876                 1.1008                 1.0657
 Frc consts  --      6.4105                 6.5621                 9.0543
 IR Inten    --     18.7913                22.4336                11.8670

 - Thermochemistry -
 -------------------
 Temperature   298.150 Kelvin.  Pressure   1.00000 Atm.
 Atom     1 has atomic number  8 and mass  15.99491

 Molecular mass:   126.06808 amu.
 Principal axes and moments of inertia in atomic units:
                           1         2         3
     Eigenvalues --   714.698051124.695041510.67806
           X            0.99982  -0.01774   0.00702
           Y            0.01781   0.99978  -0.01112
           Z           -0.00682   0.01124   0.99991
 This molecule is an asymmetric top.
 Rotational symmetry number  1.
 Warning -- assumption of classical behavior for rotation
           may cause significant error
 Rotational temperatures (Kelvin)      0.12119     0.07701     0.05733
 Rotational constants (GHZ):           2.52518     1.60465     1.19466
 Zero-point vibrational energy     417199.8 (Joules/Mol)
                                   99.71314 (Kcal/Mol)
 Warning -- explicit consideration of  10 degrees of freedom as
           vibrations may cause significant error
 Vibrational temperatures:    147.26   164.12   290.86   369.71   408.90
          (Kelvin)            470.30   509.33   733.24   780.09   791.09
                              997.17  1125.43  1167.23  1215.26  1231.11
                             1251.54  1264.92  1349.69  1377.59  1392.73
                             1425.52  1509.94  1525.25  1566.96  1603.04
                             1648.68  1692.67  1731.46  1754.99  1774.35
                             1783.75  1800.99  1830.79  1849.89  1853.57
                             1891.96  1977.18  2045.79  2122.34  2136.23
                             2166.46  4379.02  4395.42  4407.66  4439.41
                             4452.08  4470.09  4491.36  4550.62  4576.42
                             5463.58

 Zero-point correction=                           0.158903 (Hartree/Particle)
 Thermal correction to Energy=                    0.166988
 Thermal correction to Enthalpy=                  0.167932
 Thermal correction to Gibbs Free Energy=         0.126296
 Sum of electronic and zero-point Energies=           -422.964924
 Sum of electronic and thermal Energies=              -422.956839
 Sum of electronic and thermal Enthalpies=            -422.955895
 Sum of electronic and thermal Free Energies=         -422.997531

                     E (Thermal)             CV                S
                      KCal/Mol        Cal/Mol-Kelvin    Cal/Mol-Kelvin
 Total                  104.786             31.557             87.631
 Electronic               0.000              0.000              0.000
 Translational            0.889              2.981             40.409
 Rotational               0.889              2.981             28.587
 Vibrational            103.009             25.595             18.636
 Vibration     1          0.604              1.947              3.409
 Vibration     2          0.607              1.938              3.198
 Vibration     3          0.639              1.837              2.113
 Vibration     4          0.667              1.751              1.682
 Vibration     5          0.683              1.703              1.508
 Vibration     6          0.711              1.622              1.275
 Vibration     7          0.730              1.567              1.148
 Vibration     8          0.865              1.229              0.634
 Vibration     9          0.897              1.157              0.561
 Vibration    10          0.905              1.140              0.545

 Optimization completed.
    -- Stationary point found.
 Normal termination of Gaussian 09 at Mon Jan 27 23:55:16 2020.
