 Gaussian 09, Revision D.01,
 Gaussian 09:  ES64L-G09RevD.01 24-Apr-2013

 -----------------------------
 # b3lyp 6-31G(2df,p) opt Freq
 -----------------------------

 -----
 titel
 -----
 Symbolic Z-matrix:
 Charge =  0 Multiplicity = 1

 SCF Done:  E(RB3LYP) =  -423.174556447     A.U. after   14 cycles
 Optimization completed.
    -- Stationary point found.
 Normal termination of Gaussian 09 at Tue Jan 28 04:00:37 2020.

 ----------------------------------------------------------------------
 #N Geom=AllCheck Guess=TCheck SCRF=Check GenChk RB3LYP/6-31G(2df,p) Fr
 eq
 ----------------------------------------------------------------------

 Structure from the checkpoint file:  "/scratch/puck/g09_539f09f1-c1c2-4ff6-9321-4a4131682aba/Gau-92521.chk"
 -----
 titel
 -----
 Charge =  0 Multiplicity = 1

                         Standard orientation:
 ---------------------------------------------------------------------
 Center     Atomic      Atomic             Coordinates (Angstroms)
 Number     Number       Type             X           Y           Z
 ---------------------------------------------------------------------
      1          6           0       -1.969011    1.605730    0.077236
      2          6           0       -1.470015    0.248976    0.528002
      3          8           0       -2.149271   -0.838404   -0.144793
      4          6           0       -0.901981   -1.444287   -0.530054
      5          6           0       -0.091433   -0.266568    0.044617
      6          6           0        0.837705    0.564175   -0.889684
      7          6           0        2.021725    0.157342    0.003030
      8          8           0        3.207882    0.274736   -0.087683
      9          6           0        1.089068   -0.512779    1.025249
     10          1           0       -1.850926    1.730754   -1.003262
     11          1           0       -3.031821    1.707387    0.317898
     12          1           0       -1.428978    2.410686    0.588294
     13          1           0       -1.582439    0.151100    1.618935
     14          1           0       -0.737435   -2.406918   -0.026297
     15          1           0       -0.835736   -1.595431   -1.615056
     16          1           0        0.904333    0.249347   -1.935479
     17          1           0        0.654887    1.643929   -0.869037
     18          1           0        1.326374   -1.551914    1.273040
     19          1           0        1.016501    0.054864    1.960391
 ---------------------------------------------------------------------

 SCF Done:  E(RB3LYP) =  -423.174556447     A.U. after    1 cycles

 The electronic state is 1-A.
 Alpha  occ. eigenvalues --  -19.14180 -19.13539 -10.27613 -10.24144 -10.23566
 Alpha  occ. eigenvalues --  -10.21229 -10.19889 -10.19887 -10.18519  -1.05102
 Alpha  occ. eigenvalues --   -1.04245  -0.85373  -0.75890  -0.69876  -0.69308
 Alpha  occ. eigenvalues --   -0.64497  -0.53896  -0.53610  -0.49637  -0.49147
 Alpha  occ. eigenvalues --   -0.48066  -0.44643  -0.43158  -0.42426  -0.41825
 Alpha  occ. eigenvalues --   -0.40392  -0.39079  -0.38132  -0.36423  -0.33918
 Alpha  occ. eigenvalues --   -0.31393  -0.30224  -0.25578  -0.24526
 Alpha virt. eigenvalues --   -0.02677   0.06761   0.07742   0.10796   0.11378
 Alpha virt. eigenvalues --    0.12167   0.12866   0.13549   0.14845   0.15842
 Alpha virt. eigenvalues --    0.16616   0.17114   0.19145   0.19930   0.22630

 Mulliken charges:
               1
     1  C   -0.407744
     2  C    0.102639
     3  O   -0.293443
     4  C   -0.126396
     5  C    0.264873
     6  C   -0.421977
     7  C    0.409304
     8  O   -0.285908
     9  C   -0.426713
    10  H    0.123848
    11  H    0.133160
    12  H    0.116408
    13  H    0.072578
    14  H    0.100309
    15  H    0.104250
    16  H    0.132912
    17  H    0.135614
    18  H    0.133065
    19  H    0.133222
 Sum of Mulliken charges =   0.00000

 Dipole moment (field-independent basis, Debye):
    X=             -1.2459    Y=              0.3828    Z=              0.4163  Tot=              1.3683
 Quadrupole moment (field-independent basis, Debye-Ang):
   XX=            -70.7485   YY=            -50.6145   ZZ=            -50.4604
   XY=             -4.3036   XZ=             -0.2395   YZ=              0.5720

  Exact polarizability:  84.532  -2.295  72.822  -0.470  -0.809  69.783
 Approx polarizability: 119.778   0.100 103.444  -1.063  -0.619 105.113

                      1                      2                      3
                      A                      A                      A
 Frequencies --     35.3455                59.9139               186.8768
 Red. masses --      4.3650                 3.2793                 2.7660
 Frc consts  --      0.0032                 0.0069                 0.0569
 IR Inten    --      6.7961                 4.4938                 1.6836

                      4                      5                      6
                      A                      A                      A
 Frequencies --    222.6327               262.6463               321.1217
 Red. masses --      1.3195                 1.6374                 2.4288
 Frc consts  --      0.0385                 0.0665                 0.1476
 IR Inten    --      0.8365                 0.5454                 1.6366

                      7                      8                      9
                      A                      A                      A
 Frequencies --    382.6516               407.6960               451.4387
 Red. masses --      2.8839                 2.0137                 3.5644
 Frc consts  --      0.2488                 0.1972                 0.4280
 IR Inten    --      1.5547                 0.4751                 0.6635

                     10                     11                     12
                      A                      A                      A
 Frequencies --    465.3732               525.4622               655.8796
 Red. masses --      4.1578                 2.6963                 1.4562
 Frc consts  --      0.5305                 0.4386                 0.3691
 IR Inten    --      1.1652                 1.7687                 0.1476

                     13                     14                     15
                      A                      A                      A
 Frequencies --    715.1241               762.5941               861.9913
 Red. masses --      3.3850                 2.5496                 2.4973
 Frc consts  --      1.0199                 0.8736                 1.0933
 IR Inten    --      0.3417                 1.7520                 6.0244

                     16                     17                     18
                      A                      A                      A
 Frequencies --    884.1350               890.4985               902.3022
 Red. masses --      2.3796                 2.0480                 4.0464
 Frc consts  --      1.0960                 0.9568                 1.9410
 IR Inten    --     14.4774                 2.3424                 4.5082

                     19                     20                     21
                      A                      A                      A
 Frequencies --    989.7402              1025.8217              1043.3040
 Red. masses --      1.1934                 6.4337                 1.4483
 Frc consts  --      0.6888                 3.9889                 0.9288
 IR Inten    --      2.7098                64.2447                14.4548

                     22                     23                     24
                      A                      A                      A
 Frequencies --   1067.8630              1089.3675              1107.2792
 Red. masses --      2.9371                 2.6371                 2.5471
 Frc consts  --      1.9733                 1.8439                 1.8400
 IR Inten    --     47.4095                44.1649                17.8004

                     25                     26                     27
                      A                      A                      A
 Frequencies --   1124.4457              1156.9763              1174.0834
 Red. masses --      2.2582                 1.3319                 1.9023
 Frc consts  --      1.6823                 1.0505                 1.5450
 IR Inten    --     11.5168                 0.1130                 3.3455

                     28                     29                     30
                      A                      A                      A
 Frequencies --   1185.3962              1209.9021              1242.7742
 Red. masses --      1.6103                 1.8430                 1.8359
 Frc consts  --      1.3331                 1.5895                 1.6706
 IR Inten    --      0.1808                 8.4973                 1.8394

                     31                     32                     33
                      A                      A                      A
 Frequencies --   1281.5899              1291.4219              1366.7268
 Red. masses --      2.3030                 1.3895                 1.5652
 Frc consts  --      2.2286                 1.3654                 1.7226
 IR Inten    --     10.4342                 0.8210                 4.6662

                     34                     35                     36
                      A                      A                      A
 Frequencies --   1383.4033              1405.0885              1421.0528
 Red. masses --      1.3572                 1.3554                 1.0866
 Frc consts  --      1.5303                 1.5766                 1.2928
 IR Inten    --     10.1631                14.8309                19.1826

                     37                     38                     39
                      A                      A                      A
 Frequencies --   1439.2246              1482.4037              1492.0233
 Red. masses --      1.1136                 1.0565                 1.0486
 Frc consts  --      1.3590                 1.3679                 1.3753
 IR Inten    --      0.7567                 2.5944                 4.2625

                     40                     41                     42
                      A                      A                      A
 Frequencies --   1522.8663              1898.6570              2977.9744
 Red. masses --      1.1045                12.7558                 1.0821
 Frc consts  --      1.5092                27.0925                 5.6542
 IR Inten    --      0.2050               299.1753                59.2135

                     43                     44                     45
                      A                      A                      A
 Frequencies --   2999.0697              3033.2935              3041.6774
 Red. masses --      1.0583                 1.0356                 1.0612
 Frc consts  --      5.6083                 5.6142                 5.7844
 IR Inten    --     63.0917                 8.9073                 4.0110

                     46                     47                     48
                      A                      A                      A
 Frequencies --   3042.9922              3051.7749              3097.9634
 Red. masses --      1.1070                 1.0599                 1.1038
 Frc consts  --      6.0394                 5.8159                 6.2416
 IR Inten    --     42.5806                 6.7445                 8.1764

                     49                     50                     51
                      A                      A                      A
 Frequencies --   3102.8585              3105.0301              3115.1037
 Red. masses --      1.1039                 1.1004                 1.1023
 Frc consts  --      6.2618                 6.2507                 6.3022
 IR Inten    --      3.8611                20.3268                20.9600

 - Thermochemistry -
 -------------------
 Temperature   298.150 Kelvin.  Pressure   1.00000 Atm.
 Atom     1 has atomic number  6 and mass  12.00000

 Molecular mass:   126.06808 amu.
 Principal axes and moments of inertia in atomic units:
                           1         2         3
     Eigenvalues --   530.536921647.458811848.36307
           X            0.99952  -0.03092   0.00087
           Y            0.03093   0.99945  -0.01180
           Z           -0.00050   0.01182   0.99993
 This molecule is an asymmetric top.
 Rotational symmetry number  1.
 Warning -- assumption of classical behavior for rotation
           may cause significant error
 Rotational temperatures (Kelvin)      0.16326     0.05257     0.04686
 Rotational constants (GHZ):           3.40173     1.09547     0.97640
 Zero-point vibrational energy     412489.3 (Joules/Mol)
                                   98.58732 (Kcal/Mol)
 Warning -- explicit consideration of  11 degrees of freedom as
           vibrations may cause significant error
 Vibrational temperatures:     50.85    86.20   268.87   320.32   377.89
          (Kelvin)            462.02   550.55   586.58   649.52   669.57
                              756.02   943.66  1028.90  1097.20  1240.21
                             1272.07  1281.23  1298.21  1424.01  1475.93
                             1501.08  1536.41  1567.35  1593.13  1617.82
                             1664.63  1689.24  1705.52  1740.78  1788.07
                             1843.92  1858.07  1966.41  1990.41  2021.61
                             2044.58  2070.72  2132.85  2146.69  2191.06
                             2731.74  4284.64  4314.99  4364.23  4376.29
                             4378.18  4390.82  4457.27  4464.32  4467.44
                             4481.93

 Zero-point correction=                           0.157109 (Hartree/Particle)
 Thermal correction to Energy=                    0.165865
 Thermal correction to Enthalpy=                  0.166809
 Thermal correction to Gibbs Free Energy=         0.122675
 Sum of electronic and zero-point Energies=           -423.017448
 Sum of electronic and thermal Energies=              -423.008691
 Sum of electronic and thermal Enthalpies=            -423.007747
 Sum of electronic and thermal Free Energies=         -423.051881

                     E (Thermal)             CV                S
                      KCal/Mol        Cal/Mol-Kelvin    Cal/Mol-Kelvin
 Total                  104.082             32.643             92.888
 Electronic               0.000              0.000              0.000
 Translational            0.889              2.981             40.409
 Rotational               0.889              2.981             28.870
 Vibrational            102.304             26.681             23.610
 Vibration     1          0.594              1.982              5.504
 Vibration     2          0.597              1.973              4.460
 Vibration     3          0.632              1.858              2.259
 Vibration     4          0.648              1.807              1.938
 Vibration     5          0.670              1.741              1.644
 Vibration     6          0.707              1.633              1.304
 Vibration     7          0.752              1.507              1.029
 Vibration     8          0.772              1.454              0.935
 Vibration     9          0.810              1.358              0.791
 Vibration    10          0.823              1.327              0.751
 Vibration    11          0.880              1.194              0.597

 Optimization completed.
    -- Stationary point found.
 Normal termination of Gaussian 09 at Tue Jan 28 04:50:00 2020.
