 Gaussian 09, Revision D.01,
 Gaussian 09:  ES64L-G09RevD.01 24-Apr-2013

 -----------------------------
 # b3lyp 6-31G(2df,p) opt Freq
 -----------------------------

 -----
 titel
 -----
 Symbolic Z-matrix:
 Charge =  0 Multiplicity = 1

 SCF Done:  E(RB3LYP) =  -423.162286997     A.U. after   14 cycles
 Optimization completed.
    -- Stationary point found.
 Normal termination of Gaussian 09 at Mon Jan 27 22:03:24 2020.

 ----------------------------------------------------------------------
 #N Geom=AllCheck Guess=TCheck SCRF=Check GenChk RB3LYP/6-31G(2df,p) Fr
 eq
 ----------------------------------------------------------------------

 Structure from the checkpoint file:  "/scratch/puck/g09_97316f14-491c-4532-8df0-55c57620e97e/Gau-189747.chk"
 -----
 titel
 -----
 Charge =  0 Multiplicity = 1

                         Standard orientation:
 ---------------------------------------------------------------------
 Center     Atomic      Atomic             Coordinates (Angstroms)
 Number     Number       Type             X           Y           Z
 ---------------------------------------------------------------------
      1          8           0        0.295254    2.307842    0.071210
      2          6           0        0.776628    1.081405   -0.367057
      3          6           0        1.064590   -0.015840    0.681516
      4          6           0        2.203710   -0.910878    0.429569
      5          8           0        2.534592   -1.290170   -0.674406
      6          6           0       -0.138570   -0.074935   -0.283095
      7          6           0       -1.525188    0.058950    0.252650
      8          6           0       -2.701177   -0.242136   -0.646397
      9          6           0       -2.364808   -1.172578    0.490985
     10          1           0        1.042537    2.840890    0.361992
     11          1           0        1.483797    1.104898   -1.195216
     12          1           0        0.846819    0.248511    1.710702
     13          1           0        2.774703   -1.223847    1.331646
     14          1           0       -0.001500   -0.817749   -1.065293
     15          1           0       -1.656057    0.880502    0.947954
     16          1           0       -3.580870    0.385868   -0.562011
     17          1           0       -2.492483   -0.580457   -1.655874
     18          1           0       -3.016456   -1.187930    1.357583
     19          1           0       -1.930362   -2.135994    0.245052
 ---------------------------------------------------------------------

 SCF Done:  E(RB3LYP) =  -423.162286997     A.U. after    1 cycles

 The electronic state is 1-A.
 Alpha  occ. eigenvalues --  -19.16050 -19.12717 -10.26357 -10.25162 -10.20626
 Alpha  occ. eigenvalues --  -10.19613 -10.19571 -10.18590 -10.18559  -1.04746
 Alpha  occ. eigenvalues --   -1.03353  -0.87542  -0.84015  -0.68249  -0.63369
 Alpha  occ. eigenvalues --   -0.60006  -0.57971  -0.55842  -0.53104  -0.49675
 Alpha  occ. eigenvalues --   -0.47868  -0.46333  -0.44637  -0.41719  -0.39486
 Alpha  occ. eigenvalues --   -0.38953  -0.36636  -0.36152  -0.34627  -0.32502
 Alpha  occ. eigenvalues --   -0.30102  -0.27509  -0.25670  -0.24402
 Alpha virt. eigenvalues --   -0.01945   0.06589   0.08965   0.10309   0.12619
 Alpha virt. eigenvalues --    0.13074   0.13785   0.14450   0.15867   0.17448
 Alpha virt. eigenvalues --    0.18003   0.18872   0.20784   0.22477   0.23771

 Mulliken charges:
               1
     1  O   -0.412037
     2  C    0.090333
     3  C   -0.195140
     4  C    0.125391
     5  O   -0.285196
     6  C   -0.040262
     7  C    0.012278
     8  C   -0.269454
     9  C   -0.274107
    10  H    0.294513
    11  H    0.114378
    12  H    0.095141
    13  H    0.073765
    14  H    0.113383
    15  H    0.098349
    16  H    0.115548
    17  H    0.115209
    18  H    0.112506
    19  H    0.115400
 Sum of Mulliken charges =   0.00000

 Dipole moment (field-independent basis, Debye):
    X=             -0.5545    Y=              1.5172    Z=              1.8494  Tot=              2.4555
 Quadrupole moment (field-independent basis, Debye-Ang):
   XX=            -55.4441   YY=            -52.7323   ZZ=            -52.1129
   XY=              7.1703   XZ=              4.1268   YZ=             -0.5000

  Exact polarizability:  93.398  -4.069  75.565   2.823  -0.529  69.483
 Approx polarizability: 120.556  -9.658 112.701   1.035   3.070 111.715

                      1                      2                      3
                      A                      A                      A
 Frequencies --     65.1117                94.5436               137.4446
 Red. masses --      2.8258                 5.3369                 2.8199
 Frc consts  --      0.0071                 0.0281                 0.0314
 IR Inten    --      0.3298                 7.7086                 4.9118

                      4                      5                      6
                      A                      A                      A
 Frequencies --    168.4553               215.9281               247.0104
 Red. masses --      4.3113                 3.0472                 3.2111
 Frc consts  --      0.0721                 0.0837                 0.1154
 IR Inten    --      5.7439                 0.8750                 7.2991

                      7                      8                      9
                      A                      A                      A
 Frequencies --    319.9881               336.5457               383.5641
 Red. masses --      1.4229                 1.9229                 3.8753
 Frc consts  --      0.0858                 0.1283                 0.3359
 IR Inten    --     78.8769                25.6585                16.7944

                     10                     11                     12
                      A                      A                      A
 Frequencies --    398.8610               596.9533               705.0380
 Red. masses --      3.1406                 3.7541                 4.1350
 Frc consts  --      0.2944                 0.7882                 1.2110
 IR Inten    --      5.4792                 9.3112                14.8289

                     13                     14                     15
                      A                      A                      A
 Frequencies --    752.1761               776.4501               815.5486
 Red. masses --      2.1832                 1.7074                 1.4404
 Frc consts  --      0.7278                 0.6065                 0.5644
 IR Inten    --      4.5536                 2.8584                 6.2434

                     16                     17                     18
                      A                      A                      A
 Frequencies --    844.0221               897.2377               914.0912
 Red. masses --      1.6814                 3.5304                 2.9640
 Frc consts  --      0.7057                 1.6745                 1.4592
 IR Inten    --     24.6590                38.1387                39.6393

                     19                     20                     21
                      A                      A                      A
 Frequencies --    962.7601               991.3647              1014.2590
 Red. masses --      2.8148                 1.7887                 1.3358
 Frc consts  --      1.5372                 1.0358                 0.8096
 IR Inten    --      4.0646                16.6581                19.1749

                     22                     23                     24
                      A                      A                      A
 Frequencies --   1039.1535              1057.0603              1063.2602
 Red. masses --      1.6620                 1.7617                 1.3691
 Frc consts  --      1.0574                 1.1598                 0.9120
 IR Inten    --     48.0441                 2.7565                 6.2080

                     25                     26                     27
                      A                      A                      A
 Frequencies --   1079.6047              1117.1215              1137.7249
 Red. masses --      1.3503                 1.3360                 1.1505
 Frc consts  --      0.9273                 0.9823                 0.8774
 IR Inten    --      1.0851                 7.3562                 2.8519

                     28                     29                     30
                      A                      A                      A
 Frequencies --   1162.9910              1199.0018              1206.4744
 Red. masses --      1.7133                 1.4037                 1.8376
 Frc consts  --      1.3653                 1.1890                 1.5759
 IR Inten    --     10.3568                 0.2219                13.6336

                     31                     32                     33
                      A                      A                      A
 Frequencies --   1220.6420              1228.5089              1269.8587
 Red. masses --      2.0495                 1.7458                 1.2037
 Frc consts  --      1.7992                 1.5524                 1.1436
 IR Inten    --     56.0551                12.4548                75.2358

                     34                     35                     36
                      A                      A                      A
 Frequencies --   1296.3999              1338.6644              1426.0877
 Red. masses --      1.3929                 1.4562                 1.2628
 Frc consts  --      1.3792                 1.5375                 1.5132
 IR Inten    --     94.4721                45.4146                12.9431

                     37                     38                     39
                      A                      A                      A
 Frequencies --   1428.0763              1471.1461              1490.5155
 Red. masses --      1.5901                 1.0866                 2.0223
 Frc consts  --      1.9106                 1.3856                 2.6471
 IR Inten    --      9.2272                 1.4026                15.7561

                     40                     41                     42
                      A                      A                      A
 Frequencies --   1509.9444              1785.3821              2882.9232
 Red. masses --      1.6830                 9.1346                 1.0830
 Frc consts  --      2.2608                17.1555                 5.3033
 IR Inten    --      6.9632               172.8645               156.9641

                     43                     44                     45
                      A                      A                      A
 Frequencies --   3116.7365              3130.8891              3135.6041
 Red. masses --      1.0879                 1.0509                 1.0591
 Frc consts  --      6.2265                 6.0696                 6.1351
 IR Inten    --     12.4541                18.9234                 9.4540

                     46                     47                     48
                      A                      A                      A
 Frequencies --   3144.3791              3173.9551              3178.8066
 Red. masses --      1.0874                 1.0891                 1.0888
 Frc consts  --      6.3347                 6.4641                 6.4823
 IR Inten    --      3.2474                 0.5989                 9.0083

                     49                     50                     51
                      A                      A                      A
 Frequencies --   3209.7032              3225.5150              3811.4759
 Red. masses --      1.1180                 1.1150                 1.0662
 Frc consts  --      6.7859                 6.8346                 9.1261
 IR Inten    --      0.4404                19.0289                34.0125

 - Thermochemistry -
 -------------------
 Temperature   298.150 Kelvin.  Pressure   1.00000 Atm.
 Atom     1 has atomic number  8 and mass  15.99491

 Molecular mass:   126.06808 amu.
 Principal axes and moments of inertia in atomic units:
                           1         2         3
     Eigenvalues --   755.185241615.485122087.19273
           X            0.99944   0.03203   0.00959
           Y           -0.03195   0.99946  -0.00831
           Z           -0.00985   0.00800   0.99992
 This molecule is an asymmetric top.
 Rotational symmetry number  1.
 Warning -- assumption of classical behavior for rotation
           may cause significant error
 Rotational temperatures (Kelvin)      0.11469     0.05361     0.04150
 Rotational constants (GHZ):           2.38980     1.11715     0.86467
 Zero-point vibrational energy     413758.1 (Joules/Mol)
                                   98.89057 (Kcal/Mol)
 Warning -- explicit consideration of  11 degrees of freedom as
           vibrations may cause significant error
 Vibrational temperatures:     93.68   136.03   197.75   242.37   310.67
          (Kelvin)            355.39   460.39   484.21   551.86   573.87
                              858.88  1014.39  1082.21  1117.14  1173.39
                             1214.36  1290.92  1315.17  1385.20  1426.35
                             1459.29  1495.11  1520.87  1529.79  1553.31
                             1607.29  1636.93  1673.28  1725.09  1735.85
                             1756.23  1767.55  1827.04  1865.23  1926.04
                             2051.82  2054.68  2116.65  2144.52  2172.47
                             2568.76  4147.88  4484.28  4504.65  4511.43
                             4524.05  4566.61  4573.59  4618.04  4640.79
                             5483.86

 Zero-point correction=                           0.157592 (Hartree/Particle)
 Thermal correction to Energy=                    0.166807
 Thermal correction to Enthalpy=                  0.167752
 Thermal correction to Gibbs Free Energy=         0.123046
 Sum of electronic and zero-point Energies=           -423.004695
 Sum of electronic and thermal Energies=              -422.995480
 Sum of electronic and thermal Enthalpies=            -422.994535
 Sum of electronic and thermal Free Energies=         -423.039241

                     E (Thermal)             CV                S
                      KCal/Mol        Cal/Mol-Kelvin    Cal/Mol-Kelvin
 Total                  104.673             33.817             94.091
 Electronic               0.000              0.000              0.000
 Translational            0.889              2.981             40.409
 Rotational               0.889              2.981             29.322
 Vibrational            102.896             27.855             24.361
 Vibration     1          0.597              1.971              4.296
 Vibration     2          0.603              1.953              3.564
 Vibration     3          0.614              1.916              2.839
 Vibration     4          0.625              1.881              2.453
 Vibration     5          0.645              1.817              1.993
 Vibration     6          0.661              1.768              1.752
 Vibration     7          0.706              1.635              1.310
 Vibration     8          0.717              1.603              1.228
 Vibration     9          0.753              1.505              1.025
 Vibration    10          0.765              1.473              0.967
 Vibration    11          0.955              1.038              0.455

 Normal termination of Gaussian 09 at Mon Jan 27 22:42:41 2020.
