 Gaussian 09, Revision D.01,
 Gaussian 09:  ES64L-G09RevD.01 24-Apr-2013

 -----------------------------
 # b3lyp 6-31G(2df,p) opt Freq
 -----------------------------

 -----
 titel
 -----
 Symbolic Z-matrix:
 Charge =  0 Multiplicity = 1

 SCF Done:  E(RB3LYP) =  -423.174635071     A.U. after   14 cycles
 Optimization completed.
    -- Stationary point found.
 Normal termination of Gaussian 09 at Tue Jan 28 12:40:06 2020.

 ----------------------------------------------------------------------
 #N Geom=AllCheck Guess=TCheck SCRF=Check GenChk RB3LYP/6-31G(2df,p) Fr
 eq
 ----------------------------------------------------------------------

 Structure from the checkpoint file:  "/scratch/puck/g09_4db2c14c-e304-412f-a7ae-260c09a764a8/Gau-29033.chk"
 -----
 titel
 -----
 Charge =  0 Multiplicity = 1

                         Standard orientation:
 ---------------------------------------------------------------------
 Center     Atomic      Atomic             Coordinates (Angstroms)
 Number     Number       Type             X           Y           Z
 ---------------------------------------------------------------------
      1          8           0       -2.923983    0.202448    0.734767
      2          6           0       -2.277515   -0.484853   -0.333641
      3          6           0       -0.791490   -0.235786   -0.360579
      4          6           0        0.090284   -1.235965   -0.264351
      5          6           0        1.554019   -0.994688   -0.311502
      6          8           0        2.195193   -0.580140    0.914172
      7          6           0        2.042640    0.380187   -0.138467
      8          6           0        1.032030    1.492537    0.111895
      9          6           0       -0.348384    1.204013   -0.508551
     10          1           0       -2.535052   -0.118594    1.555660
     11          1           0       -2.478231   -1.565643   -0.297378
     12          1           0       -2.745627   -0.092623   -1.245230
     13          1           0       -0.251823   -2.263787   -0.165047
     14          1           0        2.145349   -1.704515   -0.889747
     15          1           0        2.982523    0.662897   -0.611615
     16          1           0        0.929650    1.600403    1.196791
     17          1           0        1.417849    2.443411   -0.269040
     18          1           0       -1.103274    1.853211   -0.054880
     19          1           0       -0.340550    1.454102   -1.579856
 ---------------------------------------------------------------------

 SCF Done:  E(RB3LYP) =  -423.174635071     A.U. after    1 cycles

 The electronic state is 1-A.
 Alpha  occ. eigenvalues --  -19.14280 -19.14021 -10.23454 -10.23295 -10.23295
 Alpha  occ. eigenvalues --  -10.19580 -10.18911 -10.18783 -10.18551  -1.06129
 Alpha  occ. eigenvalues --   -1.01951  -0.82544  -0.75825  -0.71118  -0.66703
 Alpha  occ. eigenvalues --   -0.62315  -0.59577  -0.52379  -0.51043  -0.48883
 Alpha  occ. eigenvalues --   -0.46317  -0.45824  -0.43659  -0.43224  -0.40103
 Alpha  occ. eigenvalues --   -0.39392  -0.36860  -0.35966  -0.33936  -0.32279
 Alpha  occ. eigenvalues --   -0.30051  -0.27729  -0.26311  -0.24525
 Alpha virt. eigenvalues --   -0.00484   0.08205   0.09717   0.09760   0.12468
 Alpha virt. eigenvalues --    0.13262   0.13788   0.15021   0.15786   0.16316
 Alpha virt. eigenvalues --    0.18469   0.18814   0.19782   0.22108   0.22434

 Mulliken charges:
               1
     1  O   -0.409400
     2  C   -0.158857
     3  C    0.288476
     4  C   -0.186110
     5  C    0.015206
     6  O   -0.258912
     7  C    0.037019
     8  C   -0.238143
     9  C   -0.308738
    10  H    0.284677
    11  H    0.093643
    12  H    0.114192
    13  H    0.086524
    14  H    0.090373
    15  H    0.090938
    16  H    0.121031
    17  H    0.099956
    18  H    0.125416
    19  H    0.112711
 Sum of Mulliken charges =   0.00000

 Dipole moment (field-independent basis, Debye):
    X=              0.0621    Y=             -0.0500    Z=             -1.3409  Tot=              1.3433
 Quadrupole moment (field-independent basis, Debye-Ang):
   XX=            -60.0926   YY=            -50.4387   ZZ=            -52.2025
   XY=              4.1766   XZ=             -3.7758   YZ=              0.2537

  Exact polarizability:  91.062  -2.439  80.979   0.296   0.068  59.557
 Approx polarizability: 123.289 -12.296 124.008   3.640  -2.378  96.951

                      1                      2                      3
                      A                      A                      A
 Frequencies --     73.2491               103.2698               150.6357
 Red. masses --      4.4137                 2.5080                 2.8909
 Frc consts  --      0.0140                 0.0158                 0.0386
 IR Inten    --      4.2291                 0.2606                 1.3797

                      4                      5                      6
                      A                      A                      A
 Frequencies --    243.4820               316.7849               389.1874
 Red. masses --      3.4662                 1.7334                 2.2159
 Frc consts  --      0.1211                 0.1025                 0.1977
 IR Inten    --      7.7051                24.9913                17.5913

                      7                      8                      9
                      A                      A                      A
 Frequencies --    395.2065               415.1207               491.1394
 Red. masses --      1.5671                 5.4367                 3.5565
 Frc consts  --      0.1442                 0.5520                 0.5055
 IR Inten    --     77.6536                 3.1814                11.8900

                     10                     11                     12
                      A                      A                      A
 Frequencies --    530.7271               582.0872               729.2641
 Red. masses --      2.5082                 3.7068                 3.3510
 Frc consts  --      0.4162                 0.7400                 1.0500
 IR Inten    --      9.2686                 5.3281                 5.1406

                     13                     14                     15
                      A                      A                      A
 Frequencies --    762.8511               805.3489               829.8946
 Red. masses --      2.4008                 3.9564                 2.7417
 Frc consts  --      0.8232                 1.5119                 1.1125
 IR Inten    --      0.9456                 9.0248                19.1969

                     16                     17                     18
                      A                      A                      A
 Frequencies --    874.1356               916.7673               947.7671
 Red. masses --      1.6497                 2.3390                 2.3006
 Frc consts  --      0.7427                 1.1582                 1.2176
 IR Inten    --     12.8930                10.8984                21.6972

                     19                     20                     21
                      A                      A                      A
 Frequencies --    963.9218              1009.2740              1040.0127
 Red. masses --      2.2886                 2.4756                 2.3112
 Frc consts  --      1.2529                 1.4858                 1.4729
 IR Inten    --     10.9392                36.1414                18.6143

                     22                     23                     24
                      A                      A                      A
 Frequencies --   1054.8247              1071.1564              1082.2578
 Red. masses --      2.5240                 2.2848                 1.4917
 Frc consts  --      1.6546                 1.5445                 1.0294
 IR Inten    --      5.7656                36.6880                 0.6062

                     25                     26                     27
                      A                      A                      A
 Frequencies --   1147.7532              1174.7924              1195.3154
 Red. masses --      1.4852                 1.8570                 1.1723
 Frc consts  --      1.1527                 1.5100                 0.9868
 IR Inten    --      4.2306                22.3569                 5.8120

                     28                     29                     30
                      A                      A                      A
 Frequencies --   1220.4858              1264.2192              1285.1855
 Red. masses --      1.2275                 1.3633                 1.2864
 Frc consts  --      1.0773                 1.2838                 1.2519
 IR Inten    --      3.8776                 7.0110                 2.7547

                     31                     32                     33
                      A                      A                      A
 Frequencies --   1331.2429              1346.8554              1364.8363
 Red. masses --      1.2628                 1.4627                 1.3002
 Frc consts  --      1.3186                 1.5633                 1.4270
 IR Inten    --      2.0446                 1.6653                 1.9083

                     34                     35                     36
                      A                      A                      A
 Frequencies --   1384.7334              1403.0742              1415.8435
 Red. masses --      1.4855                 1.6585                 1.2287
 Frc consts  --      1.6782                 1.9237                 1.4513
 IR Inten    --      4.5644                 0.3119                65.2016

                     37                     38                     39
                      A                      A                      A
 Frequencies --   1458.0582              1476.7542              1483.7183
 Red. masses --      2.4170                 1.2286                 1.1029
 Frc consts  --      3.0275                 1.5786                 1.4306
 IR Inten    --      9.0512                 7.7537                 4.4067

                     40                     41                     42
                      A                      A                      A
 Frequencies --   1495.1490              1724.1143              2994.5231
 Red. masses --      1.0880                 7.3987                 1.0634
 Frc consts  --      1.4330                12.9580                 5.6182
 IR Inten    --      1.9927                 4.0917                51.0939

                     43                     44                     45
                      A                      A                      A
 Frequencies --   3001.6502              3045.2304              3051.2668
 Red. masses --      1.0711                 1.0602                 1.0987
 Frc consts  --      5.6861                 5.7928                 6.0270
 IR Inten    --     23.8646                23.7283                28.0984

                     46                     47                     48
                      A                      A                      A
 Frequencies --   3080.2758              3089.2523              3104.8795
 Red. masses --      1.0904                 1.1004                 1.0860
 Frc consts  --      6.0954                 6.1872                 6.1682
 IR Inten    --     15.0608                 8.8023                18.2170

                     49                     50                     51
                      A                      A                      A
 Frequencies --   3116.8573              3150.6477              3804.9664
 Red. masses --      1.0918                 1.0901                 1.0662
 Frc consts  --      6.2490                 6.3755                 9.0949
 IR Inten    --     65.2728                20.3798                16.7548

 - Thermochemistry -
 -------------------
 Temperature   298.150 Kelvin.  Pressure   1.00000 Atm.
 Atom     1 has atomic number  8 and mass  15.99491

 Molecular mass:   126.06808 amu.
 Principal axes and moments of inertia in atomic units:
                           1         2         3
     Eigenvalues --   536.825511624.424461878.04744
           X            0.99981   0.01861  -0.00545
           Y           -0.01856   0.99978   0.00928
           Z            0.00562  -0.00918   0.99994
 This molecule is an asymmetric top.
 Rotational symmetry number  1.
 Warning -- assumption of classical behavior for rotation
           may cause significant error
 Rotational temperatures (Kelvin)      0.16134     0.05332     0.04612
 Rotational constants (GHZ):           3.36188     1.11100     0.96097
 Zero-point vibrational energy     421026.0 (Joules/Mol)
                                  100.62762 (Kcal/Mol)
 Warning -- explicit consideration of  11 degrees of freedom as
           vibrations may cause significant error
 Vibrational temperatures:    105.39   148.58   216.73   350.32   455.78
          (Kelvin)            559.95   568.61   597.27   706.64   763.60
                              837.49  1049.25  1097.57  1158.72  1194.03
                             1257.68  1319.02  1363.62  1386.87  1452.12
                             1496.34  1517.66  1541.15  1557.13  1651.36
                             1690.26  1719.79  1756.00  1818.93  1849.09
                             1915.36  1937.82  1963.69  1992.32  2018.71
                             2037.08  2097.82  2124.72  2134.74  2151.18
                             2480.61  4308.45  4318.70  4381.40  4390.09
                             4431.82  4444.74  4467.22  4484.46  4533.07
                             5474.49

 Zero-point correction=                           0.160360 (Hartree/Particle)
 Thermal correction to Energy=                    0.168635
 Thermal correction to Enthalpy=                  0.169580
 Thermal correction to Gibbs Free Energy=         0.127121
 Sum of electronic and zero-point Energies=           -423.014275
 Sum of electronic and thermal Energies=              -423.006000
 Sum of electronic and thermal Enthalpies=            -423.005055
 Sum of electronic and thermal Free Energies=         -423.047515

                     E (Thermal)             CV                S
                      KCal/Mol        Cal/Mol-Kelvin    Cal/Mol-Kelvin
 Total                  105.820             31.592             89.363
 Electronic               0.000              0.000              0.000
 Translational            0.889              2.981             40.409
 Rotational               0.889              2.981             28.884
 Vibrational            104.043             25.630             20.070
 Vibration     1          0.599              1.967              4.064
 Vibration     2          0.605              1.947              3.392
 Vibration     3          0.618              1.902              2.664
 Vibration     4          0.659              1.774              1.777
 Vibration     5          0.704              1.642              1.327
 Vibration     6          0.757              1.493              1.003
 Vibration     7          0.762              1.480              0.980
 Vibration     8          0.779              1.437              0.909
 Vibration     9          0.847              1.270              0.681
 Vibration    10          0.886              1.182              0.586
 Vibration    11          0.939              1.070              0.482

 Optimization completed.
    -- Stationary point found.
 Normal termination of Gaussian 09 at Tue Jan 28 13:22:35 2020.
