 Gaussian 09, Revision D.01,
 Gaussian 09:  ES64L-G09RevD.01 24-Apr-2013

 -----------------------------
 # b3lyp 6-31G(2df,p) opt Freq
 -----------------------------

 -----
 titel
 -----
 Symbolic Z-matrix:
 Charge =  0 Multiplicity = 1

 SCF Done:  E(RB3LYP) =  -423.192808588     A.U. after   14 cycles
 Optimization completed.
    -- Stationary point found.
 Normal termination of Gaussian 09 at Mon Jan 27 14:11:07 2020.

 ----------------------------------------------------------------------
 #N Geom=AllCheck Guess=TCheck SCRF=Check GenChk RB3LYP/6-31G(2df,p) Fr
 eq
 ----------------------------------------------------------------------

 Structure from the checkpoint file:  "/scratch/puck/g09_8fa7c931-7a53-4236-999e-ed8fe67d1033/Gau-54465.chk"
 -----
 titel
 -----
 Charge =  0 Multiplicity = 1

                         Standard orientation:
 ---------------------------------------------------------------------
 Center     Atomic      Atomic             Coordinates (Angstroms)
 Number     Number       Type             X           Y           Z
 ---------------------------------------------------------------------
      1          6           0       -2.448370   -1.153702   -0.135382
      2          6           0       -1.759307    0.172236    0.093317
      3          8           0       -2.334692    1.234942    0.040502
      4          6           0       -0.268570    0.135402    0.437076
      5          6           0        0.559192    1.286474   -0.189574
      6          6           0        1.888022    0.625198   -0.510050
      7          6           0        2.562178   -0.162782    0.602304
      8          6           0        1.646615   -0.849706   -0.376738
      9          8           0        0.316722   -1.096052    0.006011
     10          1           0       -1.996924   -1.658953   -0.994378
     11          1           0       -2.293343   -1.816813    0.722436
     12          1           0       -3.513203   -0.989166   -0.302581
     13          1           0       -0.212551    0.195506    1.536609
     14          1           0        0.079693    1.644620   -1.105204
     15          1           0        0.634912    2.135116    0.493925
     16          1           0        2.494046    1.035633   -1.308716
     17          1           0        3.625358   -0.351235    0.499090
     18          1           0        2.231690   -0.024630    1.626686
     19          1           0        2.015518   -1.599904   -1.065692
 ---------------------------------------------------------------------

 SCF Done:  E(RB3LYP) =  -423.192808588     A.U. after    1 cycles

 The electronic state is 1-A.
 Alpha  occ. eigenvalues --  -19.15126 -19.12941 -10.26996 -10.24192 -10.23916
 Alpha  occ. eigenvalues --  -10.19622 -10.19291 -10.18925 -10.18362  -1.05518
 Alpha  occ. eigenvalues --   -1.03786  -0.85326  -0.77577  -0.73763  -0.66265
 Alpha  occ. eigenvalues --   -0.59313  -0.58173  -0.54160  -0.50589  -0.49208
 Alpha  occ. eigenvalues --   -0.45792  -0.45144  -0.43171  -0.42688  -0.40547
 Alpha  occ. eigenvalues --   -0.40267  -0.38656  -0.36470  -0.35168  -0.34547
 Alpha  occ. eigenvalues --   -0.32747  -0.28577  -0.25944  -0.22955
 Alpha virt. eigenvalues --   -0.01342   0.08833   0.09466   0.11551   0.12307
 Alpha virt. eigenvalues --    0.13322   0.13960   0.15335   0.15711   0.16958
 Alpha virt. eigenvalues --    0.17048   0.18005   0.19229   0.21864   0.23171

 Mulliken charges:
               1
     1  C   -0.470889
     2  C    0.343246
     3  O   -0.299227
     4  C    0.020673
     5  C   -0.245423
     6  C   -0.077588
     7  C   -0.322613
     8  C    0.117401
     9  O   -0.271062
    10  H    0.153421
    11  H    0.143962
    12  H    0.134935
    13  H    0.102480
    14  H    0.120281
    15  H    0.118748
    16  H    0.094891
    17  H    0.115442
    18  H    0.117911
    19  H    0.103410
 Sum of Mulliken charges =   0.00000

 Dipole moment (field-independent basis, Debye):
    X=              1.9665    Y=             -1.0808    Z=             -0.0784  Tot=              2.2453
 Quadrupole moment (field-independent basis, Debye-Ang):
   XX=            -53.8439   YY=            -56.4006   ZZ=            -50.5428
   XY=              5.2740   XZ=             -1.2933   YZ=              0.5318

  Exact polarizability:  89.343  -1.327  73.310   0.967   0.220  61.996
 Approx polarizability: 112.291  -6.780 116.054   1.673   0.061  96.460

                      1                      2                      3
                      A                      A                      A
 Frequencies --     12.8929                83.5605               135.4510
 Red. masses --      3.7155                 3.7089                 1.1023
 Frc consts  --      0.0004                 0.0153                 0.0119
 IR Inten    --      4.9752                 0.2967                 0.2699

                      4                      5                      6
                      A                      A                      A
 Frequencies --    183.9971               288.0579               302.5367
 Red. masses --      3.3126                 4.1434                 2.1222
 Frc consts  --      0.0661                 0.2026                 0.1144
 IR Inten    --      6.6201                 1.8750                 1.5597

                      7                      8                      9
                      A                      A                      A
 Frequencies --    418.2957               422.4360               488.2438
 Red. masses --      3.0488                 2.8034                 3.9327
 Frc consts  --      0.3143                 0.2948                 0.5524
 IR Inten    --      4.3609                 0.6869                 4.8233

                     10                     11                     12
                      A                      A                      A
 Frequencies --    598.6351               640.9864               686.5033
 Red. masses --      2.8952                 2.4921                 4.2806
 Frc consts  --      0.6113                 0.6033                 1.1886
 IR Inten    --     12.8133                 5.3744                 2.7568

                     13                     14                     15
                      A                      A                      A
 Frequencies --    773.2421               793.3271               813.7829
 Red. masses --      2.3669                 2.2805                 1.7403
 Frc consts  --      0.8338                 0.8456                 0.6790
 IR Inten    --     17.2374                 7.2933                 7.5269

                     16                     17                     18
                      A                      A                      A
 Frequencies --    902.1884               928.7017               934.6662
 Red. masses --      2.2328                 2.4898                 1.9329
 Frc consts  --      1.0708                 1.2652                 0.9949
 IR Inten    --      5.3832                 0.4840                17.3632

                     19                     20                     21
                      A                      A                      A
 Frequencies --    968.8769               998.6231              1018.9398
 Red. masses --      1.8923                 1.7580                 1.6297
 Frc consts  --      1.0466                 1.0329                 0.9969
 IR Inten    --     13.9934                16.6767                 1.7233

                     22                     23                     24
                      A                      A                      A
 Frequencies --   1038.7132              1054.8777              1076.8121
 Red. masses --      1.9692                 1.8976                 1.7862
 Frc consts  --      1.2518                 1.2441                 1.2203
 IR Inten    --     14.9657                12.7501                 8.1480

                     25                     26                     27
                      A                      A                      A
 Frequencies --   1106.5486              1113.1018              1162.5752
 Red. masses --      1.6840                 1.6914                 3.0496
 Frc consts  --      1.2149                 1.2347                 2.4285
 IR Inten    --      1.4906                 3.0460               112.1280

                     28                     29                     30
                      A                      A                      A
 Frequencies --   1188.9222              1203.0584              1231.8414
 Red. masses --      1.3643                 1.7113                 2.1228
 Frc consts  --      1.1362                 1.4593                 1.8979
 IR Inten    --      0.3587                34.3426                46.9750

                     31                     32                     33
                      A                      A                      A
 Frequencies --   1289.2746              1307.5188              1346.3371
 Red. masses --      1.5505                 1.2452                 1.4771
 Frc consts  --      1.5185                 1.2542                 1.5775
 IR Inten    --     14.4137                 3.8304                 2.3777

                     34                     35                     36
                      A                      A                      A
 Frequencies --   1358.8298              1380.9230              1392.0606
 Red. masses --      1.6288                 1.4009                 1.6588
 Frc consts  --      1.7719                 1.5739                 1.8939
 IR Inten    --      0.2489                46.1246                 5.6112

                     37                     38                     39
                      A                      A                      A
 Frequencies --   1455.4150              1466.0452              1478.5561
 Red. masses --      1.0543                 1.0528                 1.2811
 Frc consts  --      1.3158                 1.3332                 1.6502
 IR Inten    --     15.8117                 8.4016                10.3122

                     40                     41                     42
                      A                      A                      A
 Frequencies --   1498.1883              1810.7123              2963.9787
 Red. masses --      1.1027                11.2930                 1.0810
 Frc consts  --      1.4583                21.8152                 5.5955
 IR Inten    --      1.6650               140.6640                28.5050

                     43                     44                     45
                      A                      A                      A
 Frequencies --   3047.0186              3064.7336              3109.0987
 Red. masses --      1.0356                 1.0604                 1.1046
 Frc consts  --      5.6651                 5.8681                 6.2913
 IR Inten    --      1.2699                17.9502                13.9224

                     46                     47                     48
                      A                      A                      A
 Frequencies --   3110.8411              3130.4240              3158.5722
 Red. masses --      1.0964                 1.0544                 1.1046
 Frc consts  --      6.2511                 6.0877                 6.4932
 IR Inten    --      4.6700                 9.5844                11.9859

                     49                     50                     51
                      A                      A                      A
 Frequencies --   3179.6851              3188.9834              3217.4211
 Red. masses --      1.0893                 1.0961                 1.1149
 Frc consts  --      6.4886                 6.5674                 6.8000
 IR Inten    --     10.5221                14.6325                13.2330

 - Thermochemistry -
 -------------------
 Temperature   298.150 Kelvin.  Pressure   1.00000 Atm.
 Atom     1 has atomic number  6 and mass  12.00000

 Molecular mass:   126.06808 amu.
 Principal axes and moments of inertia in atomic units:
                           1         2         3
     Eigenvalues --   482.289091539.895871854.29333
           X            0.99939   0.03477   0.00352
           Y           -0.03479   0.99939   0.00386
           Z           -0.00338  -0.00398   0.99999
 This molecule is an asymmetric top.
 Rotational symmetry number  1.
 Warning -- assumption of classical behavior for rotation
           may cause significant error
 Rotational temperatures (Kelvin)      0.17959     0.05625     0.04671
 Rotational constants (GHZ):           3.74203     1.17199     0.97328
 Zero-point vibrational energy     415851.9 (Joules/Mol)
                                   99.39099 (Kcal/Mol)
 Warning -- explicit consideration of  10 degrees of freedom as
           vibrations may cause significant error
 Vibrational temperatures:     18.55   120.22   194.88   264.73   414.45
          (Kelvin)            435.28   601.83   607.79   702.47   861.30
                              922.24   987.72  1112.52  1141.42  1170.85
                             1298.05  1336.19  1344.77  1394.00  1436.79
                             1466.03  1494.47  1517.73  1549.29  1592.07
                             1601.50  1672.68  1710.59  1730.93  1772.34
                             1854.98  1881.23  1937.08  1955.05  1986.84
                             2002.86  2094.01  2109.31  2127.31  2155.56
                             2605.21  4264.50  4383.97  4409.46  4473.29
                             4475.80  4503.98  4544.48  4574.85  4588.23
                             4629.15

 Zero-point correction=                           0.158390 (Hartree/Particle)
 Thermal correction to Energy=                    0.167030
 Thermal correction to Enthalpy=                  0.167974
 Thermal correction to Gibbs Free Energy=         0.123256
 Sum of electronic and zero-point Energies=           -423.034419
 Sum of electronic and thermal Energies=              -423.025778
 Sum of electronic and thermal Enthalpies=            -423.024834
 Sum of electronic and thermal Free Energies=         -423.069553

                     E (Thermal)             CV                S
                      KCal/Mol        Cal/Mol-Kelvin    Cal/Mol-Kelvin
 Total                  104.813             32.019             94.118
 Electronic               0.000              0.000              0.000
 Translational            0.889              2.981             40.409
 Rotational               0.889              2.981             28.712
 Vibrational            103.036             26.057             24.998
 Vibration     1          0.593              1.987              7.506
 Vibration     2          0.600              1.960              3.805
 Vibration     3          0.613              1.918              2.867
 Vibration     4          0.631              1.862              2.287
 Vibration     5          0.685              1.696              1.485
 Vibration     6          0.694              1.669              1.403
 Vibration     7          0.781              1.430              0.898
 Vibration     8          0.785              1.421              0.884
 Vibration     9          0.844              1.276              0.688
 Vibration    10          0.957              1.035              0.452

 Normal termination of Gaussian 09 at Mon Jan 27 14:50:04 2020.
