 Gaussian 09, Revision D.01,
 Gaussian 09:  ES64L-G09RevD.01 24-Apr-2013

 -----------------------------
 # b3lyp 6-31G(2df,p) opt Freq
 -----------------------------

 -----
 titel
 -----
 Symbolic Z-matrix:
 Charge =  0 Multiplicity = 1

 SCF Done:  E(RB3LYP) =  -423.159178349     A.U. after   14 cycles
 Optimization completed.
    -- Stationary point found.
 Normal termination of Gaussian 09 at Mon Jan 27 23:50:46 2020.

 ----------------------------------------------------------------------
 #N Geom=AllCheck Guess=TCheck SCRF=Check GenChk RB3LYP/6-31G(2df,p) Fr
 eq
 ----------------------------------------------------------------------

 Structure from the checkpoint file:  "/scratch/puck/g09_a5e561be-e9b1-4a2e-afbd-31d082eb49dc/Gau-68155.chk"
 -----
 titel
 -----
 Charge =  0 Multiplicity = 1

                         Standard orientation:
 ---------------------------------------------------------------------
 Center     Atomic      Atomic             Coordinates (Angstroms)
 Number     Number       Type             X           Y           Z
 ---------------------------------------------------------------------
      1          6           0       -1.380547    1.659324    0.582880
      2          6           0       -0.430681    0.587671    0.106832
      3          6           0       -0.929420   -0.678897   -0.540964
      4          8           0       -2.321415   -0.826941   -0.575540
      5          6           0       -0.247952   -0.762207    0.806843
      6          6           0        1.245574   -1.082694    0.915437
      7          6           0        1.957368    0.031001    0.159726
      8          8           0        1.621324    0.106915   -1.232618
      9          6           0        0.963140    1.004569   -0.323326
     10          1           0       -0.975774    2.197166    1.447731
     11          1           0       -1.574187    2.393781   -0.207620
     12          1           0       -2.338167    1.219124    0.866204
     13          1           0       -0.397833   -1.035486   -1.419497
     14          1           0       -2.518685   -1.767043   -0.510211
     15          1           0       -0.895732   -1.015905    1.640164
     16          1           0        1.557871   -1.060814    1.966080
     17          1           0        1.510197   -2.069204    0.517808
     18          1           0        2.987459    0.287376    0.397551
     19          1           0        1.180687    2.058611   -0.477513
 ---------------------------------------------------------------------

 SCF Done:  E(RB3LYP) =  -423.159178349     A.U. after    1 cycles

 The electronic state is 1-A.
 Alpha  occ. eigenvalues --  -19.14734 -19.14137 -10.23326 -10.23266 -10.22753
 Alpha  occ. eigenvalues --  -10.19339 -10.19019 -10.18490 -10.17458  -1.06910
 Alpha  occ. eigenvalues --   -1.02562  -0.86135  -0.75001  -0.70939  -0.66282
 Alpha  occ. eigenvalues --   -0.60603  -0.57590  -0.54703  -0.51676  -0.49893
 Alpha  occ. eigenvalues --   -0.45843  -0.43518  -0.42215  -0.41103  -0.40154
 Alpha  occ. eigenvalues --   -0.39045  -0.38130  -0.35900  -0.35054  -0.31583
 Alpha  occ. eigenvalues --   -0.30613  -0.26175  -0.25821  -0.24387
 Alpha virt. eigenvalues --    0.07850   0.08616   0.09858   0.11867   0.12977
 Alpha virt. eigenvalues --    0.13917   0.14586   0.14925   0.15886   0.17234
 Alpha virt. eigenvalues --    0.18186   0.18793   0.19665   0.21479   0.22022

 Mulliken charges:
               1
     1  C   -0.495106
     2  C    0.293187
     3  C    0.058973
     4  O   -0.438712
     5  C   -0.155892
     6  C   -0.272470
     7  C    0.042944
     8  O   -0.255751
     9  C   -0.032436
    10  H    0.111579
    11  H    0.119885
    12  H    0.138458
    13  H    0.107053
    14  H    0.286460
    15  H    0.085921
    16  H    0.106554
    17  H    0.112375
    18  H    0.094684
    19  H    0.092294
 Sum of Mulliken charges =   0.00000

 Dipole moment (field-independent basis, Debye):
    X=              0.2696    Y=             -0.7103    Z=              1.8808  Tot=              2.0285
 Quadrupole moment (field-independent basis, Debye-Ang):
   XX=            -54.0831   YY=            -47.4773   ZZ=            -55.2875
   XY=              3.2893   XZ=              2.1658   YZ=              0.0029

  Exact polarizability:  81.868  -1.412  76.405   2.554  -2.089  64.545
 Approx polarizability: 110.914  -2.301 111.601   3.606  -3.050 103.774

                      1                      2                      3
                      A                      A                      A
 Frequencies --    178.5635               188.9803               216.3650
 Red. masses --      1.5435                 1.4193                 4.0507
 Frc consts  --      0.0290                 0.0299                 0.1117
 IR Inten    --      0.8817                 5.0631                 1.1336

                      4                      5                      6
                      A                      A                      A
 Frequencies --    244.2438               274.6297               308.0104
 Red. masses --      2.8169                 1.3394                 2.6241
 Frc consts  --      0.0990                 0.0595                 0.1467
 IR Inten    --     26.2906                63.5212                 3.8953

                      7                      8                      9
                      A                      A                      A
 Frequencies --    339.8834               366.5703               472.3778
 Red. masses --      2.7493                 2.6115                 4.6961
 Frc consts  --      0.1871                 0.2068                 0.6174
 IR Inten    --     15.5695                 3.3298                 5.0067

                     10                     11                     12
                      A                      A                      A
 Frequencies --    523.7181               633.6474               708.3569
 Red. masses --      4.9817                 3.6768                 4.7420
 Frc consts  --      0.8050                 0.8698                 1.4019
 IR Inten    --     14.2903                 6.5545                 0.5112

                     13                     14                     15
                      A                      A                      A
 Frequencies --    750.5735               811.8839               853.3960
 Red. masses --      4.3662                 2.8848                 2.7661
 Frc consts  --      1.4492                 1.1203                 1.1869
 IR Inten    --      1.8557                 3.5551                12.4490

                     16                     17                     18
                      A                      A                      A
 Frequencies --    861.2566               871.3475               937.0685
 Red. masses --      2.6854                 2.9961                 2.2718
 Frc consts  --      1.1736                 1.3403                 1.1753
 IR Inten    --     20.7893                 7.3177                 6.8005

                     19                     20                     21
                      A                      A                      A
 Frequencies --    952.9621              1000.0400              1002.3188
 Red. masses --      1.4289                 2.2244                 1.5035
 Frc consts  --      0.7646                 1.3107                 0.8900
 IR Inten    --     11.2729                 9.3487                 8.0357

                     22                     23                     24
                      A                      A                      A
 Frequencies --   1048.8127              1076.3092              1093.7943
 Red. masses --      1.6965                 2.0387                 1.2220
 Frc consts  --      1.0995                 1.3915                 0.8614
 IR Inten    --      4.8685                12.2138                 2.6224

                     25                     26                     27
                      A                      A                      A
 Frequencies --   1117.6973              1127.8737              1145.1204
 Red. masses --      1.4238                 2.0487                 3.2530
 Frc consts  --      1.0480                 1.5355                 2.5133
 IR Inten    --      0.3001                12.0007                72.7306

                     28                     29                     30
                      A                      A                      A
 Frequencies --   1205.2755              1225.9763              1260.7363
 Red. masses --      1.3209                 1.7386                 1.5062
 Frc consts  --      1.1305                 1.5396                 1.4105
 IR Inten    --      1.7356                 2.6099                 5.6925

                     31                     32                     33
                      A                      A                      A
 Frequencies --   1263.5359              1281.8215              1293.8843
 Red. masses --      1.7112                 1.4157                 1.5643
 Frc consts  --      1.6097                 1.3705                 1.5429
 IR Inten    --      2.4485                52.5823                 0.1840

                     34                     35                     36
                      A                      A                      A
 Frequencies --   1328.2575              1365.7018              1413.0923
 Red. masses --      1.5706                 1.5796                 1.4532
 Frc consts  --      1.6326                 1.7359                 1.7097
 IR Inten    --     15.2358                 3.6631                 5.8271

                     37                     38                     39
                      A                      A                      A
 Frequencies --   1419.0093              1468.6041              1476.0735
 Red. masses --      2.4624                 2.2174                 1.1131
 Frc consts  --      2.9213                 2.8177                 1.4289
 IR Inten    --      6.2327                 6.8242                 2.3434

                     40                     41                     42
                      A                      A                      A
 Frequencies --   1493.5978              1502.0984              3028.0508
 Red. masses --      1.0530                 1.1032                 1.0389
 Frc consts  --      1.3840                 1.4665                 5.6126
 IR Inten    --      3.1084                 8.8603                38.3566

                     43                     44                     45
                      A                      A                      A
 Frequencies --   3036.1336              3073.6423              3082.0448
 Red. masses --      1.0591                 1.1036                 1.1011
 Frc consts  --      5.7522                 6.1427                 6.1623
 IR Inten    --     31.1842                16.4268                25.2646

                     46                     47                     48
                      A                      A                      A
 Frequencies --   3134.5713              3134.9548              3141.9532
 Red. masses --      1.0886                 1.0955                 1.0886
 Frc consts  --      6.3019                 6.3437                 6.3317
 IR Inten    --     27.4046                 4.0697                 9.4460

                     49                     50                     51
                      A                      A                      A
 Frequencies --   3148.8784              3160.4419              3808.2438
 Red. masses --      1.0944                 1.0894                 1.0662
 Frc consts  --      6.3935                 6.4108                 9.1107
 IR Inten    --     40.1129                11.1096                23.5962

 - Thermochemistry -
 -------------------
 Temperature   298.150 Kelvin.  Pressure   1.00000 Atm.
 Atom     1 has atomic number  6 and mass  12.00000

 Molecular mass:   126.06808 amu.
 Principal axes and moments of inertia in atomic units:
                           1         2         3
     Eigenvalues --   654.010591217.131671377.83808
           X            0.99957  -0.02831   0.00805
           Y            0.02823   0.99956   0.00934
           Z           -0.00831  -0.00911   0.99992
 This molecule is an asymmetric top.
 Rotational symmetry number  1.
 Warning -- assumption of classical behavior for rotation
           may cause significant error
 Rotational temperatures (Kelvin)      0.13243     0.07116     0.06286
 Rotational constants (GHZ):           2.75950     1.48278     1.30984
 Zero-point vibrational energy     417810.0 (Joules/Mol)
                                   99.85899 (Kcal/Mol)
 Warning -- explicit consideration of  10 degrees of freedom as
           vibrations may cause significant error
 Vibrational temperatures:    256.91   271.90   311.30   351.41   395.13
          (Kelvin)            443.16   489.02   527.41   679.65   753.51
                              911.68  1019.17  1079.91  1168.12  1227.84
                             1239.15  1253.67  1348.23  1371.10  1438.83
                             1442.11  1509.01  1548.57  1573.72  1608.12
                             1622.76  1647.57  1734.12  1763.90  1813.92
                             1817.94  1844.25  1861.61  1911.06  1964.94
                             2033.12  2041.64  2112.99  2123.74  2148.95
                             2161.18  4356.68  4368.31  4422.28  4434.37
                             4509.94  4510.50  4520.56  4530.53  4547.17
                             5479.21

 Zero-point correction=                           0.159135 (Hartree/Particle)
 Thermal correction to Energy=                    0.167259
 Thermal correction to Enthalpy=                  0.168204
 Thermal correction to Gibbs Free Energy=         0.127073
 Sum of electronic and zero-point Energies=           -423.000043
 Sum of electronic and thermal Energies=              -422.991919
 Sum of electronic and thermal Enthalpies=            -422.990975
 Sum of electronic and thermal Free Energies=         -423.032105

                     E (Thermal)             CV                S
                      KCal/Mol        Cal/Mol-Kelvin    Cal/Mol-Kelvin
 Total                  104.957             32.220             86.566
 Electronic               0.000              0.000              0.000
 Translational            0.889              2.981             40.409
 Rotational               0.889              2.981             28.485
 Vibrational            103.179             26.258             17.672
 Vibration     1          0.629              1.869              2.343
 Vibration     2          0.633              1.855              2.238
 Vibration     3          0.645              1.816              1.989
 Vibration     4          0.660              1.772              1.772
 Vibration     5          0.677              1.720              1.567
 Vibration     6          0.698              1.658              1.373
 Vibration     7          0.720              1.596              1.213
 Vibration     8          0.739              1.541              1.094
 Vibration     9          0.829              1.311              0.731
 Vibration    10          0.879              1.197              0.601

 Optimization completed.
    -- Stationary point found.
 Normal termination of Gaussian 09 at Tue Jan 28 00:35:15 2020.
