 Gaussian 09, Revision D.01,
 Gaussian 09:  ES64L-G09RevD.01 24-Apr-2013

 -----------------------------
 # b3lyp 6-31G(2df,p) opt Freq
 -----------------------------

 -----
 titel
 -----
 Symbolic Z-matrix:
 Charge =  0 Multiplicity = 1

 SCF Done:  E(RB3LYP) =  -423.101231944     A.U. after   13 cycles
 Optimization completed.
    -- Stationary point found.
 Normal termination of Gaussian 09 at Mon Jan 27 11:13:58 2020.

 ----------------------------------------------------------------------
 #N Geom=AllCheck Guess=TCheck SCRF=Check GenChk RB3LYP/6-31G(2df,p) Fr
 eq
 ----------------------------------------------------------------------

 Structure from the checkpoint file:  "/scratch/puck/g09_347f3951-d708-423b-af71-213beba4f6b6/Gau-15785.chk"
 -----
 titel
 -----
 Charge =  0 Multiplicity = 1

                         Standard orientation:
 ---------------------------------------------------------------------
 Center     Atomic      Atomic             Coordinates (Angstroms)
 Number     Number       Type             X           Y           Z
 ---------------------------------------------------------------------
      1          6           0        2.988979   -0.413704   -0.371605
      2          6           0        2.485691    0.757703    0.450611
      3          6           0        1.632413   -0.464876    0.247341
      4          8           0        0.547926   -0.411177   -0.646123
      5          6           0       -0.648473   -0.060948   -0.060460
      6          6           0       -1.034107    1.348735    0.338705
      7          6           0       -1.860579    0.588184   -0.666062
      8          8           0       -2.760348   -0.305442   -0.003021
      9          6           0       -1.641490   -1.056498    0.544593
     10          1           0        3.020771   -0.282363   -1.447184
     11          1           0        3.768332   -1.048713    0.033585
     12          1           0        2.913415    0.936013    1.431087
     13          1           0        2.204427    1.651618   -0.093132
     14          1           0        1.473354   -1.128322    1.095806
     15          1           0       -1.443573    1.576491    1.319476
     16          1           0       -0.395075    2.111840   -0.093832
     17          1           0       -2.107244    0.920996   -1.666888
     18          1           0       -1.694392   -1.149368    1.635446
     19          1           0       -1.575251   -2.046815    0.080053
 ---------------------------------------------------------------------

 SCF Done:  E(RB3LYP) =  -423.101231944     A.U. after    1 cycles

 The electronic state is 1-A.
 Alpha  occ. eigenvalues --  -19.15966 -19.13801 -10.24374 -10.24098 -10.23706
 Alpha  occ. eigenvalues --  -10.23267 -10.18904 -10.18903 -10.18870  -1.06491
 Alpha  occ. eigenvalues --   -1.04024  -0.85697  -0.82129  -0.69970  -0.62786
 Alpha  occ. eigenvalues --   -0.60912  -0.59212  -0.55038  -0.53748  -0.49955
 Alpha  occ. eigenvalues --   -0.47726  -0.46429  -0.45772  -0.40939  -0.40290
 Alpha  occ. eigenvalues --   -0.38876  -0.37336  -0.36750  -0.35479  -0.31382
 Alpha  occ. eigenvalues --   -0.29165  -0.27411  -0.25095  -0.23300
 Alpha virt. eigenvalues --    0.06984   0.09384   0.09866   0.11540   0.12253
 Alpha virt. eigenvalues --    0.13369   0.13696   0.14767   0.15302   0.16352
 Alpha virt. eigenvalues --    0.17461   0.17843   0.20515   0.20770   0.22760

 Mulliken charges:
               1
     1  C   -0.293784
     2  C   -0.280872
     3  C    0.125410
     4  O   -0.284967
     5  C    0.356442
     6  C   -0.346489
     7  C    0.008825
     8  O   -0.284640
     9  C   -0.137708
    10  H    0.128534
    11  H    0.116869
    12  H    0.115300
    13  H    0.120089
    14  H    0.091350
    15  H    0.113872
    16  H    0.118878
    17  H    0.114855
    18  H    0.103495
    19  H    0.114541
 Sum of Mulliken charges =   0.00000

 Dipole moment (field-independent basis, Debye):
    X=              1.8859    Y=              0.3426    Z=              0.8101  Tot=              2.0809
 Quadrupole moment (field-independent basis, Debye-Ang):
   XX=            -58.5350   YY=            -51.0060   ZZ=            -51.1471
   XY=             -1.0280   XZ=              1.4775   YZ=             -2.3483

  Exact polarizability:  86.598  -0.500  73.658   0.948  -1.262  66.594
 Approx polarizability: 112.001  -0.837 108.459   2.210  -0.971 101.239

                      1                      2                      3
                      A                      A                      A
 Frequencies --     35.8810                85.8602               138.6817
 Red. masses --      2.7566                 4.0918                 3.4241
 Frc consts  --      0.0021                 0.0178                 0.0388
 IR Inten    --      0.1307                 0.1456                 0.2468

                      4                      5                      6
                      A                      A                      A
 Frequencies --    270.2667               311.4368               370.8362
 Red. masses --      3.3652                 2.6656                 3.1217
 Frc consts  --      0.1448                 0.1523                 0.2529
 IR Inten    --      3.3266                 1.6461                 3.7334

                      7                      8                      9
                      A                      A                      A
 Frequencies --    384.9567               432.9841               489.0000
 Red. masses --      2.6474                 2.3337                 2.7814
 Frc consts  --      0.2312                 0.2578                 0.3919
 IR Inten    --      5.9593                 1.7499                 6.5854

                     10                     11                     12
                      A                      A                      A
 Frequencies --    683.5031               740.9268               756.3532
 Red. masses --      2.7468                 2.7525                 1.2592
 Frc consts  --      0.7561                 0.8903                 0.4244
 IR Inten    --      5.7977                 5.4832                 6.6848

                     13                     14                     15
                      A                      A                      A
 Frequencies --    817.5838               822.6677               886.5587
 Red. masses --      1.7599                 1.5623                 2.9649
 Frc consts  --      0.6931                 0.6230                 1.3730
 IR Inten    --      9.9393                13.6877                 0.2684

                     16                     17                     18
                      A                      A                      A
 Frequencies --    906.4035               928.4068               977.2465
 Red. masses --      2.2058                 2.1849                 2.4149
 Frc consts  --      1.0677                 1.1096                 1.3588
 IR Inten    --      7.6669                 6.6898                15.3189

                     19                     20                     21
                      A                      A                      A
 Frequencies --    985.4850               994.6361               999.3198
 Red. masses --      2.6305                 2.0411                 2.1048
 Frc consts  --      1.5052                 1.1897                 1.2384
 IR Inten    --     17.5353                38.5707                 0.6883

                     22                     23                     24
                      A                      A                      A
 Frequencies --   1018.2056              1055.8165              1071.6395
 Red. masses --      1.8209                 1.4607                 1.8595
 Frc consts  --      1.1123                 0.9594                 1.2582
 IR Inten    --     11.2876                20.3142                15.8632

                     25                     26                     27
                      A                      A                      A
 Frequencies --   1073.2514              1075.3525              1108.4552
 Red. masses --      1.4425                 1.7401                 2.8556
 Frc consts  --      0.9790                 1.1856                 2.0672
 IR Inten    --      0.6789                15.9170                 7.4906

                     28                     29                     30
                      A                      A                      A
 Frequencies --   1126.4795              1154.6856              1189.5539
 Red. masses --      1.2519                 1.2190                 2.1046
 Frc consts  --      0.9359                 0.9576                 1.7546
 IR Inten    --      2.8077                 5.6950                37.0224

                     31                     32                     33
                      A                      A                      A
 Frequencies --   1192.2490              1221.0168              1236.9447
 Red. masses --      1.3483                 1.7341                 1.8519
 Frc consts  --      1.1292                 1.5233                 1.6694
 IR Inten    --      0.7852                 1.0221                 3.1169

                     34                     35                     36
                      A                      A                      A
 Frequencies --   1286.1912              1301.7544              1385.3331
 Red. masses --      2.6930                 1.7421                 1.5571
 Frc consts  --      2.6248                 1.7394                 1.7606
 IR Inten    --    134.3909                42.2170               106.7703

                     37                     38                     39
                      A                      A                      A
 Frequencies --   1412.7738              1452.7322              1477.3075
 Red. masses --      1.4653                 1.0933                 1.5546
 Frc consts  --      1.7232                 1.3594                 1.9990
 IR Inten    --      6.0515                 0.8612                36.3851

                     40                     41                     42
                      A                      A                      A
 Frequencies --   1498.8184              1513.1532              3024.9711
 Red. masses --      1.5008                 1.1641                 1.0543
 Frc consts  --      1.9864                 1.5704                 5.6838
 IR Inten    --     10.2682                 5.2795                52.9662

                     43                     44                     45
                      A                      A                      A
 Frequencies --   3080.2079              3114.5647              3114.9106
 Red. masses --      1.1117                 1.0840                 1.0576
 Frc consts  --      6.2143                 6.1954                 6.0458
 IR Inten    --     30.8449                24.0680                 9.3073

                     46                     47                     48
                      A                      A                      A
 Frequencies --   3139.3532              3143.7785              3191.6839
 Red. masses --      1.0513                 1.0599                 1.0957
 Frc consts  --      6.1048                 6.1716                 6.5762
 IR Inten    --     14.3751                 5.2254                11.8246

                     49                     50                     51
                      A                      A                      A
 Frequencies --   3214.8527              3223.5745              3237.1438
 Red. masses --      1.1139                 1.1180                 1.1154
 Frc consts  --      6.7829                 6.8450                 6.8868
 IR Inten    --      8.1607                 0.7839                13.9212

 - Thermochemistry -
 -------------------
 Temperature   298.150 Kelvin.  Pressure   1.00000 Atm.
 Atom     1 has atomic number  6 and mass  12.00000

 Molecular mass:   126.06808 amu.
 Principal axes and moments of inertia in atomic units:
                           1         2         3
     Eigenvalues --   389.510601846.674341990.61008
           X            1.00000   0.00026   0.00041
           Y           -0.00024   0.99945  -0.03313
           Z           -0.00042   0.03313   0.99945
 This molecule is an asymmetric top.
 Rotational symmetry number  1.
 Rotational temperatures (Kelvin)      0.22237     0.04690     0.04351
 Rotational constants (GHZ):           4.63336     0.97729     0.90663
 Zero-point vibrational energy     414839.5 (Joules/Mol)
                                   99.14902 (Kcal/Mol)
 Warning -- explicit consideration of   9 degrees of freedom as
           vibrations may cause significant error
 Vibrational temperatures:     51.62   123.53   199.53   388.85   448.09
          (Kelvin)            533.55   553.87   622.97   703.56   983.41
                             1066.03  1088.22  1176.32  1183.63  1275.56
                             1304.11  1335.77  1406.04  1417.89  1431.06
                             1437.80  1464.97  1519.08  1541.85  1544.17
                             1547.19  1594.82  1620.75  1661.33  1711.50
                             1715.38  1756.77  1779.69  1850.54  1872.93
                             1993.18  2032.66  2090.15  2125.51  2156.46
                             2177.09  4352.25  4431.73  4481.16  4481.66
                             4516.82  4523.19  4592.12  4625.45  4638.00
                             4657.52

 Zero-point correction=                           0.158004 (Hartree/Particle)
 Thermal correction to Energy=                    0.166269
 Thermal correction to Enthalpy=                  0.167213
 Thermal correction to Gibbs Free Energy=         0.124146
 Sum of electronic and zero-point Energies=           -422.943228
 Sum of electronic and thermal Energies=              -422.934963
 Sum of electronic and thermal Enthalpies=            -422.934019
 Sum of electronic and thermal Free Energies=         -422.977086

                     E (Thermal)             CV                S
                      KCal/Mol        Cal/Mol-Kelvin    Cal/Mol-Kelvin
 Total                  104.335             31.493             90.641
 Electronic               0.000              0.000              0.000
 Translational            0.889              2.981             40.409
 Rotational               0.889              2.981             28.750
 Vibrational            102.558             25.531             21.482
 Vibration     1          0.594              1.982              5.474
 Vibration     2          0.601              1.959              3.752
 Vibration     3          0.614              1.915              2.822
 Vibration     4          0.674              1.728              1.595
 Vibration     5          0.700              1.652              1.355
 Vibration     6          0.743              1.532              1.076
 Vibration     7          0.754              1.502              1.020
 Vibration     8          0.794              1.398              0.849
 Vibration     9          0.845              1.274              0.686

 Optimization completed.
    -- Stationary point found.
 Normal termination of Gaussian 09 at Mon Jan 27 11:58:22 2020.
