 Gaussian 09, Revision D.01,
 Gaussian 09:  ES64L-G09RevD.01 24-Apr-2013

 -----------------------------
 # b3lyp 6-31G(2df,p) opt Freq
 -----------------------------

 -----
 titel
 -----
 Symbolic Z-matrix:
 Charge =  0 Multiplicity = 1

 SCF Done:  E(RB3LYP) =  -423.180676595     A.U. after   14 cycles
 Optimization completed.
    -- Stationary point found.
 Normal termination of Gaussian 09 at Mon Jan 27 13:55:56 2020.

 ----------------------------------------------------------------------
 #N Geom=AllCheck Guess=TCheck SCRF=Check GenChk RB3LYP/6-31G(2df,p) Fr
 eq
 ----------------------------------------------------------------------

 Structure from the checkpoint file:  "/scratch/puck/g09_eaa7a568-0a5e-4784-b0a9-6ce5e46b776a/Gau-49710.chk"
 -----
 titel
 -----
 Charge =  0 Multiplicity = 1

                         Standard orientation:
 ---------------------------------------------------------------------
 Center     Atomic      Atomic             Coordinates (Angstroms)
 Number     Number       Type             X           Y           Z
 ---------------------------------------------------------------------
      1          8           0        2.300628   -1.119493    0.743013
      2          6           0        2.561278   -0.424846   -0.202051
      3          8           0        1.911937    0.677522   -0.594182
      4          6           0        0.779950    1.110045    0.201544
      5          6           0       -0.530655    0.663378   -0.418564
      6          6           0       -1.771193    1.129359    0.420013
      7          6           0       -2.147198   -0.337296    0.651587
      8          6           0       -2.323446   -1.045029   -0.662265
      9          6           0       -0.931105   -0.798960   -0.155973
     10          1           0        3.398239   -0.599573   -0.896160
     11          1           0        0.893077    0.725032    1.217910
     12          1           0        0.847458    2.201557    0.211521
     13          1           0       -0.540584    0.957690   -1.474493
     14          1           0       -1.468340    1.643169    1.337313
     15          1           0       -2.510646    1.750558   -0.096035
     16          1           0       -2.544747   -0.741754    1.574204
     17          1           0       -2.666918   -2.072348   -0.595387
     18          1           0       -2.697170   -0.507416   -1.531984
     19          1           0       -0.236683   -1.601065    0.056717
 ---------------------------------------------------------------------

 SCF Done:  E(RB3LYP) =  -423.180676595     A.U. after    1 cycles

 The electronic state is 1-A.
 Alpha  occ. eigenvalues --  -19.18861 -19.13369 -10.30895 -10.24099 -10.19641
 Alpha  occ. eigenvalues --  -10.19139 -10.18958 -10.18838 -10.18503  -1.10337
 Alpha  occ. eigenvalues --   -1.02111  -0.89582  -0.77310  -0.70645  -0.64731
 Alpha  occ. eigenvalues --   -0.59269  -0.58006  -0.53885  -0.52149  -0.50933
 Alpha  occ. eigenvalues --   -0.47490  -0.46045  -0.44557  -0.43451  -0.41531
 Alpha  occ. eigenvalues --   -0.38484  -0.37400  -0.35630  -0.33541  -0.31894
 Alpha  occ. eigenvalues --   -0.30830  -0.28426  -0.27792  -0.25868
 Alpha virt. eigenvalues --    0.00870   0.09551   0.10420   0.11185   0.11571
 Alpha virt. eigenvalues --    0.12278   0.13381   0.14908   0.15801   0.17020
 Alpha virt. eigenvalues --    0.17347   0.18010   0.18546   0.21174   0.21964

 Mulliken charges:
               1
     1  O   -0.306822
     2  C    0.189037
     3  O   -0.210848
     4  C   -0.107762
     5  C    0.004317
     6  C   -0.262855
     7  C   -0.029602
     8  C   -0.287744
     9  C   -0.042486
    10  H    0.111594
    11  H    0.136896
    12  H    0.116415
    13  H    0.075493
    14  H    0.103861
    15  H    0.097749
    16  H    0.086942
    17  H    0.112836
    18  H    0.102073
    19  H    0.110905
 Sum of Mulliken charges =   0.00000

 Dipole moment (field-independent basis, Debye):
    X=             -0.7838    Y=              1.2633    Z=             -0.6896  Tot=              1.6388
 Quadrupole moment (field-independent basis, Debye-Ang):
   XX=            -52.8238   YY=            -53.1024   ZZ=            -53.8425
   XY=              2.1638   XZ=             -2.9831   YZ=              2.5890

  Exact polarizability:  86.035  -1.916  75.108  -2.478  -0.145  66.405
 Approx polarizability: 109.847  -4.364 112.629  -4.379  -6.745 108.160

                      1                      2                      3
                      A                      A                      A
 Frequencies --     52.9448                83.6208               137.9633
 Red. masses --      5.2651                 4.7956                 3.1487
 Frc consts  --      0.0087                 0.0198                 0.0353
 IR Inten    --      2.2031                 1.4218                 0.5065

                      4                      5                      6
                      A                      A                      A
 Frequencies --    181.6051               272.5277               341.6054
 Red. masses --      3.0892                 2.9314                 2.7968
 Frc consts  --      0.0600                 0.1283                 0.1923
 IR Inten    --      1.7146                 8.5841                16.7162

                      7                      8                      9
                      A                      A                      A
 Frequencies --    385.3205               398.1697               508.2622
 Red. masses --      1.8445                 3.6950                 2.8554
 Frc consts  --      0.1614                 0.3451                 0.4346
 IR Inten    --      0.9008                 1.7640                 9.2196

                     10                     11                     12
                      A                      A                      A
 Frequencies --    702.7030               758.1275               777.7711
 Red. masses --      2.6509                 3.0604                 1.9902
 Frc consts  --      0.7712                 1.0364                 0.7093
 IR Inten    --      1.1585                 8.7133                 8.4276

                     13                     14                     15
                      A                      A                      A
 Frequencies --    798.8482               868.2090               899.9533
 Red. masses --      2.0959                 1.9015                 1.9170
 Frc consts  --      0.7880                 0.8445                 0.9148
 IR Inten    --      3.7962                 2.6849                 5.4100

                     16                     17                     18
                      A                      A                      A
 Frequencies --    915.1492               939.3877               964.5641
 Red. masses --      2.8016                 2.9943                 1.8391
 Frc consts  --      1.3824                 1.5568                 1.0081
 IR Inten    --      8.3129                15.3045                 2.9034

                     19                     20                     21
                      A                      A                      A
 Frequencies --    990.3986              1010.6855              1043.4360
 Red. masses --      1.3525                 1.9483                 1.9231
 Frc consts  --      0.7817                 1.1726                 1.2336
 IR Inten    --      1.7020                 1.8816                 8.2192

                     22                     23                     24
                      A                      A                      A
 Frequencies --   1045.6329              1068.0759              1086.2645
 Red. masses --      1.6408                 1.1558                 1.4801
 Frc consts  --      1.0570                 0.7769                 1.0290
 IR Inten    --      0.4260                 0.0839                 2.7347

                     25                     26                     27
                      A                      A                      A
 Frequencies --   1110.8276              1148.4856              1172.1657
 Red. masses --      1.6338                 1.8582                 1.9898
 Frc consts  --      1.1878                 1.4441                 1.6108
 IR Inten    --      7.2236                 5.3894                45.6115

                     28                     29                     30
                      A                      A                      A
 Frequencies --   1189.5891              1223.6117              1244.6585
 Red. masses --      2.8504                 2.0291                 1.4630
 Frc consts  --      2.3766                 1.7899                 1.3353
 IR Inten    --    214.0467                65.8745                18.4447

                     31                     32                     33
                      A                      A                      A
 Frequencies --   1255.6304              1288.1766              1300.3191
 Red. masses --      1.4461                 1.3625                 1.5237
 Frc consts  --      1.3433                 1.3321                 1.5179
 IR Inten    --      5.2561                 3.2450                20.2350

                     34                     35                     36
                      A                      A                      A
 Frequencies --   1353.8644              1375.8641              1407.5821
 Red. masses --      1.7187                 1.5878                 1.2188
 Frc consts  --      1.8561                 1.7709                 1.4228
 IR Inten    --      4.4182                 3.7337                 1.2150

                     37                     38                     39
                      A                      A                      A
 Frequencies --   1413.8087              1482.6442              1485.4811
 Red. masses --      1.3042                 1.1200                 1.1207
 Frc consts  --      1.5360                 1.4506                 1.4570
 IR Inten    --      1.9919                 0.9746                 8.3642

                     40                     41                     42
                      A                      A                      A
 Frequencies --   1498.7946              1815.3289              3027.4322
 Red. masses --      1.1794                 9.1229                 1.0899
 Frc consts  --      1.5609                17.7132                 5.8855
 IR Inten    --      1.2212               234.3877                70.3362

                     43                     44                     45
                      A                      A                      A
 Frequencies --   3034.2281              3042.5304              3061.2374
 Red. masses --      1.0788                 1.0642                 1.0580
 Frc consts  --      5.8517                 5.8044                 5.8414
 IR Inten    --     31.5023                41.2824                28.8503

                     46                     47                     48
                      A                      A                      A
 Frequencies --   3090.7294              3100.6263              3122.0335
 Red. masses --      1.1063                 1.0586                 1.1079
 Frc consts  --      6.2267                 5.9962                 6.3623
 IR Inten    --     24.6437                26.9074                12.2253

                     49                     50                     51
                      A                      A                      A
 Frequencies --   3182.8725              3194.9371              3208.5750
 Red. masses --      1.0933                 1.1058                 1.0977
 Frc consts  --      6.5257                 6.6506                 6.6584
 IR Inten    --     14.9331                 8.8099                11.4144

 - Thermochemistry -
 -------------------
 Temperature   298.150 Kelvin.  Pressure   1.00000 Atm.
 Atom     1 has atomic number  8 and mass  15.99491

 Molecular mass:   126.06808 amu.
 Principal axes and moments of inertia in atomic units:
                           1         2         3
     Eigenvalues --   532.630821732.213851966.74069
           X            0.99998   0.00664  -0.00217
           Y           -0.00652   0.99878   0.04903
           Z            0.00250  -0.04901   0.99880
 This molecule is an asymmetric top.
 Rotational symmetry number  1.
 Warning -- assumption of classical behavior for rotation
           may cause significant error
 Rotational temperatures (Kelvin)      0.16262     0.05000     0.04404
 Rotational constants (GHZ):           3.38835     1.04187     0.91763
 Zero-point vibrational energy     419071.4 (Joules/Mol)
                                  100.16046 (Kcal/Mol)
 Warning -- explicit consideration of   9 degrees of freedom as
           vibrations may cause significant error
 Vibrational temperatures:     76.18   120.31   198.50   261.29   392.11
          (Kelvin)            491.49   554.39   572.88   731.27  1011.03
                             1090.78  1119.04  1149.36  1249.16  1294.83
                             1316.69  1351.57  1387.79  1424.96  1454.15
                             1501.27  1504.43  1536.72  1562.89  1598.23
                             1652.41  1686.48  1711.55  1760.50  1790.78
                             1806.57  1853.40  1870.87  1947.91  1979.56
                             2025.19  2034.15  2133.19  2137.27  2156.43
                             2611.85  4355.79  4365.57  4377.52  4404.43
                             4446.86  4461.10  4491.90  4579.44  4596.80
                             4616.42

 Zero-point correction=                           0.159616 (Hartree/Particle)
 Thermal correction to Energy=                    0.167984
 Thermal correction to Enthalpy=                  0.168928
 Thermal correction to Gibbs Free Energy=         0.125666
 Sum of electronic and zero-point Energies=           -423.021061
 Sum of electronic and thermal Energies=              -423.012693
 Sum of electronic and thermal Enthalpies=            -423.011749
 Sum of electronic and thermal Free Energies=         -423.055011

                     E (Thermal)             CV                S
                      KCal/Mol        Cal/Mol-Kelvin    Cal/Mol-Kelvin
 Total                  105.411             30.985             91.052
 Electronic               0.000              0.000              0.000
 Translational            0.889              2.981             40.409
 Rotational               0.889              2.981             28.986
 Vibrational            103.634             25.024             21.658
 Vibration     1          0.596              1.976              4.704
 Vibration     2          0.601              1.960              3.804
 Vibration     3          0.614              1.915              2.832
 Vibration     4          0.630              1.865              2.312
 Vibration     5          0.676              1.724              1.580
 Vibration     6          0.721              1.592              1.205
 Vibration     7          0.754              1.502              1.018
 Vibration     8          0.764              1.474              0.969
 Vibration     9          0.863              1.232              0.638

 Optimization completed.
    -- Stationary point found.
 Normal termination of Gaussian 09 at Mon Jan 27 14:36:05 2020.
