 Gaussian 09, Revision D.01,
 Gaussian 09:  ES64L-G09RevD.01 24-Apr-2013

 -----------------------------
 # b3lyp 6-31G(2df,p) opt Freq
 -----------------------------

 -----
 titel
 -----
 Symbolic Z-matrix:
 Charge =  0 Multiplicity = 1

 SCF Done:  E(RB3LYP) =  -423.174551336     A.U. after   14 cycles
 Optimization completed.
    -- Stationary point found.
 Normal termination of Gaussian 09 at Mon Jan 27 22:14:29 2020.

 ----------------------------------------------------------------------
 #N Geom=AllCheck Guess=TCheck SCRF=Check GenChk RB3LYP/6-31G(2df,p) Fr
 eq
 ----------------------------------------------------------------------

 Structure from the checkpoint file:  "/scratch/puck/g09_8b45ae9a-87b0-40c8-9336-7aceb28d2999/Gau-28756.chk"
 -----
 titel
 -----
 Charge =  0 Multiplicity = 1

                         Standard orientation:
 ---------------------------------------------------------------------
 Center     Atomic      Atomic             Coordinates (Angstroms)
 Number     Number       Type             X           Y           Z
 ---------------------------------------------------------------------
      1          6           0        0.847158   -1.533955   -0.949040
      2          6           0        0.779285   -0.414366    0.087292
      3          6           0        2.140936   -0.230263    0.780379
      4          6           0       -0.368324   -0.406125    1.129096
      5          6           0       -1.703593   -0.147454    0.546004
      6          8           0       -2.071570   -0.658383   -0.701176
      7          6           0       -0.784798    1.049217    0.710678
      8          6           0        0.287902    0.995774   -0.343280
      9          8           0        0.717747    1.802212   -1.119538
     10          1           0       -0.111707   -1.681100   -1.443980
     11          1           0        1.601867   -1.293309   -1.705462
     12          1           0        1.143100   -2.476686   -0.474391
     13          1           0        2.111343    0.564745    1.532579
     14          1           0        2.442601   -1.158360    1.277838
     15          1           0        2.906156    0.028830    0.043336
     16          1           0       -0.256176   -0.776629    2.141345
     17          1           0       -2.512946   -0.150125    1.278473
     18          1           0       -2.611453    0.002120   -1.148641
     19          1           0       -1.073593    1.912918    1.297843
 ---------------------------------------------------------------------

 SCF Done:  E(RB3LYP) =  -423.174551336     A.U. after    1 cycles

 The electronic state is 1-A.
 Alpha  occ. eigenvalues --  -19.15730 -19.12847 -10.26379 -10.25861 -10.21096
 Alpha  occ. eigenvalues --  -10.20414 -10.20325 -10.18141 -10.16806  -1.04598
 Alpha  occ. eigenvalues --   -1.03663  -0.90012  -0.78296  -0.68716  -0.67227
 Alpha  occ. eigenvalues --   -0.62392  -0.58541  -0.52326  -0.51352  -0.48424
 Alpha  occ. eigenvalues --   -0.45552  -0.44758  -0.42326  -0.41441  -0.41015
 Alpha  occ. eigenvalues --   -0.38636  -0.37466  -0.36467  -0.35058  -0.33772
 Alpha  occ. eigenvalues --   -0.31316  -0.29704  -0.27279  -0.23392
 Alpha virt. eigenvalues --   -0.01023   0.07097   0.08819   0.10315   0.11280
 Alpha virt. eigenvalues --    0.13248   0.14107   0.15595   0.16491   0.17039
 Alpha virt. eigenvalues --    0.17803   0.19456   0.20080   0.21291   0.22363

 Mulliken charges:
               1
     1  C   -0.456992
     2  C    0.174464
     3  C   -0.429091
     4  C   -0.121908
     5  C    0.088202
     6  O   -0.411651
     7  C   -0.262087
     8  C    0.400592
     9  O   -0.334567
    10  H    0.146180
    11  H    0.123146
    12  H    0.109472
    13  H    0.117536
    14  H    0.116117
    15  H    0.134312
    16  H    0.100851
    17  H    0.102637
    18  H    0.294406
    19  H    0.108382
 Sum of Mulliken charges =   0.00000

 Dipole moment (field-independent basis, Debye):
    X=             -1.5406    Y=             -0.7830    Z=              2.1802  Tot=              2.7820
 Quadrupole moment (field-independent basis, Debye-Ang):
   XX=            -48.6110   YY=            -58.3356   ZZ=            -52.5457
   XY=             -5.4119   XZ=              1.6339   YZ=              2.2863

  Exact polarizability:  82.050  -2.647  74.303  -3.101  -1.628  71.410
 Approx polarizability: 112.118   0.811 117.262  -6.099 -10.538 110.955

                      1                      2                      3
                      A                      A                      A
 Frequencies --    103.7019               164.7615               184.0232
 Red. masses --      5.7273                 2.9404                 1.1537
 Frc consts  --      0.0363                 0.0470                 0.0230
 IR Inten    --      6.6633                 0.4480                 0.5922

                      4                      5                      6
                      A                      A                      A
 Frequencies --    208.2717               235.9517               275.2567
 Red. masses --      3.2244                 1.3223                 1.5745
 Frc consts  --      0.0824                 0.0434                 0.0703
 IR Inten    --      1.4724                 1.6017                90.7939

                      7                      8                      9
                      A                      A                      A
 Frequencies --    283.6399               317.1145               352.1842
 Red. masses --      1.6896                 2.4256                 2.3992
 Frc consts  --      0.0801                 0.1437                 0.1753
 IR Inten    --     11.1445                11.3419                 0.5983

                     10                     11                     12
                      A                      A                      A
 Frequencies --    433.1718               485.2566               631.1106
 Red. masses --      3.8072                 3.3435                 4.1475
 Frc consts  --      0.4209                 0.4639                 0.9733
 IR Inten    --      8.4780                 0.5295                 3.6336

                     13                     14                     15
                      A                      A                      A
 Frequencies --    654.7408               663.9326               715.7395
 Red. masses --      3.9654                 4.7840                 3.2117
 Frc consts  --      1.0016                 1.2425                 0.9694
 IR Inten    --      3.0695                 0.4385                 3.7880

                     16                     17                     18
                      A                      A                      A
 Frequencies --    789.3209               825.9822               921.5962
 Red. masses --      3.0764                 2.4395                 1.6053
 Frc consts  --      1.1293                 0.9806                 0.8033
 IR Inten    --      3.2484                 5.3564                19.3331

                     19                     20                     21
                      A                      A                      A
 Frequencies --    933.8894               958.0584               979.2065
 Red. masses --      2.5731                 1.4768                 2.4362
 Frc consts  --      1.3222                 0.7987                 1.3763
 IR Inten    --     25.5523                 3.3761                46.3635

                     22                     23                     24
                      A                      A                      A
 Frequencies --    990.2500               995.2422              1026.2837
 Red. masses --      1.5681                 2.0154                 1.3963
 Frc consts  --      0.9060                 1.1762                 0.8665
 IR Inten    --     14.4186                23.1572                 1.4189

                     25                     26                     27
                      A                      A                      A
 Frequencies --   1077.4569              1088.4831              1191.7155
 Red. masses --      1.2537                 2.2184                 2.7214
 Frc consts  --      0.8575                 1.5486                 2.2771
 IR Inten    --      3.5489                28.5427                14.1482

                     28                     29                     30
                      A                      A                      A
 Frequencies --   1204.7374              1211.3315              1242.4377
 Red. masses --      2.4788                 2.0833                 2.1119
 Frc consts  --      2.1197                 1.8011                 1.9207
 IR Inten    --     29.6661                27.3183                 6.0898

                     31                     32                     33
                      A                      A                      A
 Frequencies --   1266.5232              1310.9104              1345.1969
 Red. masses --      1.7644                 1.6901                 1.7265
 Frc consts  --      1.6675                 1.7112                 1.8408
 IR Inten    --     67.0356                15.9396                 4.5974

                     34                     35                     36
                      A                      A                      A
 Frequencies --   1393.8236              1416.3230              1448.3182
 Red. masses --      1.2302                 1.2281                 1.8144
 Frc consts  --      1.4082                 1.4514                 2.2424
 IR Inten    --      5.6885                 3.0331                16.8190

                     37                     38                     39
                      A                      A                      A
 Frequencies --   1483.3923              1488.6100              1501.9304
 Red. masses --      1.0628                 1.0471                 1.0682
 Frc consts  --      1.3779                 1.3671                 1.4197
 IR Inten    --      2.8917                 0.4908                 0.7102

                     40                     41                     42
                      A                      A                      A
 Frequencies --   1514.9599              1877.6725              3030.3420
 Red. masses --      1.0526                12.3490                 1.0361
 Frc consts  --      1.4234                25.6520                 5.6060
 IR Inten    --      6.5918               283.6575                16.1979

                     43                     44                     45
                      A                      A                      A
 Frequencies --   3034.9094              3087.7962              3091.6902
 Red. masses --      1.0394                 1.0860                 1.0997
 Frc consts  --      5.6405                 6.1009                 6.1934
 IR Inten    --     35.4671                31.9865                13.1687

                     46                     47                     48
                      A                      A                      A
 Frequencies --   3099.1570              3116.5526              3161.2363
 Red. masses --      1.1016                 1.1012                 1.0966
 Frc consts  --      6.2338                 6.3017                 6.4568
 IR Inten    --     25.1458                17.3304                 4.5637

                     49                     50                     51
                      A                      A                      A
 Frequencies --   3181.6082              3190.4092              3808.3530
 Red. masses --      1.0897                 1.0964                 1.0662
 Frc consts  --      6.4991                 6.5755                 9.1109
 IR Inten    --     10.4657                 7.8947                34.1867

 - Thermochemistry -
 -------------------
 Temperature   298.150 Kelvin.  Pressure   1.00000 Atm.
 Atom     1 has atomic number  6 and mass  12.00000

 Molecular mass:   126.06808 amu.
 Principal axes and moments of inertia in atomic units:
                           1         2         3
     Eigenvalues --   799.933491145.644331301.06199
           X            0.99662  -0.08209   0.00193
           Y            0.08116   0.98834   0.12880
           Z           -0.01248  -0.12821   0.99167
 This molecule is an asymmetric top.
 Rotational symmetry number  1.
 Warning -- assumption of classical behavior for rotation
           may cause significant error
 Rotational temperatures (Kelvin)      0.10828     0.07560     0.06657
 Rotational constants (GHZ):           2.25611     1.57531     1.38713
 Zero-point vibrational energy     412679.1 (Joules/Mol)
                                   98.63268 (Kcal/Mol)
 Warning -- explicit consideration of  11 degrees of freedom as
           vibrations may cause significant error
 Vibrational temperatures:    149.20   237.05   264.77   299.66   339.48
          (Kelvin)            396.03   408.09   456.26   506.71   623.24
                              698.18   908.03   942.02   955.25  1029.79
                             1135.66  1188.40  1325.97  1343.66  1378.43
                             1408.86  1424.75  1431.93  1476.59  1550.22
                             1566.08  1714.61  1733.35  1742.83  1787.59
                             1822.24  1886.11  1935.44  2005.40  2037.77
                             2083.80  2134.27  2141.78  2160.94  2179.69
                             2701.55  4359.98  4366.55  4442.64  4448.25
                             4458.99  4484.02  4548.31  4577.62  4590.28
                             5479.36

 Zero-point correction=                           0.157181 (Hartree/Particle)
 Thermal correction to Energy=                    0.166309
 Thermal correction to Enthalpy=                  0.167253
 Thermal correction to Gibbs Free Energy=         0.123944
 Sum of electronic and zero-point Energies=           -423.017370
 Sum of electronic and thermal Energies=              -423.008242
 Sum of electronic and thermal Enthalpies=            -423.007298
 Sum of electronic and thermal Free Energies=         -423.050607

                     E (Thermal)             CV                S
                      KCal/Mol        Cal/Mol-Kelvin    Cal/Mol-Kelvin
 Total                  104.361             34.753             91.152
 Electronic               0.000              0.000              0.000
 Translational            0.889              2.981             40.409
 Rotational               0.889              2.981             28.568
 Vibrational            102.583             28.791             22.175
 Vibration     1          0.605              1.946              3.384
 Vibration     2          0.623              1.886              2.494
 Vibration     3          0.631              1.862              2.287
 Vibration     4          0.642              1.828              2.059
 Vibration     5          0.655              1.786              1.833
 Vibration     6          0.677              1.719              1.563
 Vibration     7          0.682              1.704              1.512
 Vibration     8          0.704              1.641              1.325
 Vibration     9          0.729              1.571              1.156
 Vibration    10          0.794              1.398              0.848
 Vibration    11          0.841              1.283              0.696

 Optimization completed.
    -- Stationary point found.
 Normal termination of Gaussian 09 at Tue Jan 28 00:31:35 2020.
