 Gaussian 09, Revision D.01,
 Gaussian 09:  ES64L-G09RevD.01 24-Apr-2013

 -----------------------------
 # b3lyp 6-31G(2df,p) opt Freq
 -----------------------------

 -----
 titel
 -----
 Symbolic Z-matrix:
 Charge =  0 Multiplicity = 1

 SCF Done:  E(RB3LYP) =  -423.133315464     A.U. after   14 cycles
 SCF Done:  E(RB3LYP) =  -423.133315185     A.U. after    7 cycles
 SCF Done:  E(RB3LYP) =  -423.133315519     A.U. after    7 cycles
 SCF Done:  E(RB3LYP) =  -423.133315534     A.U. after    7 cycles
 SCF Done:  E(RB3LYP) =  -423.133315530     A.U. after    6 cycles
 Optimization completed.
    -- Stationary point found.
 Normal termination of Gaussian 09 at Tue Jan 28 08:38:13 2020.

 ----------------------------------------------------------------------
 #N Geom=AllCheck Guess=TCheck SCRF=Check GenChk RB3LYP/6-31G(2df,p) Fr
 eq
 ----------------------------------------------------------------------

 Structure from the checkpoint file:  "/scratch/puck/g09_c3b5ed9e-6249-4446-8346-6b1e4af5f3a1/Gau-74503.chk"
 -----
 titel
 -----
 Charge =  0 Multiplicity = 1

                         Standard orientation:
 ---------------------------------------------------------------------
 Center     Atomic      Atomic             Coordinates (Angstroms)
 Number     Number       Type             X           Y           Z
 ---------------------------------------------------------------------
      1          6           0        2.668968    0.985895   -0.008815
      2          6           0        1.983471   -0.363940   -0.244156
      3          6           0        0.506859   -0.342938    0.074587
      4          8           0        0.219814   -0.106393    1.429950
      5          6           0       -0.480874   -1.266354   -0.572576
      6          8           0       -1.475601   -1.820213    0.205179
      7          6           0       -0.501240    0.239444   -0.933781
      8          6           0       -1.522884    1.094627   -0.423693
      9          6           0       -2.340594    1.820094    0.084105
     10          1           0        2.241279    1.765031   -0.648778
     11          1           0        2.548955    1.300042    1.031755
     12          1           0        3.739626    0.923896   -0.223132
     13          1           0        2.111845   -0.680886   -1.286003
     14          1           0        2.454390   -1.135725    0.377479
     15          1           0       -0.275459    0.722540    1.497793
     16          1           0       -0.144674   -1.929441   -1.364571
     17          1           0       -1.313093   -1.499420    1.105556
     18          1           0       -0.101977    0.497333   -1.910509
     19          1           0       -3.096833    2.448505    0.485355
 ---------------------------------------------------------------------

 SCF Done:  E(RB3LYP) =  -423.133315530     A.U. after    1 cycles

 The electronic state is 1-A.
 Alpha  occ. eigenvalues --  -19.16089 -19.14151 -10.25169 -10.24372 -10.21252
 Alpha  occ. eigenvalues --  -10.19276 -10.19257 -10.18131 -10.17888  -1.05756
 Alpha  occ. eigenvalues --   -1.02096  -0.85404  -0.77477  -0.74660  -0.65892
 Alpha  occ. eigenvalues --   -0.62790  -0.59176  -0.55457  -0.52241  -0.50100
 Alpha  occ. eigenvalues --   -0.48705  -0.44499  -0.43309  -0.41470  -0.40580
 Alpha  occ. eigenvalues --   -0.39046  -0.36527  -0.35679  -0.34991  -0.31776
 Alpha  occ. eigenvalues --   -0.30839  -0.28620  -0.25666  -0.23383
 Alpha virt. eigenvalues --    0.03537   0.03904   0.07270   0.09968   0.11495
 Alpha virt. eigenvalues --    0.12643   0.13215   0.14207   0.15030   0.15888
 Alpha virt. eigenvalues --    0.17177   0.18581   0.19407   0.19633   0.22155

 Mulliken charges:
               1
     1  C   -0.383656
     2  C   -0.235184
     3  C    0.336644
     4  O   -0.474956
     5  C    0.082610
     6  O   -0.425108
     7  C   -0.366653
     8  C    0.302930
     9  C   -0.421337
    10  H    0.118228
    11  H    0.128215
    12  H    0.115354
    13  H    0.098924
    14  H    0.112483
    15  H    0.295025
    16  H    0.109354
    17  H    0.291422
    18  H    0.114745
    19  H    0.200960
 Sum of Mulliken charges =   0.00000

 Dipole moment (field-independent basis, Debye):
    X=              1.2275    Y=              1.3398    Z=             -0.2271  Tot=              1.8312
 Quadrupole moment (field-independent basis, Debye-Ang):
   XX=            -53.2192   YY=            -54.3932   ZZ=            -51.3964
   XY=             -5.2031   XZ=             -4.2032   YZ=              2.4273

  Exact polarizability:  90.272 -12.676  79.568  -5.347   4.886  66.056
 Approx polarizability: 123.488 -24.876 121.038 -11.793  10.859 106.551

                      1                      2                      3
                      A                      A                      A
 Frequencies --     83.4329               104.7935               136.0323
 Red. masses --      2.8753                 3.2540                 3.8733
 Frc consts  --      0.0118                 0.0211                 0.0422
 IR Inten    --      0.0439                 0.6460                 1.9911

                      4                      5                      6
                      A                      A                      A
 Frequencies --    166.6083               209.4986               271.0030
 Red. masses --      4.2505                 1.2659                 3.2687
 Frc consts  --      0.0695                 0.0327                 0.1414
 IR Inten    --      0.9404                 0.1455                 3.3869

                      7                      8                      9
                      A                      A                      A
 Frequencies --    299.6130               312.1315               346.1036
 Red. masses --      2.5265                 1.4256                 2.8684
 Frc consts  --      0.1336                 0.0818                 0.2024
 IR Inten    --     24.5200                29.4369                 0.7111

                     10                     11                     12
                      A                      A                      A
 Frequencies --    392.9618               405.4022               529.8956
 Red. masses --      3.7901                 4.7962                 1.1080
 Frc consts  --      0.3448                 0.4644                 0.1833
 IR Inten    --      9.6723                 8.7836                84.2136

                     13                     14                     15
                      A                      A                      A
 Frequencies --    562.4264               577.2424               637.2593
 Red. masses --      3.4411                 1.3319                 3.1465
 Frc consts  --      0.6413                 0.2615                 0.7529
 IR Inten    --     10.3877                43.0546                23.8484

                     16                     17                     18
                      A                      A                      A
 Frequencies --    666.7461               680.5505               696.6556
 Red. masses --      1.2776                 3.5462                 4.1389
 Frc consts  --      0.3346                 0.9677                 1.1835
 IR Inten    --     28.8151                 7.1267                17.9903

                     19                     20                     21
                      A                      A                      A
 Frequencies --    785.8278               823.0026               860.2819
 Red. masses --      1.2941                 3.0013                 2.6910
 Frc consts  --      0.4708                 1.1977                 1.1734
 IR Inten    --      0.0693                 9.1442                19.1794

                     22                     23                     24
                      A                      A                      A
 Frequencies --    962.6430               988.3634              1029.5519
 Red. masses --      2.2157                 2.0149                 1.9352
 Frc consts  --      1.2097                 1.1597                 1.2086
 IR Inten    --     23.2817                29.5491                27.6309

                     25                     26                     27
                      A                      A                      A
 Frequencies --   1056.4758              1096.3362              1104.2726
 Red. masses --      1.4348                 1.9208                 1.8495
 Frc consts  --      0.9435                 1.3603                 1.3288
 IR Inten    --      7.7263                 2.7970                 7.8032

                     28                     29                     30
                      A                      A                      A
 Frequencies --   1144.9450              1215.5158              1245.4377
 Red. masses --      2.7164                 1.7009                 1.6180
 Frc consts  --      2.0980                 1.4806                 1.4787
 IR Inten    --    102.2694                21.5581                34.9337

                     31                     32                     33
                      A                      A                      A
 Frequencies --   1319.5186              1330.6839              1352.9571
 Red. masses --      1.3766                 1.5675                 1.4981
 Frc consts  --      1.4122                 1.6353                 1.6157
 IR Inten    --     13.7492                 5.1829                42.8046

                     34                     35                     36
                      A                      A                      A
 Frequencies --   1364.1160              1392.3791              1406.7079
 Red. masses --      1.5939                 1.6521                 1.2505
 Frc consts  --      1.7474                 1.8871                 1.4579
 IR Inten    --     20.4476                26.5116                 5.4407

                     37                     38                     39
                      A                      A                      A
 Frequencies --   1462.8231              1474.7252              1496.2730
 Red. masses --      1.9023                 1.0763                 1.0441
 Frc consts  --      2.3983                 1.3791                 1.3772
 IR Inten    --     77.6964                 2.1880                 4.5981

                     40                     41                     42
                      A                      A                      A
 Frequencies --   1510.1420              2220.9459              3027.8459
 Red. masses --      1.0679                 6.0693                 1.0599
 Frc consts  --      1.4348                17.6386                 5.7253
 IR Inten    --      3.5217                20.2272                20.5957

                     43                     44                     45
                      A                      A                      A
 Frequencies --   3039.3263              3064.6730              3107.8575
 Red. masses --      1.0360                 1.1013                 1.1011
 Frc consts  --      5.6384                 6.0942                 6.2662
 IR Inten    --     22.6830                11.5592                35.0858

                     46                     47                     48
                      A                      A                      A
 Frequencies --   3119.5007              3145.4204              3154.2839
 Red. masses --      1.1019                 1.0871                 1.0899
 Frc consts  --      6.3179                 6.3370                 6.3889
 IR Inten    --     22.3199                 1.3907                23.0198

                     49                     50                     51
                      A                      A                      A
 Frequencies --   3501.3566              3709.7910              3724.8202
 Red. masses --      1.1582                 1.0645                 1.0663
 Frc consts  --      8.3655                 8.6319                 8.7164
 IR Inten    --     87.2226                50.8632                72.2498

 - Thermochemistry -
 -------------------
 Temperature   298.150 Kelvin.  Pressure   1.00000 Atm.
 Atom     1 has atomic number  6 and mass  12.00000

 Molecular mass:   126.06808 amu.
 Principal axes and moments of inertia in atomic units:
                           1         2         3
     Eigenvalues --   805.320711361.887121715.21753
           X            0.99982   0.00766  -0.01734
           Y           -0.00719   0.99961   0.02701
           Z            0.01754  -0.02688   0.99948
 This molecule is an asymmetric top.
 Rotational symmetry number  1.
 Warning -- assumption of classical behavior for rotation
           may cause significant error
 Rotational temperatures (Kelvin)      0.10755     0.06360     0.05050
 Rotational constants (GHZ):           2.24102     1.32518     1.05219
 Zero-point vibrational energy     408627.3 (Joules/Mol)
                                   97.66428 (Kcal/Mol)
 Warning -- explicit consideration of  14 degrees of freedom as
           vibrations may cause significant error
 Vibrational temperatures:    120.04   150.77   195.72   239.71   301.42
          (Kelvin)            389.91   431.08   449.09   497.97   565.38
                              583.28   762.40   809.21   830.52   916.87
                              959.30   979.16  1002.33  1130.63  1184.12
                             1237.75  1385.03  1422.03  1481.29  1520.03
                             1577.38  1588.80  1647.32  1748.85  1791.90
                             1898.49  1914.55  1946.60  1962.66  2003.32
                             2023.94  2104.67  2121.80  2152.80  2172.75
                             3195.44  4356.39  4372.91  4409.38  4471.51
                             4488.26  4525.55  4538.31  5037.66  5337.56
                             5359.18

 Zero-point correction=                           0.155638 (Hartree/Particle)
 Thermal correction to Energy=                    0.165656
 Thermal correction to Enthalpy=                  0.166600
 Thermal correction to Gibbs Free Energy=         0.121084
 Sum of electronic and zero-point Energies=           -422.977678
 Sum of electronic and thermal Energies=              -422.967659
 Sum of electronic and thermal Enthalpies=            -422.966715
 Sum of electronic and thermal Free Energies=         -423.012231

                     E (Thermal)             CV                S
                      KCal/Mol        Cal/Mol-Kelvin    Cal/Mol-Kelvin
 Total                  103.951             37.545             95.797
 Electronic               0.000              0.000              0.000
 Translational            0.889              2.981             40.409
 Rotational               0.889              2.981             29.021
 Vibrational            102.173             31.584             26.367
 Vibration     1          0.600              1.961              3.808
 Vibration     2          0.605              1.945              3.363
 Vibration     3          0.614              1.917              2.859
 Vibration     4          0.624              1.884              2.473
 Vibration     5          0.642              1.826              2.048
 Vibration     6          0.675              1.727              1.590
 Vibration     7          0.692              1.674              1.419
 Vibration     8          0.700              1.651              1.351
 Vibration     9          0.724              1.583              1.184
 Vibration    10          0.760              1.485              0.989
 Vibration    11          0.770              1.458              0.943
 Vibration    12          0.885              1.184              0.587
 Vibration    13          0.918              1.113              0.519
 Vibration    14          0.934              1.080              0.490

 Optimization completed.
    -- Stationary point found.
 Normal termination of Gaussian 09 at Tue Jan 28 09:22:18 2020.
