 Gaussian 09, Revision D.01,
 Gaussian 09:  ES64L-G09RevD.01 24-Apr-2013

 -----------------------------
 # b3lyp 6-31G(2df,p) opt Freq
 -----------------------------

 -----
 titel
 -----
 Symbolic Z-matrix:
 Charge =  0 Multiplicity = 1

 SCF Done:  E(RB3LYP) =  -423.147340542     A.U. after   15 cycles
 Optimization completed.
    -- Stationary point found.
 Normal termination of Gaussian 09 at Tue Jan 28 08:19:24 2020.

 ----------------------------------------------------------------------
 #N Geom=AllCheck Guess=TCheck SCRF=Check GenChk RB3LYP/6-31G(2df,p) Fr
 eq
 ----------------------------------------------------------------------

 Structure from the checkpoint file:  "/scratch/puck/g09_32e7b138-bd34-4f08-ac90-26551288d9f1/Gau-60259.chk"
 -----
 titel
 -----
 Charge =  0 Multiplicity = 1

                         Standard orientation:
 ---------------------------------------------------------------------
 Center     Atomic      Atomic             Coordinates (Angstroms)
 Number     Number       Type             X           Y           Z
 ---------------------------------------------------------------------
      1          6           0        2.973965   -0.979617    0.000402
      2          8           0        1.560674   -0.992852   -0.002877
      3          6           0        0.890293    0.273253   -0.000177
      4          6           0        1.204742    1.091611   -1.271171
      5          6           0        1.205304    1.087222    1.273438
      6          6           0       -0.539233   -0.062219   -0.000514
      7          6           0       -1.726457   -0.282684   -0.000753
      8          6           0       -3.130092   -0.601462   -0.000959
      9          8           0       -4.020756    0.217654    0.001631
     10          1           0        3.282001   -2.027776   -0.005762
     11          1           0        3.396908   -0.490874   -0.887468
     12          1           0        3.392726   -0.502541    0.896563
     13          1           0        1.027909    0.484592   -2.162034
     14          1           0        0.566084    1.976834   -1.317073
     15          1           0        2.246051    1.424596   -1.267262
     16          1           0        1.029013    0.477249    2.162404
     17          1           0        2.246556    1.420401    1.270092
     18          1           0        0.566469    1.972133    1.322607
     19          1           0       -3.344190   -1.689651   -0.003693
 ---------------------------------------------------------------------

 SCF Done:  E(RB3LYP) =  -423.147340542     A.U. after    1 cycles

 The electronic state is 1-A.
 Alpha  occ. eigenvalues --  -19.15056 -19.14167 -10.28742 -10.27842 -10.23316
 Alpha  occ. eigenvalues --  -10.20757 -10.19336 -10.19308 -10.19304  -1.04742
 Alpha  occ. eigenvalues --   -1.04270  -0.82387  -0.76323  -0.70857  -0.70407
 Alpha  occ. eigenvalues --   -0.66259  -0.60050  -0.52473  -0.50786  -0.48570
 Alpha  occ. eigenvalues --   -0.47022  -0.44432  -0.43496  -0.42694  -0.41255
 Alpha  occ. eigenvalues --   -0.40200  -0.39600  -0.39144  -0.37060  -0.31999
 Alpha  occ. eigenvalues --   -0.28879  -0.28870  -0.26518  -0.26478
 Alpha virt. eigenvalues --   -0.05921   0.02284   0.07279   0.09936   0.11741
 Alpha virt. eigenvalues --    0.12542   0.13728   0.13762   0.14859   0.15332
 Alpha virt. eigenvalues --    0.16967   0.17087   0.18548   0.18815   0.21957

 Mulliken charges:
               1
     1  C   -0.243656
     2  O   -0.274853
     3  C    0.152922
     4  C   -0.417568
     5  C   -0.417798
     6  C    0.144987
     7  C    0.018385
     8  C    0.016562
     9  O   -0.232462
    10  H    0.135698
    11  H    0.111174
    12  H    0.111274
    13  H    0.137414
    14  H    0.137497
    15  H    0.121833
    16  H    0.137411
    17  H    0.121858
    18  H    0.137551
    19  H    0.101772
 Sum of Mulliken charges =   0.00000

 Dipole moment (field-independent basis, Debye):
    X=              4.0285    Y=              0.0392    Z=              0.0008  Tot=              4.0287
 Quadrupole moment (field-independent basis, Debye-Ang):
   XX=            -60.3544   YY=            -52.4293   ZZ=            -52.2014
   XY=              5.4944   XZ=              0.0241   YZ=             -0.0044

  Exact polarizability: 122.873   2.754  69.618   0.004   0.012  61.299
 Approx polarizability: 180.206   0.934 102.335  -0.018   0.036  85.772

                      1                      2                      3
                      A                      A                      A
 Frequencies --     41.1680                57.0132                72.6033
 Red. masses --      3.9549                 1.8827                 4.9016
 Frc consts  --      0.0039                 0.0036                 0.0152
 IR Inten    --      5.4371                 6.9678                 2.3285

                      4                      5                      6
                      A                      A                      A
 Frequencies --    106.3392               181.9450               190.7407
 Red. masses --      2.5243                 1.1249                 6.3711
 Frc consts  --      0.0168                 0.0219                 0.1366
 IR Inten    --      2.9715                 1.3520                 2.9196

                      7                      8                      9
                      A                      A                      A
 Frequencies --    252.0196               262.7100               281.7352
 Red. masses --      2.0715                 1.0985                 1.6537
 Frc consts  --      0.0775                 0.0447                 0.0773
 IR Inten    --      0.0481                 0.0898                 1.9962

                     10                     11                     12
                      A                      A                      A
 Frequencies --    317.4491               330.6321               399.8028
 Red. masses --      2.5223                 2.8650                 3.1939
 Frc consts  --      0.1498                 0.1845                 0.3008
 IR Inten    --      1.3010                 0.2369                 3.0340

                     13                     14                     15
                      A                      A                      A
 Frequencies --    400.7313               536.8497               578.5062
 Red. masses --      3.7426                 6.2933                 5.3089
 Frc consts  --      0.3541                 1.0687                 1.0468
 IR Inten    --      7.2868                 0.9892                 1.7495

                     16                     17                     18
                      A                      A                      A
 Frequencies --    606.4825               722.9836               829.0503
 Red. masses --      3.8513                 5.5455                 2.7727
 Frc consts  --      0.8346                 1.7078                 1.1228
 IR Inten    --      8.1455                 9.4520                41.3347

                     19                     20                     21
                      A                      A                      A
 Frequencies --    920.9369               930.5471              1015.4168
 Red. masses --      1.5821                 2.5433                 1.2879
 Frc consts  --      0.7906                 1.2976                 0.7824
 IR Inten    --      0.0609                28.7325                 0.3281

                     22                     23                     24
                      A                      A                      A
 Frequencies --   1022.5117              1064.4932              1108.8956
 Red. masses --      1.7644                 3.0010                 5.5627
 Frc consts  --      1.0869                 2.0036                 4.0301
 IR Inten    --      0.5204                78.3810                51.9539

                     25                     26                     27
                      A                      A                      A
 Frequencies --   1165.5381              1178.3205              1181.8422
 Red. masses --      3.1805                 1.3179                 2.0941
 Frc consts  --      2.5457                 1.0781                 1.7233
 IR Inten    --     15.2098                 5.1277                76.0789

                     28                     29                     30
                      A                      A                      A
 Frequencies --   1210.5864              1291.6583              1389.8891
 Red. masses --      1.6582                 3.2390                 1.2208
 Frc consts  --      1.4318                 3.1839                 1.3895
 IR Inten    --     84.9651               138.1939                 7.4069

                     31                     32                     33
                      A                      A                      A
 Frequencies --   1409.2886              1420.6301              1472.2767
 Red. masses --      1.2166                 1.1935                 1.1152
 Frc consts  --      1.4237                 1.4192                 1.4242
 IR Inten    --      8.8231                16.9151                 0.4012

                     34                     35                     36
                      A                      A                      A
 Frequencies --   1475.8416              1479.8850              1498.5831
 Red. masses --      1.0496                 1.0463                 1.0620
 Frc consts  --      1.3469                 1.3501                 1.4052
 IR Inten    --      3.2037                 0.1323                 2.9730

                     37                     38                     39
                      A                      A                      A
 Frequencies --   1500.7212              1505.3477              1514.8405
 Red. masses --      1.0481                 1.0575                 1.0631
 Frc consts  --      1.3907                 1.4119                 1.4373
 IR Inten    --      1.8913                 3.3103                10.9955

                     40                     41                     42
                      A                      A                      A
 Frequencies --   1766.7765              2329.2421              2920.0638
 Red. masses --     10.5156                11.9562                 1.0817
 Frc consts  --     19.3396                38.2185                 5.4341
 IR Inten    --    256.4208               122.6545                94.0243

                     43                     44                     45
                      A                      A                      A
 Frequencies --   3000.3107              3047.1134              3053.9838
 Red. masses --      1.0350                 1.0540                 1.0344
 Frc consts  --      5.4893                 5.7658                 5.6843
 IR Inten    --     49.6319                 1.5987                15.6599

                     46                     47                     48
                      A                      A                      A
 Frequencies --   3056.6222              3116.9935              3125.0310
 Red. masses --      1.0814                 1.0976                 1.1018
 Frc consts  --      5.9527                 6.2831                 6.3395
 IR Inten    --     57.7573                24.0698                 0.5518

                     49                     50                     51
                      A                      A                      A
 Frequencies --   3129.9244              3136.7417              3138.8860
 Red. masses --      1.1012                 1.1034                 1.1032
 Frc consts  --      6.3562                 6.3966                 6.4040
 IR Inten    --     36.5475                 8.2369                14.8576

 - Thermochemistry -
 -------------------
 Temperature   298.150 Kelvin.  Pressure   1.00000 Atm.
 Atom     1 has atomic number  6 and mass  12.00000

 Molecular mass:   126.06808 amu.
 Principal axes and moments of inertia in atomic units:
                           1         2         3
     Eigenvalues --   497.082402564.866822657.46599
           X            0.99995   0.00955   0.00005
           Y           -0.00955   0.99995  -0.00033
           Z           -0.00006   0.00033   1.00000
 This molecule is an asymmetric top.
 Rotational symmetry number  1.
 Warning -- assumption of classical behavior for rotation
           may cause significant error
 Rotational temperatures (Kelvin)      0.17424     0.03377     0.03259
 Rotational constants (GHZ):           3.63067     0.70364     0.67912
 Zero-point vibrational energy     405226.0 (Joules/Mol)
                                   96.85134 (Kcal/Mol)
 Warning -- explicit consideration of  16 degrees of freedom as
           vibrations may cause significant error
 Vibrational temperatures:     59.23    82.03   104.46   153.00   261.78
          (Kelvin)            274.43   362.60   377.98   405.35   456.74
                              475.71   575.23   576.56   772.41   832.34
                              872.59  1040.21  1192.82  1325.02  1338.85
                             1460.96  1471.16  1531.57  1595.45  1676.95
                             1695.34  1700.41  1741.76  1858.41  1999.74
                             2027.65  2043.97  2118.28  2123.40  2129.22
                             2156.12  2159.20  2165.86  2179.51  2541.99
                             3351.26  4201.32  4316.77  4384.11  4394.00
                             4397.79  4484.65  4496.22  4503.26  4513.07
                             4516.15

 Zero-point correction=                           0.154342 (Hartree/Particle)
 Thermal correction to Energy=                    0.165383
 Thermal correction to Enthalpy=                  0.166328
 Thermal correction to Gibbs Free Energy=         0.116926
 Sum of electronic and zero-point Energies=           -422.992998
 Sum of electronic and thermal Energies=              -422.981957
 Sum of electronic and thermal Enthalpies=            -422.981013
 Sum of electronic and thermal Free Energies=         -423.030415

                     E (Thermal)             CV                S
                      KCal/Mol        Cal/Mol-Kelvin    Cal/Mol-Kelvin
 Total                  103.780             37.729            103.975
 Electronic               0.000              0.000              0.000
 Translational            0.889              2.981             40.409
 Rotational               0.889              2.981             29.606
 Vibrational            102.002             31.768             33.961
 Vibration     1          0.594              1.981              5.202
 Vibration     2          0.596              1.975              4.558
 Vibration     3          0.599              1.967              4.082
 Vibration     4          0.605              1.944              3.335
 Vibration     5          0.630              1.864              2.308
 Vibration     6          0.634              1.853              2.221
 Vibration     7          0.664              1.759              1.716
 Vibration     8          0.670              1.741              1.644
 Vibration     9          0.681              1.707              1.523
 Vibration    10          0.704              1.640              1.323
 Vibration    11          0.713              1.614              1.257
 Vibration    12          0.766              1.471              0.963
 Vibration    13          0.767              1.469              0.960
 Vibration    14          0.892              1.169              0.572
 Vibration    15          0.935              1.078              0.488
 Vibration    16          0.965              1.018              0.439

 Normal termination of Gaussian 09 at Tue Jan 28 09:53:53 2020.
