 Gaussian 09, Revision D.01,
 Gaussian 09:  ES64L-G09RevD.01 24-Apr-2013

 -----------------------------
 # b3lyp 6-31G(2df,p) opt Freq
 -----------------------------

 -----
 titel
 -----
 Symbolic Z-matrix:
 Charge =  0 Multiplicity = 1

 SCF Done:  E(RB3LYP) =  -423.137870296     A.U. after   13 cycles
 Optimization completed.
    -- Stationary point found.
 Normal termination of Gaussian 09 at Tue Jan 28 02:57:01 2020.

 ----------------------------------------------------------------------
 #N Geom=AllCheck Guess=TCheck SCRF=Check GenChk RB3LYP/6-31G(2df,p) Fr
 eq
 ----------------------------------------------------------------------

 Structure from the checkpoint file:  "/scratch/puck/g09_95ebab05-ce65-4dd0-a575-90964a4b0823/Gau-89741.chk"
 -----
 titel
 -----
 Charge =  0 Multiplicity = 1

                         Standard orientation:
 ---------------------------------------------------------------------
 Center     Atomic      Atomic             Coordinates (Angstroms)
 Number     Number       Type             X           Y           Z
 ---------------------------------------------------------------------
      1          8           0       -2.007093    0.148453    1.187718
      2          6           0       -1.463328    0.093472   -0.109494
      3          6           0       -1.056887   -1.281993   -0.721692
      4          6           0        0.381339   -0.759840   -0.977256
      5          6           0        1.313552   -1.082521    0.175729
      6          6           0        2.294159    0.026288    0.415006
      7          6           0        0.890017    0.189528    0.929473
      8          6           0       -0.013049    0.602897   -0.212123
      9          8           0        0.196818    1.911657   -0.652060
     10          1           0       -2.891892   -0.229488    1.164916
     11          1           0       -2.092634    0.654844   -0.821935
     12          1           0       -1.107929   -2.106919   -0.006160
     13          1           0       -1.619770   -1.555310   -1.617305
     14          1           0        0.763055   -0.796867   -1.999599
     15          1           0        1.448811   -2.073157    0.595039
     16          1           0        3.038846   -0.171145    1.179218
     17          1           0        2.646255    0.644137   -0.405966
     18          1           0        0.659586    0.318007    1.978660
     19          1           0       -0.436950    2.108029   -1.350003
 ---------------------------------------------------------------------

 SCF Done:  E(RB3LYP) =  -423.137870296     A.U. after    1 cycles

 The electronic state is 1-A.
 Alpha  occ. eigenvalues --  -19.13855 -19.13721 -10.23163 -10.23140 -10.18647
 Alpha  occ. eigenvalues --  -10.18292 -10.18111 -10.17838 -10.17822  -1.02896
 Alpha  occ. eigenvalues --   -1.01526  -0.89308  -0.79518  -0.67143  -0.65428
 Alpha  occ. eigenvalues --   -0.59447  -0.57646  -0.52944  -0.51593  -0.49855
 Alpha  occ. eigenvalues --   -0.49519  -0.44189  -0.42349  -0.39752  -0.38662
 Alpha  occ. eigenvalues --   -0.37502  -0.36548  -0.34368  -0.33359  -0.30584
 Alpha  occ. eigenvalues --   -0.27172  -0.26856  -0.26021  -0.23955
 Alpha virt. eigenvalues --    0.07055   0.07876   0.10739   0.11562   0.11747
 Alpha virt. eigenvalues --    0.13097   0.14406   0.16110   0.16637   0.17753
 Alpha virt. eigenvalues --    0.18708   0.19906   0.20865   0.22593   0.23982

 Mulliken charges:
               1
     1  O   -0.430010
     2  C    0.058370
     3  C   -0.277472
     4  C   -0.132273
     5  C   -0.029041
     6  C   -0.309614
     7  C   -0.062531
     8  C    0.396362
     9  O   -0.484346
    10  H    0.284718
    11  H    0.049675
    12  H    0.100388
    13  H    0.093208
    14  H    0.062516
    15  H    0.082903
    16  H    0.108620
    17  H    0.117132
    18  H    0.096593
    19  H    0.274802
 Sum of Mulliken charges =   0.00000

 Dipole moment (field-independent basis, Debye):
    X=             -1.7918    Y=             -1.2800    Z=             -1.2801  Tot=              2.5471
 Quadrupole moment (field-independent basis, Debye-Ang):
   XX=            -47.1118   YY=            -55.1199   ZZ=            -51.5658
   XY=             -0.6129   XZ=              2.7134   YZ=             -3.2761

  Exact polarizability:  83.536   0.389  71.195   3.592  -0.362  69.772
 Approx polarizability: 111.728  -0.095 109.614   2.171   1.230 106.933

                      1                      2                      3
                      A                      A                      A
 Frequencies --     98.0941               214.0883               232.9046
 Red. masses --      3.6597                 2.8353                 2.5373
 Frc consts  --      0.0207                 0.0766                 0.0811
 IR Inten    --      0.2660                 3.9788                16.7149

                      4                      5                      6
                      A                      A                      A
 Frequencies --    239.0134               291.0532               323.6682
 Red. masses --      1.1386                 2.4847                 1.5423
 Frc consts  --      0.0383                 0.1240                 0.0952
 IR Inten    --     75.0003                11.7950                81.2594

                      7                      8                      9
                      A                      A                      A
 Frequencies --    346.7547               457.5002               486.4527
 Red. masses --      2.9012                 3.2402                 2.7614
 Frc consts  --      0.2055                 0.3996                 0.3850
 IR Inten    --     25.7936                 0.7322                 1.9142

                     10                     11                     12
                      A                      A                      A
 Frequencies --    558.2476               593.6985               652.8349
 Red. masses --      4.1718                 3.4184                 3.5789
 Frc consts  --      0.7660                 0.7099                 0.8987
 IR Inten    --      7.5489                 2.2746                 8.1379

                     13                     14                     15
                      A                      A                      A
 Frequencies --    763.1642               792.5908               814.3523
 Red. masses --      2.1384                 2.0310                 1.9156
 Frc consts  --      0.7338                 0.7517                 0.7485
 IR Inten    --      1.8189                 3.0669                11.2483

                     16                     17                     18
                      A                      A                      A
 Frequencies --    904.0030               923.5593               932.5333
 Red. masses --      2.1174                 2.2176                 1.9245
 Frc consts  --      1.0195                 1.1145                 0.9860
 IR Inten    --     13.4657                10.7841                 4.1033

                     19                     20                     21
                      A                      A                      A
 Frequencies --    949.8046              1006.6142              1025.7806
 Red. masses --      2.6119                 1.7597                 1.8962
 Frc consts  --      1.3883                 1.0506                 1.1755
 IR Inten    --      4.6444                11.2351                 3.2313

                     22                     23                     24
                      A                      A                      A
 Frequencies --   1052.4675              1065.3283              1076.7791
 Red. masses --      1.6347                 1.4854                 1.6148
 Frc consts  --      1.0669                 0.9932                 1.1031
 IR Inten    --     12.3239                 8.5873                20.7374

                     25                     26                     27
                      A                      A                      A
 Frequencies --   1087.7395              1094.2603              1107.3650
 Red. masses --      1.6450                 2.0159                 1.4939
 Frc consts  --      1.1467                 1.4222                 1.0794
 IR Inten    --      4.0564                43.3072                 4.2540

                     28                     29                     30
                      A                      A                      A
 Frequencies --   1135.8414              1159.3863              1188.6309
 Red. masses --      2.8403                 1.5550                 1.9018
 Frc consts  --      2.1590                 1.2315                 1.5831
 IR Inten    --     81.1449                15.3058                 5.7653

                     31                     32                     33
                      A                      A                      A
 Frequencies --   1201.6693              1245.7889              1257.0418
 Red. masses --      1.2681                 1.5676                 2.0945
 Frc consts  --      1.0789                 1.4334                 1.9500
 IR Inten    --      4.9363                40.0598               132.6256

                     34                     35                     36
                      A                      A                      A
 Frequencies --   1262.7189              1304.9080              1323.4276
 Red. masses --      1.4651                 1.5098                 1.5713
 Frc consts  --      1.3763                 1.5147                 1.6214
 IR Inten    --     10.2276                20.4647                18.9561

                     37                     38                     39
                      A                      A                      A
 Frequencies --   1349.6359              1406.0855              1427.1448
 Red. masses --      2.3042                 2.2004                 1.5183
 Frc consts  --      2.4729                 2.5632                 1.8220
 IR Inten    --     16.5066                13.4771                10.7562

                     40                     41                     42
                      A                      A                      A
 Frequencies --   1478.4751              1490.5039              2940.9246
 Red. masses --      1.1254                 1.2111                 1.0838
 Frc consts  --      1.4494                 1.5852                 5.5231
 IR Inten    --      6.3554                 2.3951                74.4469

                     43                     44                     45
                      A                      A                      A
 Frequencies --   3057.7680              3084.1730              3113.1219
 Red. masses --      1.0585                 1.0890                 1.1074
 Frc consts  --      5.8309                 6.1031                 6.3234
 IR Inten    --     33.0465                34.5411                34.5769

                     46                     47                     48
                      A                      A                      A
 Frequencies --   3121.7864              3171.5954              3201.3238
 Red. masses --      1.0546                 1.0917                 1.1020
 Frc consts  --      6.0555                 6.4700                 6.6540
 IR Inten    --     18.0573                20.3911                 2.9491

                     49                     50                     51
                      A                      A                      A
 Frequencies --   3211.3075              3806.2796              3817.1223
 Red. masses --      1.1065                 1.0657                 1.0662
 Frc consts  --      6.7233                 9.0968                 9.1529
 IR Inten    --     16.6691                12.7425                21.7514

 - Thermochemistry -
 -------------------
 Temperature   298.150 Kelvin.  Pressure   1.00000 Atm.
 Atom     1 has atomic number  8 and mass  15.99491

 Molecular mass:   126.06808 amu.
 Principal axes and moments of inertia in atomic units:
                           1         2         3
     Eigenvalues --   709.091851116.539521276.91544
           X            0.99953   0.00917   0.02927
           Y           -0.00883   0.99989  -0.01195
           Z           -0.02938   0.01169   0.99950
 This molecule is an asymmetric top.
 Rotational symmetry number  1.
 Warning -- assumption of classical behavior for rotation
           may cause significant error
 Rotational temperatures (Kelvin)      0.12215     0.07757     0.06783
 Rotational constants (GHZ):           2.54514     1.61637     1.41336
 Zero-point vibrational energy     417779.7 (Joules/Mol)
                                   99.85175 (Kcal/Mol)
 Warning -- explicit consideration of  11 degrees of freedom as
           vibrations may cause significant error
 Vibrational temperatures:    141.14   308.02   335.10   343.89   418.76
          (Kelvin)            465.69   498.90   658.24   699.90   803.19
                              854.20   939.28  1098.02  1140.36  1171.67
                             1300.66  1328.79  1341.71  1366.56  1448.29
                             1475.87  1514.26  1532.77  1549.24  1565.01
                             1574.39  1593.25  1634.22  1668.10  1710.17
                             1728.93  1792.41  1808.60  1816.77  1877.47
                             1904.11  1941.82  2023.04  2053.34  2127.19
                             2144.50  4231.33  4399.44  4437.43  4479.08
                             4491.55  4563.21  4605.99  4620.35  5476.38
                             5491.98

 Zero-point correction=                           0.159124 (Hartree/Particle)
 Thermal correction to Energy=                    0.167249
 Thermal correction to Enthalpy=                  0.168193
 Thermal correction to Gibbs Free Energy=         0.126908
 Sum of electronic and zero-point Energies=           -422.978746
 Sum of electronic and thermal Energies=              -422.970622
 Sum of electronic and thermal Enthalpies=            -422.969678
 Sum of electronic and thermal Free Energies=         -423.010963

                     E (Thermal)             CV                S
                      KCal/Mol        Cal/Mol-Kelvin    Cal/Mol-Kelvin
 Total                  104.950             32.462             86.892
 Electronic               0.000              0.000              0.000
 Translational            0.889              2.981             40.409
 Rotational               0.889              2.981             28.404
 Vibrational            103.173             26.501             18.079
 Vibration     1          0.604              1.951              3.492
 Vibration     2          0.644              1.820              2.009
 Vibration     3          0.654              1.791              1.856
 Vibration     4          0.657              1.781              1.810
 Vibration     5          0.687              1.690              1.468
 Vibration     6          0.708              1.628              1.292
 Vibration     7          0.725              1.582              1.181
 Vibration     8          0.816              1.344              0.773
 Vibration     9          0.842              1.280              0.693
 Vibration    10          0.914              1.122              0.527
 Vibration    11          0.951              1.045              0.461

 Normal termination of Gaussian 09 at Tue Jan 28 03:52:40 2020.
