 Gaussian 09, Revision D.01,
 Gaussian 09:  ES64L-G09RevD.01 24-Apr-2013

 -----------------------------
 # b3lyp 6-31G(2df,p) opt Freq
 -----------------------------

 -----
 titel
 -----
 Symbolic Z-matrix:
 Charge =  0 Multiplicity = 1

 SCF Done:  E(RB3LYP) =  -423.145987829     A.U. after   13 cycles
 Optimization completed.
    -- Stationary point found.
 Normal termination of Gaussian 09 at Mon Jan 27 22:01:10 2020.

 ----------------------------------------------------------------------
 #N Geom=AllCheck Guess=TCheck SCRF=Check GenChk RB3LYP/6-31G(2df,p) Fr
 eq
 ----------------------------------------------------------------------

 Structure from the checkpoint file:  "/scratch/puck/g09_42fc406f-b1f5-4071-a961-409b98ff0193/Gau-98603.chk"
 -----
 titel
 -----
 Charge =  0 Multiplicity = 1

                         Standard orientation:
 ---------------------------------------------------------------------
 Center     Atomic      Atomic             Coordinates (Angstroms)
 Number     Number       Type             X           Y           Z
 ---------------------------------------------------------------------
      1          6           0       -0.000395    2.193802   -0.386822
      2          6           0       -0.000084    0.701391   -0.682112
      3          6           0        1.012005   -0.221379    0.093091
      4          8           0        2.336534    0.190475    0.192711
      5          6           0        0.000072   -0.202842    1.296766
      6          6           0       -1.011903   -0.221644    0.093129
      7          8           0       -2.336504    0.189955    0.192786
      8          6           0       -0.667472   -1.585331   -0.531798
      9          6           0        0.667875   -1.585164   -0.531818
     10          1           0       -0.887178    2.659339   -0.828421
     11          1           0        0.001630    2.430371    0.679310
     12          1           0        0.884050    2.660425   -0.831930
     13          1           0       -0.000120    0.534164   -1.762685
     14          1           0        2.804147   -0.421174    0.771240
     15          1           0        0.000210   -1.068371    1.964397
     16          1           0       -0.000069    0.732659    1.858686
     17          1           0       -2.804074   -0.421956    0.771071
     18          1           0       -1.378346   -2.311117   -0.904117
     19          1           0        1.378927   -2.310768   -0.904148
 ---------------------------------------------------------------------

 SCF Done:  E(RB3LYP) =  -423.145987829     A.U. after    1 cycles

 The electronic state is 1-A.
 Alpha  occ. eigenvalues --  -19.14319 -19.14319 -10.24167 -10.24166 -10.18432
 Alpha  occ. eigenvalues --  -10.17807 -10.17719 -10.17637 -10.16608  -1.03174
 Alpha  occ. eigenvalues --   -1.02621  -0.88354  -0.74774  -0.69974  -0.64909
 Alpha  occ. eigenvalues --   -0.63081  -0.55340  -0.54728  -0.52129  -0.48207
 Alpha  occ. eigenvalues --   -0.45322  -0.43888  -0.41009  -0.40745  -0.38655
 Alpha  occ. eigenvalues --   -0.38618  -0.37840  -0.35194  -0.34358  -0.31228
 Alpha  occ. eigenvalues --   -0.28990  -0.28276  -0.24638  -0.23043
 Alpha virt. eigenvalues --    0.00969   0.07300   0.08426   0.11421   0.12164
 Alpha virt. eigenvalues --    0.14384   0.15480   0.15688   0.17061   0.17964
 Alpha virt. eigenvalues --    0.19053   0.20016   0.22171   0.22606   0.22654

 Mulliken charges:
               1
     1  C   -0.433553
     2  C   -0.015366
     3  C    0.369932
     4  O   -0.489860
     5  C   -0.364938
     6  C    0.369980
     7  O   -0.489864
     8  C   -0.168522
     9  C   -0.168498
    10  H    0.125503
    11  H    0.118149
    12  H    0.125435
    13  H    0.071436
    14  H    0.279827
    15  H    0.082211
    16  H    0.103643
    17  H    0.279831
    18  H    0.102327
    19  H    0.102329
 Sum of Mulliken charges =   0.00000

 Dipole moment (field-independent basis, Debye):
    X=             -0.0002    Y=             -1.8962    Z=              1.3169  Tot=              2.3086
 Quadrupole moment (field-independent basis, Debye-Ang):
   XX=            -51.5295   YY=            -51.8575   ZZ=            -51.7883
   XY=              0.0005   XZ=              0.0012   YZ=             -0.9212

  Exact polarizability:  81.953   0.000  79.520  -0.001   1.170  64.937
 Approx polarizability: 131.020   0.003 109.660   0.000   0.940  99.609

                      1                      2                      3
                      A                      A                      A
 Frequencies --    156.7543               191.2541               210.5238
 Red. masses --      1.0789                 2.0652                 2.1440
 Frc consts  --      0.0156                 0.0445                 0.0560
 IR Inten    --      0.6042                 0.8573                26.0142

                      4                      5                      6
                      A                      A                      A
 Frequencies --    219.0634               239.2680               284.2318
 Red. masses --      1.1939                 1.4535                 4.7411
 Frc consts  --      0.0338                 0.0490                 0.2257
 IR Inten    --     12.5024               107.1404                35.3877

                      7                      8                      9
                      A                      A                      A
 Frequencies --    375.7299               393.9968               446.6493
 Red. masses --      3.3030                 3.5746                 3.1299
 Frc consts  --      0.2747                 0.3269                 0.3679
 IR Inten    --     19.7549                 0.7485                 6.8406

                     10                     11                     12
                      A                      A                      A
 Frequencies --    475.0830               556.2088               564.9964
 Red. masses --      2.0008                 3.1638                 2.8198
 Frc consts  --      0.2661                 0.5767                 0.5303
 IR Inten    --      3.3529                 2.0983                 1.4113

                     13                     14                     15
                      A                      A                      A
 Frequencies --    611.5570               662.7236               663.7766
 Red. masses --      4.7908                 4.9410                 1.5201
 Frc consts  --      1.0557                 1.2786                 0.3946
 IR Inten    --      0.0998                16.0934                31.4346

                     16                     17                     18
                      A                      A                      A
 Frequencies --    687.7910               814.4280               846.7977
 Red. masses --      3.0824                 2.5369                 2.9033
 Frc consts  --      0.8591                 0.9914                 1.2266
 IR Inten    --      0.4883                 5.7439                12.8890

                     19                     20                     21
                      A                      A                      A
 Frequencies --    894.0361               898.4585               945.7930
 Red. masses --      1.3808                 2.6580                 1.9825
 Frc consts  --      0.6503                 1.2642                 1.0448
 IR Inten    --      2.6545                 5.6034                 0.2795

                     22                     23                     24
                      A                      A                      A
 Frequencies --   1020.9316              1041.7608              1048.3088
 Red. masses --      2.3595                 1.4489                 1.2721
 Frc consts  --      1.4490                 0.9265                 0.8237
 IR Inten    --     12.5843                 0.0669                 1.2135

                     25                     26                     27
                      A                      A                      A
 Frequencies --   1066.6830              1094.0464              1116.6527
 Red. masses --      1.5403                 1.8013                 2.4595
 Frc consts  --      1.0326                 1.2703                 1.8069
 IR Inten    --      2.0843                92.2154                 7.3906

                     28                     29                     30
                      A                      A                      A
 Frequencies --   1153.2454              1156.7267              1202.9325
 Red. masses --      2.7280                 1.4834                 1.7888
 Frc consts  --      2.1377                 1.1694                 1.5251
 IR Inten    --      1.4152                 2.1545               118.6168

                     31                     32                     33
                      A                      A                      A
 Frequencies --   1234.8299              1306.3147              1311.1351
 Red. masses --      1.6707                 2.4779                 1.6154
 Frc consts  --      1.5010                 2.4914                 1.6362
 IR Inten    --     73.7689                32.8209               137.8155

                     34                     35                     36
                      A                      A                      A
 Frequencies --   1349.6368              1362.1270              1394.1463
 Red. masses --      2.0719                 1.6370                 1.7775
 Frc consts  --      2.2236                 1.7895                 2.0355
 IR Inten    --     41.2854                 3.6829                 2.0086

                     37                     38                     39
                      A                      A                      A
 Frequencies --   1407.5250              1487.8105              1492.6189
 Red. masses --      1.2548                 1.1328                 1.0498
 Frc consts  --      1.4647                 1.4774                 1.3780
 IR Inten    --      4.2411                 2.0208                 7.6512

                     40                     41                     42
                      A                      A                      A
 Frequencies --   1506.5396              1625.0009              3043.4140
 Red. masses --      1.1044                 6.2579                 1.0368
 Frc consts  --      1.4768                 9.7361                 5.6580
 IR Inten    --      7.4012                 0.8531                20.1952

                     43                     44                     45
                      A                      A                      A
 Frequencies --   3060.5228              3069.5371              3106.4615
 Red. masses --      1.0623                 1.0806                 1.1011
 Frc consts  --      5.8628                 5.9988                 6.2606
 IR Inten    --     48.5148                 4.4620                15.6794

                     46                     47                     48
                      A                      A                      A
 Frequencies --   3121.9997              3137.9054              3203.7215
 Red. masses --      1.1026                 1.1040                 1.0857
 Frc consts  --      6.3320                 6.4050                 6.5656
 IR Inten    --     35.1444                31.4212                 5.2841

                     49                     50                     51
                      A                      A                      A
 Frequencies --   3231.9612              3808.5627              3808.6959
 Red. masses --      1.1110                 1.0659                 1.0658
 Frc consts  --      6.8378                 9.1097                 9.1092
 IR Inten    --      8.8847                25.1852                20.4865

 - Thermochemistry -
 -------------------
 Temperature   298.150 Kelvin.  Pressure   1.00000 Atm.
 Atom     1 has atomic number  6 and mass  12.00000

 Molecular mass:   126.06808 amu.
 Principal axes and moments of inertia in atomic units:
                           1         2         3
     Eigenvalues --   753.510761007.442361397.18553
           X            1.00000  -0.00003   0.00001
           Y            0.00003   0.99997  -0.00817
           Z           -0.00001   0.00817   0.99997
 This molecule is an asymmetric top.
 Rotational symmetry number  1.
 Warning -- assumption of classical behavior for rotation
           may cause significant error
 Rotational temperatures (Kelvin)      0.11495     0.08597     0.06199
 Rotational constants (GHZ):           2.39511     1.79141     1.29170
 Zero-point vibrational energy     413374.8 (Joules/Mol)
                                   98.79896 (Kcal/Mol)
 Warning -- explicit consideration of  13 degrees of freedom as
           vibrations may cause significant error
 Vibrational temperatures:    225.53   275.17   302.90   315.18   344.25
          (Kelvin)            408.95   540.59   566.87   642.63   683.54
                              800.26   812.90   879.89   953.51   955.03
                              989.58  1171.78  1218.35  1286.32  1292.68
                             1360.78  1468.89  1498.86  1508.28  1534.72
                             1574.09  1606.61  1659.26  1664.27  1730.75
                             1776.64  1879.49  1886.43  1941.82  1959.79
                             2005.86  2025.11  2140.62  2147.54  2167.57
                             2338.01  4378.79  4403.40  4416.37  4469.50
                             4491.86  4514.74  4609.43  4650.07  5479.67
                             5479.86

 Zero-point correction=                           0.157446 (Hartree/Particle)
 Thermal correction to Energy=                    0.166167
 Thermal correction to Enthalpy=                  0.167112
 Thermal correction to Gibbs Free Energy=         0.125008
 Sum of electronic and zero-point Energies=           -422.988542
 Sum of electronic and thermal Energies=              -422.979820
 Sum of electronic and thermal Enthalpies=            -422.978876
 Sum of electronic and thermal Free Energies=         -423.020980

                     E (Thermal)             CV                S
                      KCal/Mol        Cal/Mol-Kelvin    Cal/Mol-Kelvin
 Total                  104.272             34.815             88.614
 Electronic               0.000              0.000              0.000
 Translational            0.889              2.981             40.409
 Rotational               0.889              2.981             28.452
 Vibrational            102.494             28.853             19.754
 Vibration     1          0.620              1.895              2.589
 Vibration     2          0.634              1.852              2.216
 Vibration     3          0.643              1.825              2.039
 Vibration     4          0.647              1.812              1.967
 Vibration     5          0.657              1.780              1.808
 Vibration     6          0.683              1.703              1.508
 Vibration     7          0.747              1.522              1.056
 Vibration     8          0.761              1.483              0.985
 Vibration     9          0.806              1.368              0.806
 Vibration    10          0.832              1.305              0.723
 Vibration    11          0.912              1.126              0.531
 Vibration    12          0.921              1.107              0.514
 Vibration    13          0.971              1.007              0.430

 Normal termination of Gaussian 09 at Mon Jan 27 22:47:39 2020.
