 Gaussian 09, Revision D.01,
 Gaussian 09:  ES64L-G09RevD.01 24-Apr-2013

 -----------------------------
 # b3lyp 6-31G(2df,p) opt Freq
 -----------------------------

 -----
 titel
 -----
 Symbolic Z-matrix:
 Charge =  0 Multiplicity = 1

 SCF Done:  E(RB3LYP) =  -423.185453450     A.U. after   14 cycles
 Optimization completed.
    -- Stationary point found.
 Normal termination of Gaussian 09 at Tue Jan 28 02:08:48 2020.

 ----------------------------------------------------------------------
 #N Geom=AllCheck Guess=TCheck SCRF=Check GenChk RB3LYP/6-31G(2df,p) Fr
 eq
 ----------------------------------------------------------------------

 Structure from the checkpoint file:  "/scratch/puck/g09_9fcd485a-db83-4a4b-b664-ebb5cf5dfaad/Gau-4831.chk"
 -----
 titel
 -----
 Charge =  0 Multiplicity = 1

                         Standard orientation:
 ---------------------------------------------------------------------
 Center     Atomic      Atomic             Coordinates (Angstroms)
 Number     Number       Type             X           Y           Z
 ---------------------------------------------------------------------
      1          6           0       -3.147581    0.627677    0.192778
      2          6           0       -1.935539   -0.027851   -0.430377
      3          6           0       -1.481067   -1.393420    0.016694
      4          6           0       -0.651473   -0.175697    0.355499
      5          6           0        0.705026    0.033808   -0.313157
      6          6           0        1.075546    1.507900   -0.276591
      7          8           0        2.092049    1.945046    0.198093
      8          6           0        1.764418   -0.828609    0.356757
      9          8           0        2.294641   -1.769137   -0.173222
     10          1           0       -3.105423    1.718437    0.100521
     11          1           0       -4.070062    0.286025   -0.288905
     12          1           0       -3.221928    0.385985    1.258193
     13          1           0       -1.808095    0.178165   -1.490616
     14          1           0       -2.023658   -1.872160    0.824913
     15          1           0       -1.086665   -2.080504   -0.724142
     16          1           0       -0.689526    0.154158    1.391355
     17          1           0        0.635684   -0.273664   -1.364995
     18          1           0        0.306468    2.179144   -0.720981
     19          1           0        1.993701   -0.545697    1.406074
 ---------------------------------------------------------------------

 SCF Done:  E(RB3LYP) =  -423.185453450     A.U. after    1 cycles

 The electronic state is 1-A.
 Alpha  occ. eigenvalues --  -19.15501 -19.14466 -10.28610 -10.27587 -10.21750
 Alpha  occ. eigenvalues --  -10.21498 -10.21150 -10.20005 -10.19224  -1.06284
 Alpha  occ. eigenvalues --   -1.05098  -0.88652  -0.78800  -0.72135  -0.63190
 Alpha  occ. eigenvalues --   -0.60793  -0.58608  -0.56664  -0.50818  -0.49383
 Alpha  occ. eigenvalues --   -0.47331  -0.46146  -0.43738  -0.42399  -0.42027
 Alpha  occ. eigenvalues --   -0.41149  -0.39626  -0.38501  -0.36914  -0.36094
 Alpha  occ. eigenvalues --   -0.31123  -0.30346  -0.27030  -0.24573
 Alpha virt. eigenvalues --   -0.03651  -0.02630   0.07753   0.08932   0.10931
 Alpha virt. eigenvalues --    0.11433   0.12546   0.13395   0.14954   0.15094
 Alpha virt. eigenvalues --    0.15957   0.17619   0.18077   0.21058   0.22931

 Mulliken charges:
               1
     1  C   -0.410751
     2  C    0.001648
     3  C   -0.295208
     4  C   -0.026074
     5  C   -0.208258
     6  C    0.149062
     7  O   -0.237528
     8  C    0.179253
     9  O   -0.250539
    10  H    0.121971
    11  H    0.125741
    12  H    0.119042
    13  H    0.090120
    14  H    0.119419
    15  H    0.128331
    16  H    0.098076
    17  H    0.114658
    18  H    0.088599
    19  H    0.092439
 Sum of Mulliken charges =   0.00000

 Dipole moment (field-independent basis, Debye):
    X=             -3.9220    Y=              0.5752    Z=             -0.0829  Tot=              3.9648
 Quadrupole moment (field-independent basis, Debye-Ang):
   XX=            -61.4421   YY=            -60.1108   ZZ=            -50.4598
   XY=              0.4705   XZ=             -0.1221   YZ=             -2.3496

  Exact polarizability:  91.108  -2.177  77.965   3.408   1.294  63.741
 Approx polarizability: 121.537  -1.595 115.426   6.670   6.882 101.699

                      1                      2                      3
                      A                      A                      A
 Frequencies --     48.1897                56.4675                65.4059
 Red. masses --      5.4267                 4.6980                 3.4208
 Frc consts  --      0.0074                 0.0088                 0.0086
 IR Inten    --      3.0223                 6.9181                 0.7988

                      4                      5                      6
                      A                      A                      A
 Frequencies --    125.4015               195.3605               219.3423
 Red. masses --      3.1828                 1.7059                 1.4618
 Frc consts  --      0.0295                 0.0384                 0.0414
 IR Inten    --      3.4443                 1.5605                 3.1042

                      7                      8                      9
                      A                      A                      A
 Frequencies --    239.1594               298.6176               331.5245
 Red. masses --      2.4823                 3.0804                 3.8388
 Frc consts  --      0.0837                 0.1618                 0.2486
 IR Inten    --      5.4266                 1.2897                 2.7159

                     10                     11                     12
                      A                      A                      A
 Frequencies --    362.7815               436.0064               517.4606
 Red. masses --      2.4373                 2.3856                 3.4891
 Frc consts  --      0.1890                 0.2672                 0.5505
 IR Inten    --      3.3431                 1.3884                12.8560

                     13                     14                     15
                      A                      A                      A
 Frequencies --    657.4462               794.5633               808.2662
 Red. masses --      4.4680                 2.2341                 1.8516
 Frc consts  --      1.1379                 0.8310                 0.7127
 IR Inten    --      9.8579                 2.0469                 1.4519

                     16                     17                     18
                      A                      A                      A
 Frequencies --    862.5537               885.8030               900.5959
 Red. masses --      2.5683                 1.4096                 1.5266
 Frc consts  --      1.1258                 0.6516                 0.7295
 IR Inten    --     23.1301                 4.2563                 1.0890

                     19                     20                     21
                      A                      A                      A
 Frequencies --    964.5929              1014.0157              1029.7736
 Red. masses --      1.9702                 1.4361                 2.1780
 Frc consts  --      1.0801                 0.8700                 1.3608
 IR Inten    --      8.8048                10.4747                15.4563

                     22                     23                     24
                      A                      A                      A
 Frequencies --   1069.1478              1085.7147              1109.5997
 Red. masses --      1.4374                 2.4258                 1.3249
 Frc consts  --      0.9681                 1.6847                 0.9611
 IR Inten    --      2.0043                 0.9196                11.4111

                     25                     26                     27
                      A                      A                      A
 Frequencies --   1117.4762              1135.5419              1166.3951
 Red. masses --      2.3616                 1.4135                 2.1793
 Frc consts  --      1.7375                 1.0738                 1.7468
 IR Inten    --     33.5641                 2.3651                 0.9940

                     28                     29                     30
                      A                      A                      A
 Frequencies --   1201.4493              1218.1181              1253.8304
 Red. masses --      1.7403                 1.4540                 1.5232
 Frc consts  --      1.4801                 1.2712                 1.4108
 IR Inten    --      1.3131                 0.0761                 4.9867

                     31                     32                     33
                      A                      A                      A
 Frequencies --   1282.8924              1351.7592              1411.2822
 Red. masses --      1.6751                 1.2988                 1.1892
 Frc consts  --      1.6243                 1.3983                 1.3955
 IR Inten    --      9.4854                11.0011                 4.5829

                     34                     35                     36
                      A                      A                      A
 Frequencies --   1417.2502              1427.7701              1435.6685
 Red. masses --      1.2215                 1.3834                 1.4365
 Frc consts  --      1.4456                 1.6616                 1.7444
 IR Inten    --      4.8209                 2.0564                 0.4205

                     37                     38                     39
                      A                      A                      A
 Frequencies --   1490.2502              1493.8119              1503.6419
 Red. masses --      1.1549                 1.1240                 1.1531
 Frc consts  --      1.5112                 1.4778                 1.5360
 IR Inten    --      6.0265                 1.7688                 4.1860

                     40                     41                     42
                      A                      A                      A
 Frequencies --   1819.9060              1839.2858              2879.8550
 Red. masses --     10.6749                10.0436                 1.0837
 Frc consts  --     20.8312                20.0188                 5.2953
 IR Inten    --    166.4172               170.6538                98.3263

                     43                     44                     45
                      A                      A                      A
 Frequencies --   2908.4895              3029.2962              3035.9835
 Red. masses --      1.0840                 1.0352                 1.0821
 Frc consts  --      5.4025                 5.5971                 5.8764
 IR Inten    --     72.5895                30.1212                 4.7711

                     46                     47                     48
                      A                      A                      A
 Frequencies --   3093.8711              3097.5403              3129.6035
 Red. masses --      1.1014                 1.0996                 1.0811
 Frc consts  --      6.2114                 6.2162                 6.2387
 IR Inten    --     21.9632                14.7992                 5.3484

                     49                     50                     51
                      A                      A                      A
 Frequencies --   3134.6910              3137.6867              3219.7506
 Red. masses --      1.0618                 1.0874                 1.1165
 Frc consts  --      6.1475                 6.3074                 6.8195
 IR Inten    --      5.1443                27.0910                 6.7964

 - Thermochemistry -
 -------------------
 Temperature   298.150 Kelvin.  Pressure   1.00000 Atm.
 Atom     1 has atomic number  6 and mass  12.00000

 Molecular mass:   126.06808 amu.
 Principal axes and moments of inertia in atomic units:
                           1         2         3
     Eigenvalues --   754.266791700.733002309.35615
           X            0.99995  -0.01024  -0.00146
           Y            0.01023   0.99991  -0.00856
           Z            0.00154   0.00854   0.99996
 This molecule is an asymmetric top.
 Rotational symmetry number  1.
 Warning -- assumption of classical behavior for rotation
           may cause significant error
 Rotational temperatures (Kelvin)      0.11483     0.05093     0.03751
 Rotational constants (GHZ):           2.39271     1.06115     0.78149
 Zero-point vibrational energy     408589.8 (Joules/Mol)
                                   97.65531 (Kcal/Mol)
 Warning -- explicit consideration of  12 degrees of freedom as
           vibrations may cause significant error
 Vibrational temperatures:     69.33    81.24    94.10   180.42   281.08
          (Kelvin)            315.58   344.10   429.64   476.99   521.96
                              627.32   744.51   945.92  1143.20  1162.91
                             1241.02  1274.47  1295.75  1387.83  1458.94
                             1481.61  1538.26  1562.10  1596.46  1607.80
                             1633.79  1678.18  1728.62  1752.60  1803.98
                             1845.79  1944.88  2030.52  2039.10  2054.24
                             2065.60  2144.13  2149.26  2163.40  2618.44
                             2646.32  4143.46  4184.66  4358.48  4368.10
                             4451.38  4456.66  4502.80  4510.12  4514.43
                             4632.50

 Zero-point correction=                           0.155624 (Hartree/Particle)
 Thermal correction to Energy=                    0.165670
 Thermal correction to Enthalpy=                  0.166614
 Thermal correction to Gibbs Free Energy=         0.119114
 Sum of electronic and zero-point Energies=           -423.029830
 Sum of electronic and thermal Energies=              -423.019783
 Sum of electronic and thermal Enthalpies=            -423.018839
 Sum of electronic and thermal Free Energies=         -423.066339

                     E (Thermal)             CV                S
                      KCal/Mol        Cal/Mol-Kelvin    Cal/Mol-Kelvin
 Total                  103.960             34.733             99.972
 Electronic               0.000              0.000              0.000
 Translational            0.889              2.981             40.409
 Rotational               0.889              2.981             29.473
 Vibrational            102.182             28.772             30.091
 Vibration     1          0.595              1.978              4.890
 Vibration     2          0.596              1.975              4.577
 Vibration     3          0.597              1.971              4.287
 Vibration     4          0.610              1.928              3.015
 Vibration     5          0.636              1.846              2.176
 Vibration     6          0.647              1.812              1.965
 Vibration     7          0.657              1.781              1.809
 Vibration     8          0.692              1.676              1.425
 Vibration     9          0.714              1.613              1.253
 Vibration    10          0.737              1.549              1.110
 Vibration    11          0.796              1.392              0.839
 Vibration    12          0.872              1.211              0.616

 Optimization completed.
    -- Stationary point found.
 Normal termination of Gaussian 09 at Tue Jan 28 02:46:22 2020.
