 Gaussian 09, Revision D.01,
 Gaussian 09:  ES64L-G09RevD.01 24-Apr-2013

 -----------------------------
 # b3lyp 6-31G(2df,p) opt Freq
 -----------------------------

 -----
 titel
 -----
 Symbolic Z-matrix:
 Charge =  0 Multiplicity = 1

 SCF Done:  E(RB3LYP) =  -423.183069216     A.U. after   14 cycles
 Optimization completed.
    -- Stationary point found.
 Normal termination of Gaussian 09 at Tue Jan 28 00:05:01 2020.

 ----------------------------------------------------------------------
 #N Geom=AllCheck Guess=TCheck SCRF=Check GenChk RB3LYP/6-31G(2df,p) Fr
 eq
 ----------------------------------------------------------------------

 Structure from the checkpoint file:  "/scratch/puck/g09_ae4355ad-5ca4-4c78-a8cf-a2b300a86b31/Gau-58700.chk"
 -----
 titel
 -----
 Charge =  0 Multiplicity = 1

                         Standard orientation:
 ---------------------------------------------------------------------
 Center     Atomic      Atomic             Coordinates (Angstroms)
 Number     Number       Type             X           Y           Z
 ---------------------------------------------------------------------
      1          6           0       -0.065159    2.323414   -0.194529
      2          6           0       -0.686119    0.985339   -0.532888
      3          6           0       -1.548083    0.319696    0.527371
      4          6           0       -2.199769   -0.945490   -0.048562
      5          6           0       -0.775550   -1.519902   -0.370832
      6          6           0       -0.177593   -0.229983    0.179648
      7          8           0        0.976503   -0.187267    0.988086
      8          6           0        2.146295   -0.384136    0.348903
      9          8           0        2.286340   -0.595009   -0.822262
     10          1           0        0.196470    2.386222    0.865641
     11          1           0        0.849636    2.486756   -0.773954
     12          1           0       -0.757534    3.140672   -0.420256
     13          1           0       -0.979286    0.872769   -1.577028
     14          1           0       -1.871665    0.865209    1.405576
     15          1           0       -2.730193   -1.541637    0.696408
     16          1           0       -2.859260   -0.782920   -0.906512
     17          1           0       -0.537018   -2.384740    0.252234
     18          1           0       -0.537717   -1.750780   -1.412119
     19          1           0        2.959698   -0.326965    1.088745
 ---------------------------------------------------------------------

 SCF Done:  E(RB3LYP) =  -423.183069216     A.U. after    1 cycles

 The electronic state is 1-A.
 Alpha  occ. eigenvalues --  -19.19395 -19.13541 -10.30988 -10.24688 -10.19661
 Alpha  occ. eigenvalues --  -10.19448 -10.19109 -10.18885 -10.18125  -1.10917
 Alpha  occ. eigenvalues --   -1.02578  -0.90183  -0.76190  -0.69565  -0.67797
 Alpha  occ. eigenvalues --   -0.63393  -0.56773  -0.52722  -0.51279  -0.48881
 Alpha  occ. eigenvalues --   -0.48394  -0.45074  -0.43895  -0.42591  -0.40309
 Alpha  occ. eigenvalues --   -0.38379  -0.37417  -0.37193  -0.35024  -0.33547
 Alpha  occ. eigenvalues --   -0.32011  -0.28674  -0.26735  -0.25722
 Alpha virt. eigenvalues --    0.00592   0.09577   0.10374   0.11066   0.11496
 Alpha virt. eigenvalues --    0.13231   0.14317   0.14626   0.15908   0.17017
 Alpha virt. eigenvalues --    0.17220   0.18594   0.19156   0.20082   0.22826

 Mulliken charges:
               1
     1  C   -0.432601
     2  C   -0.047906
     3  C   -0.162997
     4  C   -0.234585
     5  C   -0.296731
     6  C    0.480531
     7  O   -0.253452
     8  C    0.150757
     9  O   -0.297044
    10  H    0.123254
    11  H    0.130089
    12  H    0.120003
    13  H    0.081674
    14  H    0.094904
    15  H    0.108269
    16  H    0.102439
    17  H    0.111246
    18  H    0.113551
    19  H    0.108601
 Sum of Mulliken charges =   0.00000

 Dipole moment (field-independent basis, Debye):
    X=             -1.2511    Y=              0.4188    Z=              1.2562  Tot=              1.8218
 Quadrupole moment (field-independent basis, Debye-Ang):
   XX=            -53.3839   YY=            -51.4824   ZZ=            -54.3884
   XY=              1.5193   XZ=              4.2717   YZ=             -1.2522

  Exact polarizability:  85.663   1.411  75.766  -0.357   0.555  67.223
 Approx polarizability: 115.191  -1.794 101.198  -5.074   1.959 113.340

                      1                      2                      3
                      A                      A                      A
 Frequencies --     46.5188               142.1274               189.4090
 Red. masses --      6.4982                 3.6385                 2.9371
 Frc consts  --      0.0083                 0.0433                 0.0621
 IR Inten    --      1.1430                 2.1349                 3.6935

                      4                      5                      6
                      A                      A                      A
 Frequencies --    210.1318               218.8932               256.9083
 Red. masses --      1.1061                 2.3858                 2.2417
 Frc consts  --      0.0288                 0.0674                 0.0872
 IR Inten    --      0.2001                 3.0168                 1.7473

                      7                      8                      9
                      A                      A                      A
 Frequencies --    278.3286               380.8665               418.7368
 Red. masses --      2.4238                 2.8797                 3.5516
 Frc consts  --      0.1106                 0.2461                 0.3669
 IR Inten    --      6.5453                 1.2019                 8.7404

                     10                     11                     12
                      A                      A                      A
 Frequencies --    527.0078               614.4621               700.3614
 Red. masses --      3.5763                 4.9857                 3.2744
 Frc consts  --      0.5852                 1.1091                 0.9463
 IR Inten    --      5.1381                 3.4360                 3.4494

                     13                     14                     15
                      A                      A                      A
 Frequencies --    763.2139               798.1405               858.7651
 Red. masses --      1.7643                 2.2769                 2.5183
 Frc consts  --      0.6055                 0.8546                 1.0942
 IR Inten    --      3.0107                 5.5648                 4.9323

                     16                     17                     18
                      A                      A                      A
 Frequencies --    921.7985               928.2294               950.7599
 Red. masses --      1.7248                 2.0434                 2.3703
 Frc consts  --      0.8635                 1.0373                 1.2624
 IR Inten    --      1.2709                 0.3600                10.8242

                     19                     20                     21
                      A                      A                      A
 Frequencies --    992.7604              1014.6820              1042.7285
 Red. masses --      1.5429                 1.3170                 1.6535
 Frc consts  --      0.8960                 0.7989                 1.0593
 IR Inten    --      3.2379                 2.7189                 0.5978

                     22                     23                     24
                      A                      A                      A
 Frequencies --   1064.6102              1081.9868              1118.5455
 Red. masses --      1.7372                 2.7754                 1.9621
 Frc consts  --      1.1600                 1.9143                 1.4463
 IR Inten    --      3.5134                 4.0678                 2.0539

                     25                     26                     27
                      A                      A                      A
 Frequencies --   1140.4154              1152.6268              1182.6529
 Red. masses --      2.0055                 1.6483                 4.5577
 Frc consts  --      1.5367                 1.2902                 3.7558
 IR Inten    --     12.5253                 7.9487               266.8037

                     28                     29                     30
                      A                      A                      A
 Frequencies --   1210.8113              1218.3341              1233.9704
 Red. masses --      1.8649                 1.1783                 1.6037
 Frc consts  --      1.6109                 1.0305                 1.4388
 IR Inten    --     38.0838                12.1026                 7.8531

                     31                     32                     33
                      A                      A                      A
 Frequencies --   1244.8338              1286.2092              1331.6336
 Red. masses --      1.8952                 1.7010                 1.6610
 Frc consts  --      1.7304                 1.6580                 1.7354
 IR Inten    --     43.4599                12.7880                46.5762

                     34                     35                     36
                      A                      A                      A
 Frequencies --   1408.3914              1417.6239              1435.0687
 Red. masses --      1.1835                 1.2921                 2.6536
 Frc consts  --      1.3831                 1.5299                 3.2198
 IR Inten    --      0.7107                 1.9160                13.2384

                     37                     38                     39
                      A                      A                      A
 Frequencies --   1480.0770              1493.6440              1500.6024
 Red. masses --      1.0866                 1.0476                 1.1040
 Frc consts  --      1.4024                 1.3770                 1.4647
 IR Inten    --      0.2488                 3.7969                 0.9218

                     40                     41                     42
                      A                      A                      A
 Frequencies --   1510.8029              1826.2141              3030.2417
 Red. masses --      1.1438                 9.6519                 1.0906
 Frc consts  --      1.5382                18.9655                 5.9004
 IR Inten    --     10.7232               234.2972                70.8919

                     43                     44                     45
                      A                      A                      A
 Frequencies --   3036.1251              3054.3267              3066.6410
 Red. masses --      1.0356                 1.0597                 1.0593
 Frc consts  --      5.6243                 5.8243                 5.8694
 IR Inten    --     31.4248                44.2857                32.9733

                     46                     47                     48
                      A                      A                      A
 Frequencies --   3092.8795              3098.8717              3106.9295
 Red. masses --      1.0893                 1.1016                 1.1071
 Frc consts  --      6.1391                 6.2327                 6.2963
 IR Inten    --      7.1496                20.6382                 3.7877

                     49                     50                     51
                      A                      A                      A
 Frequencies --   3115.8799              3125.6082              3188.0111
 Red. masses --      1.0995                 1.1069                 1.0931
 Frc consts  --      6.2895                 6.3710                 6.5453
 IR Inten    --     26.9887                34.4581                11.7328

 - Thermochemistry -
 -------------------
 Temperature   298.150 Kelvin.  Pressure   1.00000 Atm.
 Atom     1 has atomic number  6 and mass  12.00000

 Molecular mass:   126.06808 amu.
 Principal axes and moments of inertia in atomic units:
                           1         2         3
     Eigenvalues --   741.166261189.000631589.30449
           X            0.99903   0.04182   0.01384
           Y           -0.04180   0.99913  -0.00116
           Z           -0.01387   0.00059   0.99990
 This molecule is an asymmetric top.
 Rotational symmetry number  1.
 Warning -- assumption of classical behavior for rotation
           may cause significant error
 Rotational temperatures (Kelvin)      0.11686     0.07285     0.05450
 Rotational constants (GHZ):           2.43500     1.51786     1.13555
 Zero-point vibrational energy     415758.5 (Joules/Mol)
                                   99.36867 (Kcal/Mol)
 Warning -- explicit consideration of  11 degrees of freedom as
           vibrations may cause significant error
 Vibrational temperatures:     66.93   204.49   272.52   302.33   314.94
          (Kelvin)            369.63   400.45   547.98   602.47   758.25
                              884.07  1007.66  1098.09  1148.34  1235.57
                             1326.26  1335.51  1367.93  1428.36  1459.90
                             1500.25  1531.73  1556.74  1609.34  1640.80
                             1658.37  1701.57  1742.09  1752.91  1775.41
                             1791.04  1850.57  1915.92  2026.36  2039.64
                             2064.74  2129.50  2149.02  2159.03  2173.71
                             2627.51  4359.84  4368.30  4394.49  4412.21
                             4449.96  4458.58  4470.17  4483.05  4497.05
                             4586.83

 Zero-point correction=                           0.158354 (Hartree/Particle)
 Thermal correction to Energy=                    0.167095
 Thermal correction to Enthalpy=                  0.168039
 Thermal correction to Gibbs Free Energy=         0.124570
 Sum of electronic and zero-point Energies=           -423.024715
 Sum of electronic and thermal Energies=              -423.015975
 Sum of electronic and thermal Enthalpies=            -423.015030
 Sum of electronic and thermal Free Energies=         -423.058500

                     E (Thermal)             CV                S
                      KCal/Mol        Cal/Mol-Kelvin    Cal/Mol-Kelvin
 Total                  104.853             32.380             91.489
 Electronic               0.000              0.000              0.000
 Translational            0.889              2.981             40.409
 Rotational               0.889              2.981             28.728
 Vibrational            103.076             26.419             22.352
 Vibration     1          0.595              1.979              4.960
 Vibration     2          0.616              1.911              2.775
 Vibration     3          0.633              1.854              2.234
 Vibration     4          0.642              1.825              2.043
 Vibration     5          0.647              1.812              1.968
 Vibration     6          0.666              1.751              1.683
 Vibration     7          0.679              1.714              1.544
 Vibration     8          0.751              1.511              1.036
 Vibration     9          0.782              1.430              0.896
 Vibration    10          0.882              1.190              0.594
 Vibration    11          0.974              1.001              0.425

 Optimization completed.
    -- Stationary point found.
 Normal termination of Gaussian 09 at Tue Jan 28 00:51:03 2020.
