 Gaussian 09, Revision D.01,
 Gaussian 09:  ES64L-G09RevD.01 24-Apr-2013

 -----------------------------
 # b3lyp 6-31G(2df,p) opt Freq
 -----------------------------

 -----
 titel
 -----
 Symbolic Z-matrix:
 Charge =  0 Multiplicity = 1

 SCF Done:  E(RB3LYP) =  -423.160934233     A.U. after   14 cycles
 Optimization completed.
    -- Stationary point found.
 Normal termination of Gaussian 09 at Tue Jan 28 08:13:21 2020.

 ----------------------------------------------------------------------
 #N Geom=AllCheck Guess=TCheck SCRF=Check GenChk RB3LYP/6-31G(2df,p) Fr
 eq
 ----------------------------------------------------------------------

 Structure from the checkpoint file:  "/scratch/puck/g09_f400a886-be55-4031-ae96-5dc352c619a7/Gau-92071.chk"
 -----
 titel
 -----
 Charge =  0 Multiplicity = 1

                         Standard orientation:
 ---------------------------------------------------------------------
 Center     Atomic      Atomic             Coordinates (Angstroms)
 Number     Number       Type             X           Y           Z
 ---------------------------------------------------------------------
      1          6           0       -3.539648   -0.182732    0.041360
      2          6           0       -2.166997   -0.822624   -0.144650
      3          6           0       -1.015258    0.167516   -0.052029
      4          8           0       -1.193841    1.357939    0.123623
      5          6           0        0.354366   -0.404859   -0.164568
      6          6           0        1.433235    0.559758   -0.654737
      7          6           0        2.775629   -0.161190   -0.638377
      8          8           0        2.590563   -0.534136    0.760265
      9          6           0        1.377553    0.202822    0.790888
     10          1           0       -3.712043    0.593589   -0.708204
     11          1           0       -4.330820   -0.932598   -0.045597
     12          1           0       -3.618628    0.292364    1.022522
     13          1           0       -1.989090   -1.614345    0.596643
     14          1           0       -2.090745   -1.327063   -1.118671
     15          1           0        0.443433   -1.465563   -0.382877
     16          1           0        1.171310    1.479600   -1.156876
     17          1           0        2.904640   -1.033194   -1.289057
     18          1           0        3.632251    0.513273   -0.739143
     19          1           0        1.102641    0.751363    1.682828
 ---------------------------------------------------------------------

 SCF Done:  E(RB3LYP) =  -423.160934233     A.U. after    1 cycles

 The electronic state is 1-A.
 Alpha  occ. eigenvalues --  -19.14944 -19.12376 -10.26738 -10.25331 -10.24613
 Alpha  occ. eigenvalues --  -10.20846 -10.20285 -10.19414 -10.17563  -1.06494
 Alpha  occ. eigenvalues --   -1.03439  -0.84594  -0.77875  -0.71400  -0.67664
 Alpha  occ. eigenvalues --   -0.61029  -0.56081  -0.54795  -0.50566  -0.49306
 Alpha  occ. eigenvalues --   -0.46929  -0.46020  -0.44371  -0.42044  -0.40463
 Alpha  occ. eigenvalues --   -0.38553  -0.37329  -0.36269  -0.34844  -0.34531
 Alpha  occ. eigenvalues --   -0.32940  -0.28938  -0.25393  -0.23784
 Alpha virt. eigenvalues --   -0.01286   0.07709   0.09377   0.10845   0.11767
 Alpha virt. eigenvalues --    0.12608   0.13093   0.14219   0.15553   0.16756
 Alpha virt. eigenvalues --    0.16972   0.18458   0.19176   0.20330   0.21673

 Mulliken charges:
               1
     1  C   -0.377925
     2  C   -0.291052
     3  C    0.370657
     4  O   -0.338268
     5  C   -0.171185
     6  C   -0.123764
     7  C   -0.109230
     8  O   -0.288426
     9  C    0.127274
    10  H    0.132166
    11  H    0.109281
    12  H    0.131046
    13  H    0.124786
    14  H    0.123376
    15  H    0.093009
    16  H    0.125368
    17  H    0.112514
    18  H    0.121761
    19  H    0.128610
 Sum of Mulliken charges =   0.00000

 Dipole moment (field-independent basis, Debye):
    X=              0.1033    Y=             -1.4181    Z=             -1.3662  Tot=              1.9719
 Quadrupole moment (field-independent basis, Debye-Ang):
   XX=            -53.2809   YY=            -55.6511   ZZ=            -51.6777
   XY=              5.8081   XZ=             -3.7999   YZ=              0.8310

  Exact polarizability: 102.069   0.883  68.765  -3.240   1.841  62.848
 Approx polarizability: 123.550  -3.060 113.048  -0.935   1.837 100.654

                      1                      2                      3
                      A                      A                      A
 Frequencies --     53.3307                79.9308               133.0723
 Red. masses --      3.7220                 1.8189                 3.6956
 Frc consts  --      0.0062                 0.0068                 0.0386
 IR Inten    --      1.1301                 2.4876                 1.2938

                      4                      5                      6
                      A                      A                      A
 Frequencies --    163.8478               205.4531               270.4815
 Red. masses --      2.2787                 1.5555                 3.7099
 Frc consts  --      0.0360                 0.0387                 0.1599
 IR Inten    --      2.9578                 0.5871                11.7362

                      7                      8                      9
                      A                      A                      A
 Frequencies --    317.1311               347.5467               414.0282
 Red. masses --      4.0055                 2.6051                 5.0346
 Frc consts  --      0.2373                 0.1854                 0.5085
 IR Inten    --      1.2384                 4.8388                 2.2755

                     10                     11                     12
                      A                      A                      A
 Frequencies --    561.4910               665.6417               746.2108
 Red. masses --      2.0091                 3.3795                 3.4608
 Frc consts  --      0.3732                 0.8822                 1.1354
 IR Inten    --      0.6516                 3.0634                 8.8128

                     13                     14                     15
                      A                      A                      A
 Frequencies --    801.5841               817.2669               893.2175
 Red. masses --      1.5541                 1.6935                 3.1624
 Frc consts  --      0.5883                 0.6665                 1.4865
 IR Inten    --      4.9456                 3.4483                34.4370

                     16                     17                     18
                      A                      A                      A
 Frequencies --    899.5986               926.2198               952.5784
 Red. masses --      3.5700                 2.4041                 2.5294
 Frc consts  --      1.7022                 1.2151                 1.3523
 IR Inten    --     10.9915                35.6902                24.9290

                     19                     20                     21
                      A                      A                      A
 Frequencies --    977.0162              1010.1118              1016.1211
 Red. masses --      3.1193                 1.7237                 2.0982
 Frc consts  --      1.7543                 1.0362                 1.2764
 IR Inten    --    111.2147                 3.7043                13.6762

                     22                     23                     24
                      A                      A                      A
 Frequencies --   1033.6464              1052.6425              1069.8147
 Red. masses --      1.1270                 2.2090                 2.0578
 Frc consts  --      0.7095                 1.4422                 1.3876
 IR Inten    --     11.7979                55.2068                41.1610

                     25                     26                     27
                      A                      A                      A
 Frequencies --   1091.4366              1094.5140              1134.0447
 Red. masses --      1.6784                 1.8173                 2.0150
 Frc consts  --      1.1780                 1.2827                 1.5268
 IR Inten    --      2.5250                 1.7201                59.0300

                     28                     29                     30
                      A                      A                      A
 Frequencies --   1156.2098              1206.5755              1235.4625
 Red. masses --      1.1860                 2.0608                 1.3467
 Frc consts  --      0.9341                 1.7676                 1.2111
 IR Inten    --     11.2781                 4.5683                 9.2100

                     31                     32                     33
                      A                      A                      A
 Frequencies --   1276.2277              1279.1895              1329.9862
 Red. masses --      1.3654                 1.4752                 1.5929
 Frc consts  --      1.3103                 1.4222                 1.6601
 IR Inten    --      2.5368                 4.2286                14.7530

                     34                     35                     36
                      A                      A                      A
 Frequencies --   1371.4902              1404.5966              1414.1285
 Red. masses --      1.8703                 2.6199                 1.2276
 Frc consts  --      2.0727                 3.0454                 1.4464
 IR Inten    --      5.3552               131.4253                 5.3347

                     37                     38                     39
                      A                      A                      A
 Frequencies --   1452.0785              1491.6129              1497.7615
 Red. masses --      1.0913                 1.0384                 1.0512
 Frc consts  --      1.3558                 1.3613                 1.3894
 IR Inten    --      8.4103                 5.3254                 8.6047

                     40                     41                     42
                      A                      A                      A
 Frequencies --   1511.0859              1773.1280              3013.3608
 Red. masses --      1.1071                10.7002                 1.0612
 Frc consts  --      1.4895                19.8209                 5.6772
 IR Inten    --      0.8079               117.1849                19.8031

                     43                     44                     45
                      A                      A                      A
 Frequencies --   3034.4201              3040.0120              3051.7475
 Red. masses --      1.0550                 1.0979                 1.0354
 Frc consts  --      5.7233                 5.9780                 5.6813
 IR Inten    --     66.7813                 9.3406                21.8932

                     46                     47                     48
                      A                      A                      A
 Frequencies --   3087.6167              3122.6956              3127.7639
 Red. masses --      1.1117                 1.1020                 1.1016
 Frc consts  --      6.2443                 6.3311                 6.3495
 IR Inten    --     28.2680                20.7775                19.0741

                     49                     50                     51
                      A                      A                      A
 Frequencies --   3146.7507              3201.3977              3227.4693
 Red. masses --      1.0893                 1.0918                 1.0967
 Frc consts  --      6.3551                 6.5928                 6.7307
 IR Inten    --      9.1267                 8.0398                 1.5020

 - Thermochemistry -
 -------------------
 Temperature   298.150 Kelvin.  Pressure   1.00000 Atm.
 Atom     1 has atomic number  6 and mass  12.00000

 Molecular mass:   126.06808 amu.
 Principal axes and moments of inertia in atomic units:
                           1         2         3
     Eigenvalues --   352.094802166.385022252.56429
           X            0.99983   0.01561  -0.00975
           Y           -0.01499   0.99805   0.06061
           Z            0.01067  -0.06046   0.99811
 This molecule is an asymmetric top.
 Rotational symmetry number  1.
 Rotational temperatures (Kelvin)      0.24600     0.03998     0.03845
 Rotational constants (GHZ):           5.12573     0.83307     0.80119
 Zero-point vibrational energy     413792.8 (Joules/Mol)
                                   98.89884 (Kcal/Mol)
 Warning -- explicit consideration of  10 degrees of freedom as
           vibrations may cause significant error
 Vibrational temperatures:     76.73   115.00   191.46   235.74   295.60
          (Kelvin)            389.16   456.28   500.04   595.69   807.86
                              957.71  1073.63  1153.30  1175.86  1285.14
                             1294.32  1332.62  1370.55  1405.71  1453.32
                             1461.97  1487.18  1514.52  1539.22  1570.33
                             1574.76  1631.64  1663.53  1735.99  1777.55
                             1836.20  1840.47  1913.55  1973.27  2020.90
                             2034.61  2089.21  2146.10  2154.94  2174.11
                             2551.13  4335.55  4365.85  4373.89  4390.78
                             4442.39  4492.86  4500.15  4527.47  4606.09
                             4643.60

 Zero-point correction=                           0.157605 (Hartree/Particle)
 Thermal correction to Energy=                    0.166565
 Thermal correction to Enthalpy=                  0.167510
 Thermal correction to Gibbs Free Energy=         0.123096
 Sum of electronic and zero-point Energies=           -423.003329
 Sum of electronic and thermal Energies=              -422.994369
 Sum of electronic and thermal Enthalpies=            -422.993425
 Sum of electronic and thermal Free Energies=         -423.037838

                     E (Thermal)             CV                S
                      KCal/Mol        Cal/Mol-Kelvin    Cal/Mol-Kelvin
 Total                  104.521             32.522             93.476
 Electronic               0.000              0.000              0.000
 Translational            0.889              2.981             40.409
 Rotational               0.889              2.981             28.931
 Vibrational            102.744             26.560             24.136
 Vibration     1          0.596              1.976              4.690
 Vibration     2          0.600              1.963              3.893
 Vibration     3          0.613              1.920              2.901
 Vibration     4          0.623              1.887              2.505
 Vibration     5          0.640              1.832              2.084
 Vibration     6          0.674              1.728              1.593
 Vibration     7          0.704              1.641              1.325
 Vibration     8          0.725              1.580              1.177
 Vibration     9          0.778              1.440              0.912
 Vibration    10          0.917              1.115              0.521

 Optimization completed.
    -- Stationary point found.
 Normal termination of Gaussian 09 at Tue Jan 28 08:51:28 2020.
