 Gaussian 09, Revision D.01,
 Gaussian 09:  ES64L-G09RevD.01 24-Apr-2013

 -----------------------------
 # b3lyp 6-31G(2df,p) opt Freq
 -----------------------------

 -----
 titel
 -----
 Symbolic Z-matrix:
 Charge =  0 Multiplicity = 1

 SCF Done:  E(RB3LYP) =  -423.185867227     A.U. after   14 cycles
 Optimization completed.
    -- Stationary point found.
 Normal termination of Gaussian 09 at Tue Jan 28 12:07:54 2020.

 ----------------------------------------------------------------------
 #N Geom=AllCheck Guess=TCheck SCRF=Check GenChk RB3LYP/6-31G(2df,p) Fr
 eq
 ----------------------------------------------------------------------

 Structure from the checkpoint file:  "/scratch/puck/g09_446e2b1d-3198-4439-9d26-2b3480199d5c/Gau-1505.chk"
 -----
 titel
 -----
 Charge =  0 Multiplicity = 1

                         Standard orientation:
 ---------------------------------------------------------------------
 Center     Atomic      Atomic             Coordinates (Angstroms)
 Number     Number       Type             X           Y           Z
 ---------------------------------------------------------------------
      1          6           0       -3.893586    0.510710   -0.308385
      2          6           0       -2.593806    0.166105    0.422092
      3          6           0       -1.419050   -0.025582   -0.537779
      4          6           0       -0.118972   -0.343178    0.168441
      5          8           0        0.050849   -0.364770    1.359797
      6          8           0        0.856092   -0.610183   -0.738868
      7          6           0        2.164979   -0.880386   -0.199303
      8          6           0        2.965605    0.331051   -0.083388
      9          6           0        3.638019    1.322050    0.005861
     10          1           0       -3.795307    1.439949   -0.880884
     11          1           0       -4.179240   -0.280252   -1.010990
     12          1           0       -4.718795    0.641514    0.397867
     13          1           0       -2.341877    0.953337    1.140078
     14          1           0       -2.724885   -0.745935    1.014588
     15          1           0       -1.616883   -0.825636   -1.261489
     16          1           0       -1.251445    0.875519   -1.142135
     17          1           0        2.057818   -1.361451    0.776633
     18          1           0        2.625621   -1.581194   -0.900742
     19          1           0        4.230337    2.199156    0.094414
 ---------------------------------------------------------------------

 SCF Done:  E(RB3LYP) =  -423.185867227     A.U. after    1 cycles

 The electronic state is 1-A.
 Alpha  occ. eigenvalues --  -19.18515 -19.12890 -10.30720 -10.26468 -10.19714
 Alpha  occ. eigenvalues --  -10.18964 -10.18445 -10.18379 -10.17700  -1.10243
 Alpha  occ. eigenvalues --   -1.01737  -0.80506  -0.78094  -0.72752  -0.69334
 Alpha  occ. eigenvalues --   -0.60955  -0.56966  -0.53608  -0.50799  -0.49790
 Alpha  occ. eigenvalues --   -0.47755  -0.47028  -0.43789  -0.42168  -0.41270
 Alpha  occ. eigenvalues --   -0.37533  -0.37168  -0.35235  -0.34422  -0.33402
 Alpha  occ. eigenvalues --   -0.31085  -0.28500  -0.27306  -0.27138
 Alpha virt. eigenvalues --    0.01243   0.02815   0.05033   0.08864   0.11731
 Alpha virt. eigenvalues --    0.12920   0.13498   0.13959   0.15104   0.16930
 Alpha virt. eigenvalues --    0.17174   0.18509   0.18581   0.19947   0.22617

 Mulliken charges:
               1
     1  C   -0.386579
     2  C   -0.158008
     3  C   -0.310903
     4  C    0.453756
     5  O   -0.349539
     6  O   -0.243367
     7  C   -0.221766
     8  C    0.326089
     9  C   -0.461341
    10  H    0.115055
    11  H    0.114228
    12  H    0.116996
    13  H    0.117034
    14  H    0.111451
    15  H    0.129719
    16  H    0.134832
    17  H    0.162354
    18  H    0.142984
    19  H    0.207002
 Sum of Mulliken charges =   0.00000

 Dipole moment (field-independent basis, Debye):
    X=             -0.1151    Y=             -0.0921    Z=             -1.4578  Tot=              1.4652
 Quadrupole moment (field-independent basis, Debye-Ang):
   XX=            -47.1347   YY=            -48.3793   ZZ=            -57.8458
   XY=              0.9915   XZ=              0.4693   YZ=              0.7963

  Exact polarizability:  99.528   8.088  72.422   0.204   1.365  63.935
 Approx polarizability: 114.784  18.538 116.029   0.515   3.476 104.910

                      1                      2                      3
                      A                      A                      A
 Frequencies --     17.0503                38.6608                53.0776
 Red. masses --      2.0760                 6.4838                 2.9331
 Frc consts  --      0.0004                 0.0057                 0.0049
 IR Inten    --      0.0736                 0.7552                 0.2671

                      4                      5                      6
                      A                      A                      A
 Frequencies --    108.2049               148.4372               237.5458
 Red. masses --      2.9560                 3.3344                 4.8134
 Frc consts  --      0.0204                 0.0433                 0.1600
 IR Inten    --      1.8274                 1.2028                 2.3514

                      7                      8                      9
                      A                      A                      A
 Frequencies --    248.0850               298.4611               326.2753
 Red. masses --      1.0875                 5.0761                 2.8149
 Frc consts  --      0.0394                 0.2664                 0.1766
 IR Inten    --      0.0205                 3.1197                 2.1806

                     10                     11                     12
                      A                      A                      A
 Frequencies --    339.5610               402.0784               563.3509
 Red. masses --      3.3569                 3.9037                 3.2089
 Frc consts  --      0.2280                 0.3718                 0.6000
 IR Inten    --     19.1900                 1.9164                 3.2114

                     13                     14                     15
                      A                      A                      A
 Frequencies --    606.0677               615.1420               683.1310
 Red. masses --      3.7003                 1.2166                 1.2606
 Frc consts  --      0.8008                 0.2712                 0.3466
 IR Inten    --      8.1006                46.5506                36.8742

                     16                     17                     18
                      A                      A                      A
 Frequencies --    697.4923               748.2278               878.2814
 Red. masses --      4.0506                 1.2164                 3.3788
 Frc consts  --      1.1611                 0.4012                 1.5356
 IR Inten    --      1.9496                 7.2381                 4.0789

                     19                     20                     21
                      A                      A                      A
 Frequencies --    883.6352               908.3733               951.7251
 Red. masses --      1.3914                 2.2699                 3.9008
 Frc consts  --      0.6401                 1.1035                 2.0817
 IR Inten    --      0.5346                 4.3910                12.7723

                     22                     23                     24
                      A                      A                      A
 Frequencies --   1014.3496              1044.8508              1055.2468
 Red. masses --      3.9187                 2.3645                 2.2842
 Frc consts  --      2.3756                 1.5209                 1.4987
 IR Inten    --     68.7736                14.1634                 0.6405

                     25                     26                     27
                      A                      A                      A
 Frequencies --   1123.1700              1126.0654              1176.6655
 Red. masses --      1.6374                 2.4684                 2.9489
 Frc consts  --      1.2170                 1.8441                 2.4056
 IR Inten    --      3.9406                46.4440               388.3338

                     28                     29                     30
                      A                      A                      A
 Frequencies --   1250.2139              1294.6999              1319.9107
 Red. masses --      1.3458                 1.1217                 1.2103
 Frc consts  --      1.2394                 1.1078                 1.2424
 IR Inten    --      0.5711                 7.0831                18.7010

                     31                     32                     33
                      A                      A                      A
 Frequencies --   1325.5121              1388.9575              1408.7504
 Red. masses --      1.3706                 1.3700                 1.6762
 Frc consts  --      1.4188                 1.5572                 1.9599
 IR Inten    --     37.9346                13.8417                41.7399

                     34                     35                     36
                      A                      A                      A
 Frequencies --   1415.1529              1456.2588              1466.4374
 Red. masses --      1.2403                 1.0795                 1.1023
 Frc consts  --      1.4635                 1.3488                 1.3967
 IR Inten    --      1.5605                 9.2157                25.8630

                     37                     38                     39
                      A                      A                      A
 Frequencies --   1488.8838              1501.0386              1509.3127
 Red. masses --      1.0555                 1.0402                 1.0776
 Frc consts  --      1.3786                 1.3808                 1.4463
 IR Inten    --      3.0327                 5.3186                 4.2400

                     40                     41                     42
                      A                      A                      A
 Frequencies --   1826.0022              2244.4678              3029.3604
 Red. masses --     11.5452                 5.8868                 1.0389
 Frc consts  --     22.6805                17.4727                 5.6175
 IR Inten    --    181.5539                 2.3653                24.2945

                     43                     44                     45
                      A                      A                      A
 Frequencies --   3032.4261              3050.2816              3060.6457
 Red. masses --      1.0586                 1.0608                 1.0974
 Frc consts  --      5.7351                 5.8150                 6.0566
 IR Inten    --      6.5469                22.2679                 2.4763

                     46                     47                     48
                      A                      A                      A
 Frequencies --   3063.2527              3079.7767              3102.8391
 Red. masses --      1.0562                 1.1012                 1.1032
 Frc consts  --      5.8393                 6.1538                 6.2581
 IR Inten    --     19.0796                 0.1335                53.9566

                     49                     50                     51
                      A                      A                      A
 Frequencies --   3106.4510              3110.8320              3505.4208
 Red. masses --      1.1002                 1.1059                 1.1637
 Frc consts  --      6.2555                 6.3056                 8.4254
 IR Inten    --     33.4058                 2.2370                60.8172

 - Thermochemistry -
 -------------------
 Temperature   298.150 Kelvin.  Pressure   1.00000 Atm.
 Atom     1 has atomic number  6 and mass  12.00000

 Molecular mass:   126.06808 amu.
 Principal axes and moments of inertia in atomic units:
                           1         2         3
     Eigenvalues --   406.648132763.863572780.68587
           X            0.99996  -0.00778   0.00498
           Y            0.00760   0.99932   0.03610
           Z           -0.00525  -0.03606   0.99934
 This molecule is an asymmetric top.
 Rotational symmetry number  1.
 Rotational temperatures (Kelvin)      0.21299     0.03134     0.03115
 Rotational constants (GHZ):           4.43809     0.65298     0.64903
 Zero-point vibrational energy     408704.7 (Joules/Mol)
                                   97.68278 (Kcal/Mol)
 Warning -- explicit consideration of  14 degrees of freedom as
           vibrations may cause significant error
 Vibrational temperatures:     24.53    55.62    76.37   155.68   213.57
          (Kelvin)            341.78   356.94   429.42   469.44   488.55
                              578.50   810.54   872.00   885.05   982.87
                             1003.53  1076.53  1263.65  1271.35  1306.94
                             1369.32  1459.42  1503.31  1518.26  1615.99
                             1620.15  1692.96  1798.78  1862.78  1899.05
                             1907.11  1998.40  2026.88  2036.09  2095.23
                             2109.87  2142.17  2159.66  2171.56  2627.21
                             3229.28  4358.57  4362.98  4388.67  4403.58
                             4407.33  4431.11  4464.29  4469.48  4475.79
                             5043.51

 Zero-point correction=                           0.155667 (Hartree/Particle)
 Thermal correction to Energy=                    0.166227
 Thermal correction to Enthalpy=                  0.167171
 Thermal correction to Gibbs Free Energy=         0.117381
 Sum of electronic and zero-point Energies=           -423.030200
 Sum of electronic and thermal Energies=              -423.019640
 Sum of electronic and thermal Enthalpies=            -423.018696
 Sum of electronic and thermal Free Energies=         -423.068487

                     E (Thermal)             CV                S
                      KCal/Mol        Cal/Mol-Kelvin    Cal/Mol-Kelvin
 Total                  104.309             36.294            104.793
 Electronic               0.000              0.000              0.000
 Translational            0.889              2.981             40.409
 Rotational               0.889              2.981             29.526
 Vibrational            102.532             30.333             34.859
 Vibration     1          0.593              1.986              6.951
 Vibration     2          0.594              1.981              5.327
 Vibration     3          0.596              1.976              4.699
 Vibration     4          0.606              1.943              3.301
 Vibration     5          0.618              1.904              2.692
 Vibration     6          0.656              1.783              1.821
 Vibration     7          0.662              1.766              1.744
 Vibration     8          0.692              1.677              1.426
 Vibration     9          0.710              1.623              1.278
 Vibration    10          0.719              1.596              1.214
 Vibration    11          0.768              1.466              0.955
 Vibration    12          0.919              1.111              0.517
 Vibration    13          0.965              1.019              0.439
 Vibration    14          0.975              1.000              0.424

 Normal termination of Gaussian 09 at Tue Jan 28 12:46:19 2020.
