 Gaussian 09, Revision D.01,
 Gaussian 09:  ES64L-G09RevD.01 24-Apr-2013

 -----------------------------
 # b3lyp 6-31G(2df,p) opt Freq
 -----------------------------

 -----
 titel
 -----
 Symbolic Z-matrix:
 Charge =  0 Multiplicity = 1

 SCF Done:  E(RB3LYP) =  -423.220291889     A.U. after   13 cycles
 Optimization completed.
    -- Stationary point found.
 Normal termination of Gaussian 09 at Mon Jan 27 11:19:39 2020.

 ----------------------------------------------------------------------
 #N Geom=AllCheck Guess=TCheck SCRF=Check GenChk RB3LYP/6-31G(2df,p) Fr
 eq
 ----------------------------------------------------------------------

 Structure from the checkpoint file:  "/scratch/puck/g09_725d21e4-61b0-4587-9957-352cc8aba4b8/Gau-164684.chk"
 -----
 titel
 -----
 Charge =  0 Multiplicity = 1

                         Standard orientation:
 ---------------------------------------------------------------------
 Center     Atomic      Atomic             Coordinates (Angstroms)
 Number     Number       Type             X           Y           Z
 ---------------------------------------------------------------------
      1          6           0       -1.058060    1.325339   -0.076237
      2          6           0       -1.195193    0.051297    0.772136
      3          6           0       -1.337697   -1.006856   -0.336211
      4          6           0       -0.055046   -0.678786   -1.116576
      5          8           0        1.011088   -1.238616   -0.327792
      6          6           0        1.179097   -0.275272    0.694286
      7          6           0        1.388398    1.003040   -0.124111
      8          6           0        0.116224    0.898510   -0.988281
      9          8           0        0.019493   -0.186338    1.515013
     10          1           0       -1.983505    1.507780   -0.632052
     11          1           0       -0.831779    2.215577    0.514773
     12          1           0       -1.997676    0.068785    1.511256
     13          1           0       -1.320820   -2.035423    0.026352
     14          1           0       -2.252286   -0.836713   -0.913636
     15          1           0        0.013789   -1.078959   -2.128284
     16          1           0        1.995958   -0.587960    1.345491
     17          1           0        1.426108    1.913600    0.476826
     18          1           0        2.310652    0.912193   -0.703480
     19          1           0        0.168567    1.417128   -1.945050
 ---------------------------------------------------------------------

 SCF Done:  E(RB3LYP) =  -423.220291889     A.U. after    1 cycles

 The electronic state is 1-A.
 Alpha  occ. eigenvalues --  -19.13669 -19.13570 -10.27049 -10.23334 -10.23164
 Alpha  occ. eigenvalues --  -10.19367 -10.18210 -10.17997 -10.17741  -1.07242
 Alpha  occ. eigenvalues --   -0.99444  -0.83314  -0.77709  -0.69657  -0.67063
 Alpha  occ. eigenvalues --   -0.63299  -0.56652  -0.54559  -0.53396  -0.46363
 Alpha  occ. eigenvalues --   -0.46023  -0.45244  -0.44032  -0.41401  -0.39297
 Alpha  occ. eigenvalues --   -0.39277  -0.37286  -0.35662  -0.33601  -0.32407
 Alpha  occ. eigenvalues --   -0.32294  -0.30238  -0.25765  -0.24676
 Alpha virt. eigenvalues --    0.08292   0.11452   0.12101   0.12879   0.13527
 Alpha virt. eigenvalues --    0.14662   0.15701   0.16355   0.16546   0.17361
 Alpha virt. eigenvalues --    0.18025   0.18596   0.19989   0.20874   0.21454

 Mulliken charges:
               1
     1  C   -0.224519
     2  C    0.108426
     3  C   -0.219506
     4  C    0.084659
     5  O   -0.264780
     6  C    0.198914
     7  C   -0.230243
     8  C   -0.075402
     9  O   -0.295600
    10  H    0.095357
    11  H    0.101072
    12  H    0.075657
    13  H    0.111858
    14  H    0.092321
    15  H    0.077102
    16  H    0.087298
    17  H    0.101981
    18  H    0.104663
    19  H    0.070745
 Sum of Mulliken charges =   0.00000

 Dipole moment (field-independent basis, Debye):
    X=             -0.8643    Y=              1.4164    Z=             -1.2076  Tot=              2.0522
 Quadrupole moment (field-independent basis, Debye-Ang):
   XX=            -50.3603   YY=            -54.5065   ZZ=            -54.0479
   XY=              1.7522   XZ=              1.1217   YZ=              0.1286

  Exact polarizability:  77.594   1.301  69.764   1.531   0.570  68.478
 Approx polarizability: 110.459  -1.584 102.817   2.958   1.276 105.826

                      1                      2                      3
                      A                      A                      A
 Frequencies --    317.8458               388.1454               421.7897
 Red. masses --      2.3216                 3.9167                 2.2515
 Frc consts  --      0.1382                 0.3477                 0.2360
 IR Inten    --      1.0925                 3.8835                 1.8160

                      4                      5                      6
                      A                      A                      A
 Frequencies --    475.4157               515.7374               561.4549
 Red. masses --      4.6679                 1.8459                 5.3917
 Frc consts  --      0.6216                 0.2893                 1.0014
 IR Inten    --      1.9013                 1.1643                 0.5925

                      7                      8                      9
                      A                      A                      A
 Frequencies --    585.7042               735.3054               799.4943
 Red. masses --      4.5785                 4.6353                 3.9148
 Frc consts  --      0.9254                 1.4766                 1.4743
 IR Inten    --      9.6812                 1.8568                 0.5543

                     10                     11                     12
                      A                      A                      A
 Frequencies --    800.9632               842.2003               852.7008
 Red. masses --      3.5655                 2.6734                 3.5704
 Frc consts  --      1.3477                 1.1173                 1.5295
 IR Inten    --     16.9439                 7.6676                 1.9233

                     13                     14                     15
                      A                      A                      A
 Frequencies --    873.6977               906.4846               914.6676
 Red. masses --      3.0286                 2.5624                 2.6262
 Frc consts  --      1.3621                 1.2406                 1.2945
 IR Inten    --      6.9838                24.0518                12.8046

                     16                     17                     18
                      A                      A                      A
 Frequencies --    921.5969               948.7134               960.7456
 Red. masses --      2.5598                 2.2320                 2.2143
 Frc consts  --      1.2810                 1.1836                 1.2042
 IR Inten    --      7.9224                 6.6175                27.0647

                     19                     20                     21
                      A                      A                      A
 Frequencies --    982.6545              1002.7968              1028.8242
 Red. masses --      2.3319                 1.6235                 1.6556
 Frc consts  --      1.3267                 0.9619                 1.0325
 IR Inten    --     12.1391                12.2509                20.1515

                     22                     23                     24
                      A                      A                      A
 Frequencies --   1039.8346              1090.4696              1106.4990
 Red. masses --      1.7740                 2.3927                 1.8619
 Frc consts  --      1.1301                 1.6764                 1.3431
 IR Inten    --     25.4772                77.7715                 6.3574

                     25                     26                     27
                      A                      A                      A
 Frequencies --   1141.4589              1169.2502              1192.5955
 Red. masses --      1.4492                 1.4478                 1.4068
 Frc consts  --      1.1125                 1.1662                 1.1789
 IR Inten    --     27.0904                37.2344                 5.3130

                     28                     29                     30
                      A                      A                      A
 Frequencies --   1227.5567              1232.4452              1260.0067
 Red. masses --      1.8595                 1.7761                 1.5609
 Frc consts  --      1.6510                 1.5895                 1.4601
 IR Inten    --      6.5329                 7.3013                 7.4081

                     31                     32                     33
                      A                      A                      A
 Frequencies --   1292.9535              1302.5609              1320.8807
 Red. masses --      1.3062                 1.4248                 1.4348
 Frc consts  --      1.2865                 1.4243                 1.4750
 IR Inten    --      3.3106                 4.1639                 9.8820

                     34                     35                     36
                      A                      A                      A
 Frequencies --   1333.2095              1344.6183              1349.9069
 Red. masses --      1.4485                 1.5439                 1.3627
 Frc consts  --      1.5170                 1.6446                 1.4630
 IR Inten    --      4.9593                 7.0058                 2.0841

                     37                     38                     39
                      A                      A                      A
 Frequencies --   1370.0604              1398.3029              1472.7237
 Red. masses --      1.4342                 1.3418                 1.1037
 Frc consts  --      1.5861                 1.5458                 1.4104
 IR Inten    --      7.9847                13.3304                 1.8821

                     40                     41                     42
                      A                      A                      A
 Frequencies --   1484.4086              1505.6388              3048.8521
 Red. masses --      1.1068                 1.0985                 1.0637
 Frc consts  --      1.4369                 1.4673                 5.8256
 IR Inten    --      5.1532                 3.5426                11.5735

                     43                     44                     45
                      A                      A                      A
 Frequencies --   3057.9941              3067.3399              3103.1351
 Red. masses --      1.0631                 1.0598                 1.0907
 Frc consts  --      5.8575                 5.8751                 6.1882
 IR Inten    --     34.8868                17.7128                60.2554

                     46                     47                     48
                      A                      A                      A
 Frequencies --   3105.3075              3107.1753              3116.4226
 Red. masses --      1.0898                 1.1010                 1.0880
 Frc consts  --      6.1917                 6.2627                 6.2256
 IR Inten    --     24.2105                13.6282                68.9196

                     49                     50                     51
                      A                      A                      A
 Frequencies --   3123.2640              3123.7096              3129.4667
 Red. masses --      1.0944                 1.1044                 1.1010
 Frc consts  --      6.2898                 6.3492                 6.3531
 IR Inten    --     21.5406                23.6564                15.4453

 - Thermochemistry -
 -------------------
 Temperature   298.150 Kelvin.  Pressure   1.00000 Atm.
 Atom     1 has atomic number  6 and mass  12.00000

 Molecular mass:   126.06808 amu.
 Principal axes and moments of inertia in atomic units:
                           1         2         3
     Eigenvalues --   716.35578 821.89754 864.59939
           X            0.99286   0.11521   0.03077
           Y           -0.11541   0.99331   0.00487
           Z           -0.03001  -0.00838   0.99951
 This molecule is an asymmetric top.
 Rotational symmetry number  1.
 Warning -- assumption of classical behavior for rotation
           may cause significant error
 Rotational temperatures (Kelvin)      0.12091     0.10538     0.10018
 Rotational constants (GHZ):           2.51934     2.19582     2.08737
 Zero-point vibrational energy     433377.1 (Joules/Mol)
                                  103.57960 (Kcal/Mol)
 Warning -- explicit consideration of   7 degrees of freedom as
           vibrations may cause significant error
 Vibrational temperatures:    457.31   558.45   606.86   684.02   742.03
          (Kelvin)            807.81   842.70  1057.94  1150.29  1152.41
                             1211.74  1226.84  1257.05  1304.23  1316.00
                             1325.97  1364.99  1382.30  1413.82  1442.80
                             1480.25  1496.09  1568.94  1592.00  1642.30
                             1682.29  1715.88  1766.18  1773.21  1812.87
                             1860.27  1874.09  1900.45  1918.19  1934.60
                             1942.21  1971.21  2011.84  2118.92  2135.73
                             2166.28  4386.61  4399.77  4413.21  4464.71
                             4467.84  4470.53  4483.83  4493.67  4494.32
                             4502.60

 Zero-point correction=                           0.165065 (Hartree/Particle)
 Thermal correction to Energy=                    0.170783
 Thermal correction to Enthalpy=                  0.171727
 Thermal correction to Gibbs Free Energy=         0.135409
 Sum of electronic and zero-point Energies=           -423.055227
 Sum of electronic and thermal Energies=              -423.049509
 Sum of electronic and thermal Enthalpies=            -423.048565
 Sum of electronic and thermal Free Energies=         -423.084883

                     E (Thermal)             CV                S
                      KCal/Mol        Cal/Mol-Kelvin    Cal/Mol-Kelvin
 Total                  107.168             25.791             76.438
 Electronic               0.000              0.000              0.000
 Translational            0.889              2.981             40.409
 Rotational               0.889              2.981             27.723
 Vibrational            105.391             19.829              8.307
 Vibration     1          0.704              1.639              1.321
 Vibration     2          0.756              1.496              1.007
 Vibration     3          0.784              1.423              0.886
 Vibration     4          0.832              1.305              0.723
 Vibration     5          0.871              1.215              0.620
 Vibration     6          0.917              1.115              0.521
 Vibration     7          0.943              1.062              0.475

 Optimization completed.
    -- Stationary point found.
 Normal termination of Gaussian 09 at Mon Jan 27 12:11:17 2020.
