 Gaussian 09, Revision D.01,
 Gaussian 09:  ES64L-G09RevD.01 24-Apr-2013

 -----------------------------
 # b3lyp 6-31G(2df,p) opt Freq
 -----------------------------

 -----
 titel
 -----
 Symbolic Z-matrix:
 Charge =  0 Multiplicity = 1

 SCF Done:  E(RB3LYP) =  -423.150009324     A.U. after   15 cycles
 Optimization completed.
    -- Stationary point found.
 Normal termination of Gaussian 09 at Tue Jan 28 08:22:34 2020.

 ----------------------------------------------------------------------
 #N Geom=AllCheck Guess=TCheck SCRF=Check GenChk RB3LYP/6-31G(2df,p) Fr
 eq
 ----------------------------------------------------------------------

 Structure from the checkpoint file:  "/scratch/puck/g09_1b92adfd-0189-4adb-86fe-6c8840398cea/Gau-60183.chk"
 -----
 titel
 -----
 Charge =  0 Multiplicity = 1

                         Standard orientation:
 ---------------------------------------------------------------------
 Center     Atomic      Atomic             Coordinates (Angstroms)
 Number     Number       Type             X           Y           Z
 ---------------------------------------------------------------------
      1          6           0       -0.393729    2.045915   -0.746318
      2          8           0       -0.142320    1.386775    0.485144
      3          6           0       -0.214044   -0.037396    0.443188
      4          6           0       -0.038996   -0.497127    1.902414
      5          6           0       -1.500384   -0.509326   -0.081350
      6          6           0       -2.572613   -0.875347   -0.480349
      7          6           0        0.970326   -0.614867   -0.402700
      8          6           0        2.339770   -0.019851   -0.122203
      9          8           0        0.803744   -1.506168   -1.195445
     10          1           0       -1.402171    1.831991   -1.118484
     11          1           0       -0.298536    3.115061   -0.545877
     12          1           0        0.332801    1.764121   -1.522433
     13          1           0       -0.052813   -1.587746    1.963293
     14          1           0        0.904675   -0.119819    2.303248
     15          1           0       -0.858533   -0.095631    2.501823
     16          1           0       -3.512277   -1.210582   -0.845243
     17          1           0        2.279127    1.022073    0.193853
     18          1           0        2.811376   -0.589259    0.687564
     19          1           0        2.962975   -0.127081   -1.011423
 ---------------------------------------------------------------------

 SCF Done:  E(RB3LYP) =  -423.150009324     A.U. after    1 cycles

 The electronic state is 1-A.
 Alpha  occ. eigenvalues --  -19.15647 -19.13634 -10.27495 -10.27000 -10.22905
 Alpha  occ. eigenvalues --  -10.19164 -10.19011 -10.18365 -10.17981  -1.05490
 Alpha  occ. eigenvalues --   -1.04011  -0.80684  -0.74962  -0.73078  -0.68461
 Alpha  occ. eigenvalues --   -0.64851  -0.56996  -0.52499  -0.50386  -0.48436
 Alpha  occ. eigenvalues --   -0.47332  -0.45032  -0.43135  -0.42523  -0.41006
 Alpha  occ. eigenvalues --   -0.40181  -0.38478  -0.38444  -0.35509  -0.33875
 Alpha  occ. eigenvalues --   -0.29289  -0.27808  -0.27251  -0.23932
 Alpha virt. eigenvalues --   -0.02371   0.03746   0.04790   0.08677   0.12043
 Alpha virt. eigenvalues --    0.12528   0.13608   0.14685   0.15451   0.15835
 Alpha virt. eigenvalues --    0.17222   0.17423   0.17964   0.18761   0.21183

 Mulliken charges:
               1
     1  C   -0.254785
     2  O   -0.262172
     3  C    0.019174
     4  C   -0.432999
     5  C    0.373227
     6  C   -0.464237
     7  C    0.363240
     8  C   -0.487190
     9  O   -0.289678
    10  H    0.132812
    11  H    0.131225
    12  H    0.112969
    13  H    0.140182
    14  H    0.128770
    15  H    0.143755
    16  H    0.200287
    17  H    0.149547
    18  H    0.151599
    19  H    0.144275
 Sum of Mulliken charges =   0.00000

 Dipole moment (field-independent basis, Debye):
    X=              0.2879    Y=              1.3616    Z=              0.8969  Tot=              1.6556
 Quadrupole moment (field-independent basis, Debye-Ang):
   XX=            -46.8959   YY=            -55.1738   ZZ=            -53.9801
   XY=              2.0793   XZ=              2.9065   YZ=             -5.4802

  Exact polarizability:  91.333   7.212  72.267   6.150   1.390  69.203
 Approx polarizability: 130.426  14.924 107.307  14.745  11.616 104.491

                      1                      2                      3
                      A                      A                      A
 Frequencies --     46.9634                86.6344               121.1714
 Red. masses --      5.0151                 1.1280                 1.7355
 Frc consts  --      0.0065                 0.0050                 0.0150
 IR Inten    --      4.0377                 0.6601                 0.6960

                      4                      5                      6
                      A                      A                      A
 Frequencies --    138.4543               167.5978               174.3469
 Red. masses --      4.0560                 2.9591                 1.4314
 Frc consts  --      0.0458                 0.0490                 0.0256
 IR Inten    --      2.1729                 0.8617                 0.0091

                      7                      8                      9
                      A                      A                      A
 Frequencies --    219.3680               251.1502               276.5673
 Red. masses --      1.2378                 1.8840                 2.7939
 Frc consts  --      0.0351                 0.0700                 0.1259
 IR Inten    --      1.6560                 0.9986                 4.0211

                     10                     11                     12
                      A                      A                      A
 Frequencies --    295.8794               403.0269               430.9324
 Red. masses --      3.7590                 5.2422                 3.6468
 Frc consts  --      0.1939                 0.5017                 0.3990
 IR Inten    --     11.4460                 4.9540                 0.5445

                     13                     14                     15
                      A                      A                      A
 Frequencies --    453.2183               540.7519               591.4669
 Red. masses --      4.8097                 3.8585                 4.1415
 Frc consts  --      0.5821                 0.6648                 0.8536
 IR Inten    --      2.0055                 4.6906                17.8533

                     16                     17                     18
                      A                      A                      A
 Frequencies --    635.2497               638.8626               649.6320
 Red. masses --      1.2466                 3.5933                 3.6383
 Frc consts  --      0.2964                 0.8641                 0.9047
 IR Inten    --     42.3839                 1.6787                 1.3281

                     19                     20                     21
                      A                      A                      A
 Frequencies --    672.5861               860.8907               903.1013
 Red. masses --      1.2618                 2.4555                 2.2607
 Frc consts  --      0.3363                 1.0722                 1.0863
 IR Inten    --     33.1749                 4.8671                17.9265

                     22                     23                     24
                      A                      A                      A
 Frequencies --    964.4834              1010.7345              1084.5058
 Red. masses --      1.9705                 1.9022                 3.7282
 Frc consts  --      1.0800                 1.1449                 2.5835
 IR Inten    --     13.1027                 2.1943                39.1063

                     25                     26                     27
                      A                      A                      A
 Frequencies --   1115.4951              1132.6451              1168.3106
 Red. masses --      1.9633                 7.3242                 2.0923
 Frc consts  --      1.4394                 5.5361                 1.6827
 IR Inten    --     52.5863               127.7754                45.5955

                     28                     29                     30
                      A                      A                      A
 Frequencies --   1184.5820              1231.6623              1248.0731
 Red. masses --      1.2962                 2.2064                 2.6885
 Frc consts  --      1.0717                 1.9721                 2.4674
 IR Inten    --      5.2891                 8.4672                15.6959

                     31                     32                     33
                      A                      A                      A
 Frequencies --   1375.0078              1397.1344              1463.7226
 Red. masses --      1.2788                 1.2198                 1.0545
 Frc consts  --      1.4246                 1.4028                 1.3311
 IR Inten    --     29.9424                 4.2814                 7.3804

                     34                     35                     36
                      A                      A                      A
 Frequencies --   1474.1017              1475.3793              1483.5395
 Red. masses --      1.1048                 1.0629                 1.0576
 Frc consts  --      1.4145                 1.3632                 1.3715
 IR Inten    --      3.0278                 2.4511                 4.9587

                     37                     38                     39
                      A                      A                      A
 Frequencies --   1487.6736              1492.1922              1510.1243
 Red. masses --      1.0513                 1.0516                 1.0557
 Frc consts  --      1.3708                 1.3795                 1.4185
 IR Inten    --      4.1879                 1.1059                 7.6264

                     40                     41                     42
                      A                      A                      A
 Frequencies --   1823.7226              2235.6732              2996.5956
 Red. masses --     12.0365                 5.8853                 1.0417
 Frc consts  --     23.5868                17.3314                 5.5114
 IR Inten    --    117.6736                 2.9967                42.1845

                     43                     44                     45
                      A                      A                      A
 Frequencies --   3045.4676              3056.1805              3068.9558
 Red. masses --      1.0416                 1.0330                 1.0938
 Frc consts  --      5.6919                 5.6850                 6.0698
 IR Inten    --      1.0847                10.1177                34.2985

                     46                     47                     48
                      A                      A                      A
 Frequencies --   3119.4701              3127.8804              3139.2297
 Red. masses --      1.0898                 1.1008                 1.1027
 Frc consts  --      6.2484                 6.3457                 6.4026
 IR Inten    --      7.3800                19.1482                13.9362

                     49                     50                     51
                      A                      A                      A
 Frequencies --   3142.8671              3164.5673              3499.2459
 Red. masses --      1.1033                 1.1047                 1.1632
 Frc consts  --      6.4209                 6.5179                 8.3915
 IR Inten    --      7.8522                 3.8341                62.0880

 - Thermochemistry -
 -------------------
 Temperature   298.150 Kelvin.  Pressure   1.00000 Atm.
 Atom     1 has atomic number  6 and mass  12.00000

 Molecular mass:   126.06808 amu.
 Principal axes and moments of inertia in atomic units:
                           1         2         3
     Eigenvalues --   943.872111210.529171410.40726
           X            0.99924   0.03086   0.02379
           Y           -0.02664   0.98657  -0.16118
           Z           -0.02844   0.16043   0.98664
 This molecule is an asymmetric top.
 Rotational symmetry number  1.
 Warning -- assumption of classical behavior for rotation
           may cause significant error
 Rotational temperatures (Kelvin)      0.09176     0.07155     0.06141
 Rotational constants (GHZ):           1.91206     1.49087     1.27959
 Zero-point vibrational energy     402406.3 (Joules/Mol)
                                   96.17741 (Kcal/Mol)
 Warning -- explicit consideration of  15 degrees of freedom as
           vibrations may cause significant error
 Vibrational temperatures:     67.57   124.65   174.34   199.20   241.14
          (Kelvin)            250.85   315.62   361.35   397.92   425.70
                              579.87   620.01   652.08   778.02   850.99
                              913.98   919.18   934.67   967.70  1238.63
                             1299.36  1387.67  1454.22  1560.36  1604.95
                             1629.62  1680.94  1704.35  1772.09  1795.70
                             1978.33  2010.16  2105.97  2120.90  2122.74
                             2134.48  2140.43  2146.93  2172.73  2623.93
                             3216.63  4311.43  4381.74  4397.16  4415.54
                             4488.22  4500.32  4516.65  4521.88  4553.10
                             5034.63

 Zero-point correction=                           0.153268 (Hartree/Particle)
 Thermal correction to Energy=                    0.164302
 Thermal correction to Enthalpy=                  0.165246
 Thermal correction to Gibbs Free Energy=         0.117032
 Sum of electronic and zero-point Energies=           -422.996741
 Sum of electronic and thermal Energies=              -422.985708
 Sum of electronic and thermal Enthalpies=            -422.984764
 Sum of electronic and thermal Free Energies=         -423.032977

                     E (Thermal)             CV                S
                      KCal/Mol        Cal/Mol-Kelvin    Cal/Mol-Kelvin
 Total                  103.101             38.880            101.474
 Electronic               0.000              0.000              0.000
 Translational            0.889              2.981             40.409
 Rotational               0.889              2.981             28.868
 Vibrational            101.323             32.918             32.198
 Vibration     1          0.595              1.979              4.941
 Vibration     2          0.601              1.959              3.735
 Vibration     3          0.609              1.932              3.082
 Vibration     4          0.614              1.915              2.825
 Vibration     5          0.624              1.882              2.462
 Vibration     6          0.627              1.874              2.388
 Vibration     7          0.647              1.812              1.964
 Vibration     8          0.663              1.761              1.722
 Vibration     9          0.678              1.717              1.555
 Vibration    10          0.690              1.681              1.440
 Vibration    11          0.768              1.464              0.952
 Vibration    12          0.792              1.403              0.856
 Vibration    13          0.812              1.354              0.786
 Vibration    14          0.896              1.160              0.564
 Vibration    15          0.949              1.050              0.465

 Optimization completed.
    -- Stationary point found.
 Normal termination of Gaussian 09 at Tue Jan 28 10:14:58 2020.
