 Gaussian 09, Revision D.01,
 Gaussian 09:  ES64L-G09RevD.01 24-Apr-2013

 -----------------------------
 # b3lyp 6-31G(2df,p) opt Freq
 -----------------------------

 -----
 titel
 -----
 Symbolic Z-matrix:
 Charge =  0 Multiplicity = 1

 SCF Done:  E(RB3LYP) =  -423.132418227     A.U. after   13 cycles
 Optimization completed.
    -- Stationary point found.
 Normal termination of Gaussian 09 at Mon Jan 27 18:36:32 2020.

 ----------------------------------------------------------------------
 #N Geom=AllCheck Guess=TCheck SCRF=Check GenChk RB3LYP/6-31G(2df,p) Fr
 eq
 ----------------------------------------------------------------------

 Structure from the checkpoint file:  "/scratch/puck/g09_ac248567-1a4d-4261-98c7-f91682c3515b/Gau-43152.chk"
 -----
 titel
 -----
 Charge =  0 Multiplicity = 1

                         Standard orientation:
 ---------------------------------------------------------------------
 Center     Atomic      Atomic             Coordinates (Angstroms)
 Number     Number       Type             X           Y           Z
 ---------------------------------------------------------------------
      1          6           0        1.320987    1.498683    0.902209
      2          6           0        0.821504    0.432036   -0.033014
      3          6           0        1.709854   -0.816910   -0.301393
      4          8           0        0.652075   -1.716896    0.145518
      5          6           0       -0.263097   -0.641610    0.211560
      6          6           0       -1.495714   -0.479076    1.083435
      7          6           0       -2.069657    0.471662   -0.029199
      8          6           0       -0.944710    0.015224   -1.012452
      9          8           0        0.142446    0.951244   -1.203984
     10          1           0        1.744768    1.054918    1.808234
     11          1           0        2.103594    2.091007    0.414245
     12          1           0        0.514059    2.179999    1.186055
     13          1           0        1.963518   -0.962270   -1.356377
     14          1           0        2.604073   -0.922383    0.322518
     15          1           0       -2.068969   -1.407948    1.156247
     16          1           0       -1.354899   -0.073937    2.089070
     17          1           0       -3.085021    0.237259   -0.353170
     18          1           0       -2.006193    1.535091    0.207604
     19          1           0       -1.246108   -0.486572   -1.933581
 ---------------------------------------------------------------------

 SCF Done:  E(RB3LYP) =  -423.132418227     A.U. after    1 cycles

 The electronic state is 1-A.
 Alpha  occ. eigenvalues --  -19.14103 -19.13505 -10.24145 -10.23380 -10.23144
 Alpha  occ. eigenvalues --  -10.22830 -10.19047 -10.18970 -10.18575  -1.06659
 Alpha  occ. eigenvalues --   -1.01581  -0.82810  -0.76457  -0.68226  -0.66716
 Alpha  occ. eigenvalues --   -0.65030  -0.59041  -0.51880  -0.50553  -0.48471
 Alpha  occ. eigenvalues --   -0.47682  -0.44096  -0.42257  -0.41279  -0.40785
 Alpha  occ. eigenvalues --   -0.39609  -0.36972  -0.36242  -0.34969  -0.34719
 Alpha  occ. eigenvalues --   -0.31083  -0.27969  -0.25528  -0.22825
 Alpha virt. eigenvalues --    0.05899   0.07948   0.10468   0.11320   0.12059
 Alpha virt. eigenvalues --    0.13373   0.13852   0.14458   0.16474   0.17010
 Alpha virt. eigenvalues --    0.17118   0.18527   0.20113   0.20637   0.21074

 Mulliken charges:
               1
     1  C   -0.477790
     2  C    0.308291
     3  C   -0.135462
     4  O   -0.337908
     5  C    0.392782
     6  C   -0.338989
     7  C   -0.249661
     8  C    0.037354
     9  O   -0.344310
    10  H    0.126644
    11  H    0.134157
    12  H    0.128093
    13  H    0.114114
    14  H    0.106286
    15  H    0.120263
    16  H    0.104205
    17  H    0.110438
    18  H    0.117086
    19  H    0.084409
 Sum of Mulliken charges =   0.00000

 Dipole moment (field-independent basis, Debye):
    X=             -0.2279    Y=              0.6324    Z=              0.9490  Tot=              1.1630
 Quadrupole moment (field-independent basis, Debye-Ang):
   XX=            -47.7616   YY=            -57.8899   ZZ=            -53.6599
   XY=              1.3908   XZ=              0.7260   YZ=              3.2627

  Exact polarizability:  86.741   0.032  67.867   0.523   1.789  68.630
 Approx polarizability: 115.866   0.058 103.013   0.831  -2.093 102.907

                      1                      2                      3
                      A                      A                      A
 Frequencies --    131.7680               177.8033               192.1000
 Red. masses --      2.9003                 2.2522                 1.0454
 Frc consts  --      0.0297                 0.0420                 0.0227
 IR Inten    --      2.7463                 0.0580                 0.2080

                      4                      5                      6
                      A                      A                      A
 Frequencies --    241.2816               341.6788               368.8364
 Red. masses --      2.4385                 2.2270                 3.3362
 Frc consts  --      0.0836                 0.1532                 0.2674
 IR Inten    --      2.1538                 0.6096                 3.3548

                      7                      8                      9
                      A                      A                      A
 Frequencies --    403.4034               486.3185               510.9243
 Red. masses --      3.5542                 2.5932                 4.0365
 Frc consts  --      0.3408                 0.3614                 0.6208
 IR Inten    --      4.1624                 5.5913                 4.4381

                     10                     11                     12
                      A                      A                      A
 Frequencies --    631.9744               691.8408               723.3556
 Red. masses --      3.9152                 2.9229                 1.7310
 Frc consts  --      0.9213                 0.8243                 0.5336
 IR Inten    --      2.0166                 1.8300                 1.5247

                     13                     14                     15
                      A                      A                      A
 Frequencies --    809.1507               849.5248               866.4004
 Red. masses --      2.9630                 2.4157                 2.0066
 Frc consts  --      1.1430                 1.0272                 0.8875
 IR Inten    --      4.2950                10.2329                14.6882

                     16                     17                     18
                      A                      A                      A
 Frequencies --    885.0658               913.5512               919.3494
 Red. masses --      2.0884                 3.0450                 2.0768
 Frc consts  --      0.9638                 1.4973                 1.0342
 IR Inten    --      5.1002                 6.2125                15.7711

                     19                     20                     21
                      A                      A                      A
 Frequencies --    948.8434               976.1986              1011.3061
 Red. masses --      1.6255                 6.2618                 4.0533
 Frc consts  --      0.8622                 3.5158                 2.4425
 IR Inten    --      2.9040                46.2075                65.2629

                     22                     23                     24
                      A                      A                      A
 Frequencies --   1088.3037              1097.7121              1116.9974
 Red. masses --      2.8088                 1.8716                 1.9655
 Frc consts  --      1.9601                 1.3287                 1.4449
 IR Inten    --      6.1636                26.9629                21.5226

                     25                     26                     27
                      A                      A                      A
 Frequencies --   1141.6226              1158.0464              1180.8178
 Red. masses --      1.5922                 1.6204                 1.5625
 Frc consts  --      1.2227                 1.2804                 1.2836
 IR Inten    --      4.2283                 1.9848                 1.7851

                     28                     29                     30
                      A                      A                      A
 Frequencies --   1203.8213              1213.9831              1235.9290
 Red. masses --      2.2803                 1.3162                 1.8067
 Frc consts  --      1.9470                 1.1429                 1.6260
 IR Inten    --     37.3329                 6.1550                16.7427

                     31                     32                     33
                      A                      A                      A
 Frequencies --   1256.4769              1277.0376              1321.3859
 Red. masses --      1.9208                 1.7183                 2.0497
 Frc consts  --      1.7867                 1.6510                 2.1087
 IR Inten    --     14.9816                31.1040                33.5974

                     34                     35                     36
                      A                      A                      A
 Frequencies --   1322.7870              1372.7621              1411.4603
 Red. masses --      1.8814                 2.1664                 1.4119
 Frc consts  --      1.9395                 2.4053                 1.6572
 IR Inten    --      8.1110                 2.4487                10.9444

                     37                     38                     39
                      A                      A                      A
 Frequencies --   1465.2223              1481.2507              1486.3839
 Red. masses --      1.0829                 1.0608                 1.0967
 Frc consts  --      1.3697                 1.3713                 1.4276
 IR Inten    --      1.9299                 3.9550                 6.8384

                     40                     41                     42
                      A                      A                      A
 Frequencies --   1494.1237              1506.0055              3030.6440
 Red. masses --      1.0907                 1.1206                 1.0504
 Frc consts  --      1.4347                 1.4974                 5.6842
 IR Inten    --      3.8463                 1.9613                38.8412

                     43                     44                     45
                      A                      A                      A
 Frequencies --   3035.7969              3055.8355              3078.2400
 Red. masses --      1.0410                 1.0578                 1.0593
 Frc consts  --      5.6526                 5.8196                 5.9138
 IR Inten    --     31.3455                30.4049                22.3065

                     46                     47                     48
                      A                      A                      A
 Frequencies --   3091.2432              3099.0119              3101.5529
 Red. masses --      1.1116                 1.0906                 1.0996
 Frc consts  --      6.2587                 6.1712                 6.2325
 IR Inten    --     17.1528                43.6224                15.0953

                     49                     50                     51
                      A                      A                      A
 Frequencies --   3104.2956              3118.6717              3139.7948
 Red. masses --      1.1066                 1.1021                 1.1084
 Frc consts  --      6.2830                 6.3154                 6.4379
 IR Inten    --      7.1894                19.0474                24.8399

 - Thermochemistry -
 -------------------
 Temperature   298.150 Kelvin.  Pressure   1.00000 Atm.
 Atom     1 has atomic number  6 and mass  12.00000

 Molecular mass:   126.06808 amu.
 Principal axes and moments of inertia in atomic units:
                           1         2         3
     Eigenvalues --   726.85718 993.087121169.54669
           X            0.99930   0.03667   0.00786
           Y           -0.03734   0.99227   0.11836
           Z           -0.00346  -0.11857   0.99294
 This molecule is an asymmetric top.
 Rotational symmetry number  1.
 Warning -- assumption of classical behavior for rotation
           may cause significant error
 Rotational temperatures (Kelvin)      0.11916     0.08722     0.07406
 Rotational constants (GHZ):           2.48294     1.81730     1.54311
 Zero-point vibrational energy     417304.7 (Joules/Mol)
                                   99.73821 (Kcal/Mol)
 Warning -- explicit consideration of   9 degrees of freedom as
           vibrations may cause significant error
 Vibrational temperatures:    189.58   255.82   276.39   347.15   491.60
          (Kelvin)            530.67   580.41   699.70   735.11   909.27
                              995.40  1040.75  1164.19  1222.28  1246.56
                             1273.41  1314.39  1322.74  1365.17  1404.53
                             1455.04  1565.82  1579.36  1607.11  1642.54
                             1666.17  1698.93  1732.03  1746.65  1778.22
                             1807.79  1837.37  1901.18  1903.19  1975.10
                             2030.77  2108.13  2131.19  2138.57  2149.71
                             2166.80  4360.42  4367.83  4396.66  4428.90
                             4447.60  4458.78  4462.44  4466.38  4487.07
                             4517.46

 Zero-point correction=                           0.158943 (Hartree/Particle)
 Thermal correction to Energy=                    0.166700
 Thermal correction to Enthalpy=                  0.167644
 Thermal correction to Gibbs Free Energy=         0.127082
 Sum of electronic and zero-point Energies=           -422.973475
 Sum of electronic and thermal Energies=              -422.965718
 Sum of electronic and thermal Enthalpies=            -422.964774
 Sum of electronic and thermal Free Energies=         -423.005337

                     E (Thermal)             CV                S
                      KCal/Mol        Cal/Mol-Kelvin    Cal/Mol-Kelvin
 Total                  104.606             30.846             85.371
 Electronic               0.000              0.000              0.000
 Translational            0.889              2.981             40.409
 Rotational               0.889              2.981             28.225
 Vibrational            102.828             24.884             16.737
 Vibration     1          0.612              1.922              2.920
 Vibration     2          0.628              1.870              2.351
 Vibration     3          0.634              1.851              2.207
 Vibration     4          0.658              1.777              1.793
 Vibration     5          0.721              1.592              1.204
 Vibration     6          0.741              1.536              1.085
 Vibration     7          0.769              1.463              0.950
 Vibration     8          0.842              1.280              0.693
 Vibration     9          0.866              1.226              0.631

 Optimization completed.
    -- Stationary point found.
 Normal termination of Gaussian 09 at Mon Jan 27 19:32:35 2020.
