 Gaussian 09, Revision D.01,
 Gaussian 09:  ES64L-G09RevD.01 24-Apr-2013

 -----------------------------
 # b3lyp 6-31G(2df,p) opt Freq
 -----------------------------

 -----
 titel
 -----
 Symbolic Z-matrix:
 Charge =  0 Multiplicity = 1

 SCF Done:  E(RB3LYP) =  -423.130957592     A.U. after   14 cycles
 Optimization completed.
    -- Stationary point found.
 Normal termination of Gaussian 09 at Mon Jan 27 17:10:07 2020.

 ----------------------------------------------------------------------
 #N Geom=AllCheck Guess=TCheck SCRF=Check GenChk RB3LYP/6-31G(2df,p) Fr
 eq
 ----------------------------------------------------------------------

 Structure from the checkpoint file:  "/scratch/puck/g09_0aaa2958-1827-4603-b6c2-2d088e1280e7/Gau-59855.chk"
 -----
 titel
 -----
 Charge =  0 Multiplicity = 1

                         Standard orientation:
 ---------------------------------------------------------------------
 Center     Atomic      Atomic             Coordinates (Angstroms)
 Number     Number       Type             X           Y           Z
 ---------------------------------------------------------------------
      1          6           0       -2.280640   -0.784770    0.021563
      2          6           0       -0.926771   -0.128637    0.065823
      3          6           0       -0.634331    1.171325    0.866200
      4          6           0        0.356374    1.339253   -0.308436
      5          8           0       -0.602021    0.630414   -1.152363
      6          6           0        1.567689    0.358095   -0.067542
      7          6           0        1.294730   -0.937184   -0.871822
      8          6           0        0.300884   -1.106228    0.303832
      9          8           0        1.261947   -0.398052    1.147289
     10          1           0       -2.304103   -1.577215   -0.734933
     11          1           0       -2.517421   -1.234730    0.991367
     12          1           0       -3.054392   -0.052800   -0.224477
     13          1           0       -1.466328    1.871010    0.772781
     14          1           0       -0.262511    1.108021    1.885304
     15          1           0        0.627981    2.317882   -0.707786
     16          1           0        2.550060    0.832603   -0.035224
     17          1           0        0.924266   -0.874379   -1.891232
     18          1           0        2.127465   -1.634439   -0.774779
     19          1           0        0.027969   -2.085977    0.701870
 ---------------------------------------------------------------------

 SCF Done:  E(RB3LYP) =  -423.130957592     A.U. after    1 cycles

 The electronic state is 1-A.
 Alpha  occ. eigenvalues --  -19.13216 -19.12942 -10.24295 -10.23837 -10.23759
 Alpha  occ. eigenvalues --  -10.23699 -10.18456 -10.18204 -10.18190  -1.06400
 Alpha  occ. eigenvalues --   -1.01954  -0.76842  -0.74323  -0.73909  -0.68419
 Alpha  occ. eigenvalues --   -0.61087  -0.59295  -0.52474  -0.49442  -0.48972
 Alpha  occ. eigenvalues --   -0.45986  -0.44868  -0.43119  -0.40859  -0.40285
 Alpha  occ. eigenvalues --   -0.37823  -0.37187  -0.36073  -0.33864  -0.31941
 Alpha  occ. eigenvalues --   -0.30948  -0.29623  -0.28186  -0.21960
 Alpha virt. eigenvalues --    0.06274   0.09606   0.10223   0.12768   0.13016
 Alpha virt. eigenvalues --    0.13630   0.14800   0.15429   0.16037   0.16571
 Alpha virt. eigenvalues --    0.17473   0.18413   0.19070   0.20101   0.20455

 Mulliken charges:
               1
     1  C   -0.499518
     2  C    0.389001
     3  C   -0.246837
     4  C    0.049319
     5  O   -0.318675
     6  C    0.056230
     7  C   -0.210194
     8  C    0.017758
     9  O   -0.289081
    10  H    0.127926
    11  H    0.125678
    12  H    0.128909
    13  H    0.098962
    14  H    0.117823
    15  H    0.077541
    16  H    0.078268
    17  H    0.119662
    18  H    0.103377
    19  H    0.073851
 Sum of Mulliken charges =   0.00000

 Dipole moment (field-independent basis, Debye):
    X=             -0.2775    Y=             -0.1167    Z=             -0.0185  Tot=              0.3016
 Quadrupole moment (field-independent basis, Debye-Ang):
   XX=            -51.5789   YY=            -49.9313   ZZ=            -57.2433
   XY=              2.3974   XZ=             -4.0620   YZ=              1.2233

  Exact polarizability:  80.208   2.029  75.300  -3.192   0.824  64.407
 Approx polarizability: 109.429   4.093 109.515   0.370  -2.062 106.035

                      1                      2                      3
                      A                      A                      A
 Frequencies --    207.8828               227.0087               284.7298
 Red. masses --      1.1194                 2.2851                 2.6523
 Frc consts  --      0.0285                 0.0694                 0.1267
 IR Inten    --      0.2523                 0.6141                 0.1397

                      4                      5                      6
                      A                      A                      A
 Frequencies --    403.3388               449.2527               522.7374
 Red. masses --      2.9354                 2.8009                 3.9033
 Frc consts  --      0.2814                 0.3331                 0.6284
 IR Inten    --      5.3300                10.3907                 0.7696

                      7                      8                      9
                      A                      A                      A
 Frequencies --    532.1858               545.7894               586.7301
 Red. masses --      3.1877                 5.2401                 2.9596
 Frc consts  --      0.5319                 0.9197                 0.6003
 IR Inten    --      0.2294                 0.3065                15.7292

                     10                     11                     12
                      A                      A                      A
 Frequencies --    666.8406               761.2372               793.0759
 Red. masses --      3.9843                 2.9921                 2.6719
 Frc consts  --      1.0439                 1.0216                 0.9902
 IR Inten    --      2.2570                 0.1814                 0.3547

                     13                     14                     15
                      A                      A                      A
 Frequencies --    834.0594               870.1400               878.0175
 Red. masses --      3.3067                 2.8109                 3.2489
 Frc consts  --      1.3553                 1.2539                 1.4757
 IR Inten    --     12.5644                27.7931                28.0003

                     16                     17                     18
                      A                      A                      A
 Frequencies --    888.6560               903.1042               926.4219
 Red. masses --      2.3751                 2.3238                 3.6866
 Frc consts  --      1.1051                 1.1167                 1.8642
 IR Inten    --      4.2426                21.6431                30.0844

                     19                     20                     21
                      A                      A                      A
 Frequencies --    954.4019               972.1063              1013.3740
 Red. masses --      3.7697                 1.9502                 2.0112
 Frc consts  --      2.0231                 1.0858                 1.2169
 IR Inten    --     29.1652                15.7417                 6.7951

                     22                     23                     24
                      A                      A                      A
 Frequencies --   1032.3442              1066.5707              1091.7061
 Red. masses --      1.5831                 2.1606                 1.3939
 Frc consts  --      0.9940                 1.4481                 0.9788
 IR Inten    --      5.5352                 1.4454                 1.6503

                     25                     26                     27
                      A                      A                      A
 Frequencies --   1104.5883              1131.5269              1192.2253
 Red. masses --      1.5570                 1.8062                 1.5437
 Frc consts  --      1.1193                 1.3625                 1.2928
 IR Inten    --      6.0406                 6.4586                 4.3145

                     28                     29                     30
                      A                      A                      A
 Frequencies --   1211.9829              1224.9293              1233.9343
 Red. masses --      1.7441                 1.8035                 1.6304
 Frc consts  --      1.5094                 1.5944                 1.4626
 IR Inten    --      7.9952                 7.2489                13.4878

                     31                     32                     33
                      A                      A                      A
 Frequencies --   1250.1154              1272.3249              1295.3199
 Red. masses --      1.4865                 1.6154                 1.6454
 Frc consts  --      1.3687                 1.5408                 1.6266
 IR Inten    --      0.2397                 3.5716                 1.1254

                     34                     35                     36
                      A                      A                      A
 Frequencies --   1310.2504              1316.7205              1355.4705
 Red. masses --      1.4533                 1.4176                 1.6969
 Frc consts  --      1.4700                 1.4481                 1.8369
 IR Inten    --      9.0502                 1.7697                 3.5016

                     37                     38                     39
                      A                      A                      A
 Frequencies --   1409.9717              1473.5751              1477.6945
 Red. masses --      1.4096                 1.1229                 1.1463
 Frc consts  --      1.6510                 1.4366                 1.4748
 IR Inten    --     11.2952                 1.4207                 2.5432

                     40                     41                     42
                      A                      A                      A
 Frequencies --   1479.0161              1494.2323              3033.8990
 Red. masses --      1.0682                 1.0512                 1.0360
 Frc consts  --      1.3767                 1.3828                 5.6185
 IR Inten    --      7.2987                 4.2430                13.7580

                     43                     44                     45
                      A                      A                      A
 Frequencies --   3088.7018              3089.7193              3095.2963
 Red. masses --      1.0807                 1.0687                 1.0810
 Frc consts  --      6.0746                 6.0112                 6.1020
 IR Inten    --     25.3020                13.5939                35.7611

                     46                     47                     48
                      A                      A                      A
 Frequencies --   3101.0595              3101.2138              3110.8401
 Red. masses --      1.0813                 1.0902                 1.0871
 Frc consts  --      6.1265                 6.1778                 6.1983
 IR Inten    --     40.4108                47.0177                50.1862

                     49                     50                     51
                      A                      A                      A
 Frequencies --   3120.5027              3175.0303              3179.4259
 Red. masses --      1.1014                 1.1067                 1.1076
 Frc consts  --      6.3188                 6.5730                 6.5970
 IR Inten    --     17.1060                 8.1432                13.5748

 - Thermochemistry -
 -------------------
 Temperature   298.150 Kelvin.  Pressure   1.00000 Atm.
 Atom     1 has atomic number  6 and mass  12.00000

 Molecular mass:   126.06808 amu.
 Principal axes and moments of inertia in atomic units:
                           1         2         3
     Eigenvalues --   633.44917 965.138871075.81033
           X            0.99832   0.03939  -0.04255
           Y           -0.03497   0.99436   0.10018
           Z            0.04626  -0.09852   0.99406
 This molecule is an asymmetric top.
 Rotational symmetry number  1.
 Warning -- assumption of classical behavior for rotation
           may cause significant error
 Rotational temperatures (Kelvin)      0.13673     0.08974     0.08051
 Rotational constants (GHZ):           2.84907     1.86993     1.67756
 Zero-point vibrational energy     423126.8 (Joules/Mol)
                                  101.12973 (Kcal/Mol)
 Warning -- explicit consideration of   9 degrees of freedom as
           vibrations may cause significant error
 Vibrational temperatures:    299.10   326.61   409.66   580.31   646.37
          (Kelvin)            752.10   765.70   785.27   844.17   959.43
                             1095.25  1141.06  1200.02  1251.94  1263.27
                             1278.58  1299.36  1332.91  1373.17  1398.64
                             1458.02  1485.31  1534.56  1570.72  1589.25
                             1628.01  1715.34  1743.77  1762.40  1775.35
                             1798.64  1830.59  1863.67  1885.16  1894.46
                             1950.22  2028.63  2120.14  2126.07  2127.97
                             2149.86  4365.10  4443.95  4445.41  4453.44
                             4461.73  4461.95  4475.80  4489.70  4568.15
                             4574.48

 Zero-point correction=                           0.161160 (Hartree/Particle)
 Thermal correction to Energy=                    0.167897
 Thermal correction to Enthalpy=                  0.168841
 Thermal correction to Gibbs Free Energy=         0.130570
 Sum of electronic and zero-point Energies=           -422.969797
 Sum of electronic and thermal Energies=              -422.963061
 Sum of electronic and thermal Enthalpies=            -422.962117
 Sum of electronic and thermal Free Energies=         -423.000387

                     E (Thermal)             CV                S
                      KCal/Mol        Cal/Mol-Kelvin    Cal/Mol-Kelvin
 Total                  105.357             28.892             80.548
 Electronic               0.000              0.000              0.000
 Translational            0.889              2.981             40.409
 Rotational               0.889              2.981             27.977
 Vibrational            103.579             22.931             12.162
 Vibration     1          0.641              1.829              2.062
 Vibration     2          0.651              1.800              1.902
 Vibration     3          0.683              1.702              1.505
 Vibration     4          0.769              1.463              0.950
 Vibration     5          0.808              1.363              0.798
 Vibration     6          0.878              1.200              0.604
 Vibration     7          0.887              1.179              0.582
 Vibration     8          0.901              1.149              0.553
 Vibration     9          0.944              1.060              0.473

 Optimization completed.
    -- Stationary point found.
 Normal termination of Gaussian 09 at Mon Jan 27 17:58:04 2020.
