 Gaussian 09, Revision D.01,
 Gaussian 09:  ES64L-G09RevD.01 24-Apr-2013

 -----------------------------
 # b3lyp 6-31G(2df,p) opt Freq
 -----------------------------

 -----
 titel
 -----
 Symbolic Z-matrix:
 Charge =  0 Multiplicity = 1

 SCF Done:  E(RB3LYP) =  -423.167829605     A.U. after   14 cycles
 Optimization completed.
    -- Stationary point found.
 Normal termination of Gaussian 09 at Tue Jan 28 02:20:58 2020.

 ----------------------------------------------------------------------
 #N Geom=AllCheck Guess=TCheck SCRF=Check GenChk RB3LYP/6-31G(2df,p) Fr
 eq
 ----------------------------------------------------------------------

 Structure from the checkpoint file:  "/scratch/puck/g09_a4280c48-7b62-442b-85e2-d706158cc15d/Gau-86165.chk"
 -----
 titel
 -----
 Charge =  0 Multiplicity = 1

                         Standard orientation:
 ---------------------------------------------------------------------
 Center     Atomic      Atomic             Coordinates (Angstroms)
 Number     Number       Type             X           Y           Z
 ---------------------------------------------------------------------
      1          6           0       -2.950322    0.961641    0.367302
      2          6           0       -1.946822    0.129987   -0.399054
      3          6           0       -1.809855   -1.348035   -0.150387
      4          6           0       -0.713499   -0.403826    0.294519
      5          6           0        0.602363   -0.392593   -0.418759
      6          8           0        1.585798   -1.327988    0.110730
      7          6           0        2.575077   -0.314162    0.369101
      8          6           0        1.587675    0.754858   -0.113219
      9          8           0        1.569432    1.944077   -0.191467
     10          1           0       -2.641998    2.011433    0.414954
     11          1           0       -3.937964    0.921610   -0.104885
     12          1           0       -3.059483    0.598317    1.394611
     13          1           0       -1.798191    0.445309   -1.429049
     14          1           0       -2.424080   -1.795485    0.623870
     15          1           0       -1.605755   -2.002540   -0.991196
     16          1           0       -0.642991   -0.215929    1.362600
     17          1           0        0.458495   -0.544789   -1.499226
     18          1           0        2.865529   -0.254013    1.425686
     19          1           0        3.476904   -0.419849   -0.248486
 ---------------------------------------------------------------------

 SCF Done:  E(RB3LYP) =  -423.167829605     A.U. after    1 cycles

 The electronic state is 1-A.
 Alpha  occ. eigenvalues --  -19.15349 -19.14591 -10.28089 -10.24526 -10.24111
 Alpha  occ. eigenvalues --  -10.20057 -10.19949 -10.19076 -10.18196  -1.06897
 Alpha  occ. eigenvalues --   -1.04192  -0.87193  -0.73501  -0.71251  -0.70141
 Alpha  occ. eigenvalues --   -0.60157  -0.57849  -0.55151  -0.50267  -0.47941
 Alpha  occ. eigenvalues --   -0.47203  -0.46183  -0.45357  -0.41511  -0.40493
 Alpha  occ. eigenvalues --   -0.39527  -0.38550  -0.37256  -0.35866  -0.34382
 Alpha  occ. eigenvalues --   -0.30258  -0.29128  -0.26298  -0.25048
 Alpha virt. eigenvalues --   -0.03061   0.06699   0.09491   0.09978   0.10730
 Alpha virt. eigenvalues --    0.13020   0.13959   0.15092   0.16335   0.16890
 Alpha virt. eigenvalues --    0.17225   0.17774   0.19085   0.20332   0.23346

 Mulliken charges:
               1
     1  C   -0.411606
     2  C    0.012342
     3  C   -0.298660
     4  C   -0.007438
     5  C   -0.001725
     6  O   -0.292703
     7  C   -0.191476
     8  C    0.325852
     9  O   -0.269503
    10  H    0.128031
    11  H    0.120046
    12  H    0.115526
    13  H    0.089500
    14  H    0.115627
    15  H    0.116366
    16  H    0.086963
    17  H    0.099499
    18  H    0.133235
    19  H    0.130126
 Sum of Mulliken charges =   0.00000

 Dipole moment (field-independent basis, Debye):
    X=             -0.7106    Y=             -0.7759    Z=              0.0084  Tot=              1.0522
 Quadrupole moment (field-independent basis, Debye-Ang):
   XX=            -49.0056   YY=            -61.9169   ZZ=            -50.1956
   XY=             -1.2171   XZ=              0.2388   YZ=              1.0788

  Exact polarizability:  94.742  -0.560  74.669   3.237   0.189  63.366
 Approx polarizability: 115.495   0.230 118.100   5.777  -1.786  97.263

                      1                      2                      3
                      A                      A                      A
 Frequencies --     49.8443                83.0468               116.0603
 Red. masses --      3.6060                 3.8767                 2.7884
 Frc consts  --      0.0053                 0.0158                 0.0221
 IR Inten    --      0.3859                 3.3456                 2.0849

                      4                      5                      6
                      A                      A                      A
 Frequencies --    192.9498               224.0579               248.0693
 Red. masses --      1.5448                 1.8618                 3.4694
 Frc consts  --      0.0339                 0.0551                 0.1258
 IR Inten    --      3.9987                 2.9247                 1.3584

                      7                      8                      9
                      A                      A                      A
 Frequencies --    322.6756               387.1155               407.4310
 Red. masses --      3.6598                 2.6893                 3.1899
 Frc consts  --      0.2245                 0.2374                 0.3120
 IR Inten    --      1.4535                 2.6798                 1.9529

                     10                     11                     12
                      A                      A                      A
 Frequencies --    480.1487               560.9367               708.3709
 Red. masses --      2.3544                 2.9533                 6.2621
 Frc consts  --      0.3198                 0.5475                 1.8514
 IR Inten    --      5.1337                 6.6508                 0.3868

                     13                     14                     15
                      A                      A                      A
 Frequencies --    783.2948               800.9317               861.9016
 Red. masses --      2.0629                 2.1885                 1.8431
 Frc consts  --      0.7457                 0.8271                 0.8067
 IR Inten    --      0.6370                 8.0180                 6.6333

                     16                     17                     18
                      A                      A                      A
 Frequencies --    895.2861               922.9600               940.0525
 Red. masses --      1.9685                 1.5401                 2.1257
 Frc consts  --      0.9296                 0.7730                 1.1068
 IR Inten    --     11.6911                 2.8947                 1.9149

                     19                     20                     21
                      A                      A                      A
 Frequencies --    989.0313              1005.6255              1022.1651
 Red. masses --      4.7432                 2.8195                 2.8061
 Frc consts  --      2.7336                 1.6800                 1.7274
 IR Inten    --     76.2772                42.6522                20.3774

                     22                     23                     24
                      A                      A                      A
 Frequencies --   1062.0650              1074.5787              1085.5118
 Red. masses --      1.6490                 2.0653                 2.9540
 Frc consts  --      1.0959                 1.4051                 2.0508
 IR Inten    --     56.8943                29.8775                41.1985

                     25                     26                     27
                      A                      A                      A
 Frequencies --   1105.4045              1136.7461              1138.9655
 Red. masses --      1.1971                 1.3786                 1.2377
 Frc consts  --      0.8618                 1.0495                 0.9460
 IR Inten    --      3.0802                 1.4313                 1.0716

                     28                     29                     30
                      A                      A                      A
 Frequencies --   1193.3754              1201.3494              1228.3532
 Red. masses --      2.1235                 1.7595                 1.7208
 Frc consts  --      1.7818                 1.4962                 1.5297
 IR Inten    --      9.1391                 0.1784                 1.9511

                     31                     32                     33
                      A                      A                      A
 Frequencies --   1240.0321              1285.0808              1299.0795
 Red. masses --      1.5156                 1.3053                 1.4098
 Frc consts  --      1.3731                 1.2700                 1.4018
 IR Inten    --      2.3276                 5.2717                 1.1356

                     34                     35                     36
                      A                      A                      A
 Frequencies --   1371.1408              1415.9431              1443.6528
 Red. masses --      1.3531                 1.2361                 1.6112
 Frc consts  --      1.4988                 1.4602                 1.9785
 IR Inten    --      0.2473                 3.0450                 4.1531

                     37                     38                     39
                      A                      A                      A
 Frequencies --   1482.5778              1491.1142              1494.9127
 Red. masses --      1.1017                 1.0830                 1.1603
 Frc consts  --      1.4267                 1.4187                 1.5278
 IR Inten    --      2.5170                 4.5602                 6.4331

                     40                     41                     42
                      A                      A                      A
 Frequencies --   1504.5988              1922.8453              2993.5285
 Red. masses --      1.2684                12.9766                 1.0804
 Frc consts  --      1.6919                28.2684                 5.7044
 IR Inten    --      3.8937               230.1143                28.1165

                     43                     44                     45
                      A                      A                      A
 Frequencies --   3014.4145              3029.0481              3059.3715
 Red. masses --      1.0573                 1.0351                 1.1073
 Frc consts  --      5.6602                 5.5953                 6.1066
 IR Inten    --     30.6606                30.0620                19.0733

                     46                     47                     48
                      A                      A                      A
 Frequencies --   3093.9599              3097.3430              3131.3347
 Red. masses --      1.1008                 1.1004                 1.0555
 Frc consts  --      6.2087                 6.2199                 6.0980
 IR Inten    --     22.4079                15.8774                14.5293

                     49                     50                     51
                      A                      A                      A
 Frequencies --   3137.2827              3144.7741              3216.8127
 Red. masses --      1.0886                 1.0873                 1.1164
 Frc consts  --      6.3128                 6.3352                 6.8063
 IR Inten    --      9.0099                17.3735                 9.5135

 - Thermochemistry -
 -------------------
 Temperature   298.150 Kelvin.  Pressure   1.00000 Atm.
 Atom     1 has atomic number  6 and mass  12.00000

 Molecular mass:   126.06808 amu.
 Principal axes and moments of inertia in atomic units:
                           1         2         3
     Eigenvalues --   600.559861695.788062144.15936
           X            0.99980  -0.02005  -0.00187
           Y            0.02008   0.99967   0.01631
           Z            0.00154  -0.01634   0.99987
 This molecule is an asymmetric top.
 Rotational symmetry number  1.
 Warning -- assumption of classical behavior for rotation
           may cause significant error
 Rotational temperatures (Kelvin)      0.14422     0.05108     0.04040
 Rotational constants (GHZ):           3.00510     1.06425     0.84170
 Zero-point vibrational energy     413292.7 (Joules/Mol)
                                   98.77934 (Kcal/Mol)
 Warning -- explicit consideration of  11 degrees of freedom as
           vibrations may cause significant error
 Vibrational temperatures:     71.71   119.49   166.98   277.61   322.37
          (Kelvin)            356.92   464.26   556.97   586.20   690.83
                              807.06  1019.19  1126.99  1152.36  1240.08
                             1288.12  1327.93  1352.52  1422.99  1446.87
                             1470.67  1528.07  1546.08  1561.81  1590.43
                             1635.52  1638.72  1717.00  1728.47  1767.32
                             1784.13  1848.94  1869.08  1972.76  2037.22
                             2077.09  2133.10  2145.38  2150.84  2164.78
                             2766.54  4307.01  4337.06  4358.12  4401.75
                             4451.51  4456.38  4505.29  4513.84  4524.62
                             4628.27

 Zero-point correction=                           0.157415 (Hartree/Particle)
 Thermal correction to Energy=                    0.166450
 Thermal correction to Enthalpy=                  0.167394
 Thermal correction to Gibbs Free Energy=         0.122746
 Sum of electronic and zero-point Energies=           -423.010415
 Sum of electronic and thermal Energies=              -423.001380
 Sum of electronic and thermal Enthalpies=            -423.000436
 Sum of electronic and thermal Free Energies=         -423.045083

                     E (Thermal)             CV                S
                      KCal/Mol        Cal/Mol-Kelvin    Cal/Mol-Kelvin
 Total                  104.449             32.880             93.969
 Electronic               0.000              0.000              0.000
 Translational            0.889              2.981             40.409
 Rotational               0.889              2.981             29.170
 Vibrational            102.671             26.919             24.391
 Vibration     1          0.595              1.978              4.824
 Vibration     2          0.600              1.961              3.818
 Vibration     3          0.608              1.936              3.165
 Vibration     4          0.635              1.850              2.199
 Vibration     5          0.649              1.804              1.926
 Vibration     6          0.662              1.766              1.744
 Vibration     7          0.708              1.630              1.297
 Vibration     8          0.756              1.498              1.011
 Vibration     9          0.772              1.454              0.936
 Vibration    10          0.837              1.294              0.710
 Vibration    11          0.917              1.116              0.522

 Optimization completed.
    -- Stationary point found.
 Normal termination of Gaussian 09 at Tue Jan 28 02:58:50 2020.
