 Gaussian 09, Revision D.01,
 Gaussian 09:  ES64L-G09RevD.01 24-Apr-2013

 -----------------------------
 # b3lyp 6-31G(2df,p) opt Freq
 -----------------------------

 -----
 titel
 -----
 Symbolic Z-matrix:
 Charge =  0 Multiplicity = 1

 SCF Done:  E(RB3LYP) =  -423.167485417     A.U. after   13 cycles
 Optimization completed.
    -- Stationary point found.
 Normal termination of Gaussian 09 at Mon Jan 27 17:13:31 2020.

 ----------------------------------------------------------------------
 #N Geom=AllCheck Guess=TCheck SCRF=Check GenChk RB3LYP/6-31G(2df,p) Fr
 eq
 ----------------------------------------------------------------------

 Structure from the checkpoint file:  "/scratch/puck/g09_71a39f50-2bbc-4575-93c4-c6e99dc50a72/Gau-168183.chk"
 -----
 titel
 -----
 Charge =  0 Multiplicity = 1

                         Standard orientation:
 ---------------------------------------------------------------------
 Center     Atomic      Atomic             Coordinates (Angstroms)
 Number     Number       Type             X           Y           Z
 ---------------------------------------------------------------------
      1          8           0        2.281531   -0.634707   -0.138344
      2          6           0        0.974586   -0.125896   -0.057805
      3          6           0        0.693680    1.140691   -0.901831
      4          6           0       -0.357416    1.501440    0.194469
      5          6           0        0.517309    0.681258    1.187760
      6          6           0       -1.697964    0.793974   -0.078313
      7          6           0       -1.482587   -0.670691   -0.432364
      8          8           0       -1.016673   -1.549574    0.604936
      9          6           0       -0.096561   -1.157803   -0.420679
     10          1           0        2.355956   -1.375227    0.474295
     11          1           0        1.550924    1.817328   -0.875708
     12          1           0        0.355065    1.007488   -1.933608
     13          1           0       -0.507257    2.559959    0.413457
     14          1           0        1.352127    1.275655    1.566834
     15          1           0        0.024544    0.141945    1.996668
     16          1           0       -2.368479    0.878190    0.785540
     17          1           0       -2.204291    1.278363   -0.922656
     18          1           0       -2.212119   -1.132609   -1.095966
     19          1           0        0.228370   -1.954691   -1.089015
 ---------------------------------------------------------------------

 SCF Done:  E(RB3LYP) =  -423.167485417     A.U. after    1 cycles

 The electronic state is 1-A.
 Alpha  occ. eigenvalues --  -19.14922 -19.13963 -10.23864 -10.23587 -10.23200
 Alpha  occ. eigenvalues --  -10.19422 -10.18927 -10.18085 -10.17445  -1.07007
 Alpha  occ. eigenvalues --   -1.02358  -0.85828  -0.74584  -0.69219  -0.65935
 Alpha  occ. eigenvalues --   -0.61170  -0.59572  -0.53759  -0.52479  -0.48577
 Alpha  occ. eigenvalues --   -0.46620  -0.44269  -0.43790  -0.41354  -0.39987
 Alpha  occ. eigenvalues --   -0.38802  -0.36293  -0.34605  -0.33595  -0.31364
 Alpha  occ. eigenvalues --   -0.30465  -0.28808  -0.26874  -0.25562
 Alpha virt. eigenvalues --    0.07328   0.08887   0.10056   0.11608   0.12671
 Alpha virt. eigenvalues --    0.13300   0.14505   0.15435   0.16050   0.17548
 Alpha virt. eigenvalues --    0.18189   0.19080   0.19703   0.20965   0.22425

 Mulliken charges:
               1
     1  O   -0.494614
     2  C    0.401158
     3  C   -0.257454
     4  C   -0.029566
     5  C   -0.289269
     6  C   -0.241631
     7  C    0.052873
     8  O   -0.257910
     9  C   -0.042659
    10  H    0.278752
    11  H    0.108485
    12  H    0.090980
    13  H    0.068588
    14  H    0.099284
    15  H    0.110545
    16  H    0.112267
    17  H    0.102722
    18  H    0.094075
    19  H    0.093374
 Sum of Mulliken charges =   0.00000

 Dipole moment (field-independent basis, Debye):
    X=             -0.6056    Y=              0.6106    Z=             -0.4203  Tot=              0.9572
 Quadrupole moment (field-independent basis, Debye-Ang):
   XX=            -54.6591   YY=            -52.1414   ZZ=            -52.8491
   XY=             -3.2404   XZ=              4.2052   YZ=              1.1778

  Exact polarizability:  79.465  -2.274  73.871   1.824   0.752  66.631
 Approx polarizability: 113.717  -4.335 106.892  -0.162  -3.498 104.690

                      1                      2                      3
                      A                      A                      A
 Frequencies --    210.2339               264.3711               287.3032
 Red. masses --      3.1411                 1.9289                 1.4887
 Frc consts  --      0.0818                 0.0794                 0.0724
 IR Inten    --      4.2837                34.8503                45.8388

                      4                      5                      6
                      A                      A                      A
 Frequencies --    338.1882               377.4982               403.7441
 Red. masses --      3.4287                 4.4202                 1.8709
 Frc consts  --      0.2310                 0.3711                 0.1797
 IR Inten    --     10.7202                20.6423                 1.8755

                      7                      8                      9
                      A                      A                      A
 Frequencies --    439.5776               467.0201               544.6449
 Red. masses --      2.8264                 3.3997                 3.5623
 Frc consts  --      0.3218                 0.4369                 0.6226
 IR Inten    --      4.9714                 0.8831                 9.1446

                     10                     11                     12
                      A                      A                      A
 Frequencies --    611.2064               680.1272               778.7874
 Red. masses --      3.8787                 3.3235                 3.3988
 Frc consts  --      0.8537                 0.9058                 1.2145
 IR Inten    --      0.6896                 2.5279                 6.3721

                     13                     14                     15
                      A                      A                      A
 Frequencies --    837.7096               853.3217               862.2987
 Red. masses --      2.6583                 2.1798                 1.9377
 Frc consts  --      1.0991                 0.9352                 0.8489
 IR Inten    --      3.3212                13.1042                 0.4446

                     16                     17                     18
                      A                      A                      A
 Frequencies --    881.0527               905.1417               942.1361
 Red. masses --      2.4521                 3.3808                 2.3256
 Frc consts  --      1.1215                 1.6319                 1.2162
 IR Inten    --     12.2068                11.1312                 4.5741

                     19                     20                     21
                      A                      A                      A
 Frequencies --    959.8895              1008.7729              1019.5441
 Red. masses --      2.8135                 1.7513                 1.9045
 Frc consts  --      1.5274                 1.0500                 1.1664
 IR Inten    --      5.7360                14.8748                 7.7243

                     22                     23                     24
                      A                      A                      A
 Frequencies --   1028.5972              1069.2675              1094.0884
 Red. masses --      1.9822                 1.3898                 1.4114
 Frc consts  --      1.2356                 0.9362                 0.9954
 IR Inten    --     19.7131                 5.2317                 3.4022

                     25                     26                     27
                      A                      A                      A
 Frequencies --   1110.4328              1137.0365              1161.4803
 Red. masses --      1.3655                 1.2712                 1.4750
 Frc consts  --      0.9920                 0.9683                 1.1724
 IR Inten    --      0.3921                 2.5162                34.0684

                     28                     29                     30
                      A                      A                      A
 Frequencies --   1200.6999              1228.2113              1247.1057
 Red. masses --      2.8156                 1.2680                 1.7980
 Frc consts  --      2.3916                 1.1270                 1.6476
 IR Inten    --     58.0517                 1.1018                22.8147

                     31                     32                     33
                      A                      A                      A
 Frequencies --   1256.5853              1274.0358              1293.4630
 Red. masses --      1.5144                 1.5564                 1.6245
 Frc consts  --      1.4089                 1.4885                 1.6013
 IR Inten    --     21.4987                16.3476                11.3399

                     34                     35                     36
                      A                      A                      A
 Frequencies --   1309.1975              1360.9972              1366.0979
 Red. masses --      1.6564                 1.5610                 1.6829
 Frc consts  --      1.6728                 1.7035                 1.8504
 IR Inten    --      2.9652                 4.3028                36.2081

                     37                     38                     39
                      A                      A                      A
 Frequencies --   1382.3492              1445.8456              1471.2062
 Red. masses --      1.5078                 2.7622                 1.1044
 Frc consts  --      1.6976                 3.4022                 1.4084
 IR Inten    --      0.6670                19.6715                 3.5541

                     40                     41                     42
                      A                      A                      A
 Frequencies --   1474.3229              1507.7803              3026.1536
 Red. masses --      1.1238                 1.1824                 1.0596
 Frc consts  --      1.4392                 1.5837                 5.7170
 IR Inten    --      1.6268                 6.9551                28.1886

                     43                     44                     45
                      A                      A                      A
 Frequencies --   3053.9422              3064.5012              3072.2242
 Red. masses --      1.0589                 1.1026                 1.0601
 Frc consts  --      5.8187                 6.1006                 5.8953
 IR Inten    --     31.8059                19.9670                20.3256

                     46                     47                     48
                      A                      A                      A
 Frequencies --   3091.2018              3114.0218              3118.4676
 Red. masses --      1.0875                 1.0860                 1.1062
 Frc consts  --      6.1225                 6.2045                 6.3382
 IR Inten    --     46.0756                19.7386                29.5907

                     49                     50                     51
                      A                      A                      A
 Frequencies --   3125.7711              3142.6138              3796.6543
 Red. masses --      1.0929                 1.1076                 1.0659
 Frc consts  --      6.2911                 6.4447                 9.0524
 IR Inten    --     38.9555                14.0964                20.8443

 - Thermochemistry -
 -------------------
 Temperature   298.150 Kelvin.  Pressure   1.00000 Atm.
 Atom     1 has atomic number  8 and mass  15.99491

 Molecular mass:   126.06808 amu.
 Principal axes and moments of inertia in atomic units:
                           1         2         3
     Eigenvalues --   704.14875 934.610681260.34431
           X            0.99898  -0.03990   0.02122
           Y            0.03945   0.99900   0.02116
           Z           -0.02204  -0.02030   0.99955
 This molecule is an asymmetric top.
 Rotational symmetry number  1.
 Warning -- assumption of classical behavior for rotation
           may cause significant error
 Rotational temperatures (Kelvin)      0.12300     0.09267     0.06872
 Rotational constants (GHZ):           2.56301     1.93101     1.43194
 Zero-point vibrational energy     422861.5 (Joules/Mol)
                                  101.06632 (Kcal/Mol)
 Warning -- explicit consideration of  10 degrees of freedom as
           vibrations may cause significant error
 Vibrational temperatures:    302.48   380.37   413.36   486.58   543.14
          (Kelvin)            580.90   632.45   671.94   783.62   879.39
                              978.55  1120.50  1205.28  1227.74  1240.65
                             1267.64  1302.30  1355.52  1381.07  1451.40
                             1466.89  1479.92  1538.44  1574.15  1597.66
                             1635.94  1671.11  1727.54  1767.12  1794.30
                             1807.94  1833.05  1861.00  1883.64  1958.17
                             1965.51  1988.89  2080.25  2116.73  2121.22
                             2169.36  4353.95  4393.94  4409.13  4420.24
                             4447.54  4480.38  4486.77  4497.28  4521.51
                             5462.53

 Zero-point correction=                           0.161059 (Hartree/Particle)
 Thermal correction to Energy=                    0.168184
 Thermal correction to Enthalpy=                  0.169128
 Thermal correction to Gibbs Free Energy=         0.130149
 Sum of electronic and zero-point Energies=           -423.006426
 Sum of electronic and thermal Energies=              -422.999301
 Sum of electronic and thermal Enthalpies=            -422.998357
 Sum of electronic and thermal Free Energies=         -423.037337

                     E (Thermal)             CV                S
                      KCal/Mol        Cal/Mol-Kelvin    Cal/Mol-Kelvin
 Total                  105.537             30.113             82.039
 Electronic               0.000              0.000              0.000
 Translational            0.889              2.981             40.409
 Rotational               0.889              2.981             28.208
 Vibrational            103.760             24.151             13.423
 Vibration     1          0.642              1.825              2.042
 Vibration     2          0.671              1.738              1.633
 Vibration     3          0.684              1.697              1.490
 Vibration     4          0.718              1.599              1.221
 Vibration     5          0.748              1.518              1.049
 Vibration     6          0.769              1.462              0.949
 Vibration     7          0.800              1.384              0.828
 Vibration     8          0.824              1.323              0.746
 Vibration     9          0.900              1.151              0.555
 Vibration    10          0.970              1.008              0.431

 Optimization completed.
    -- Stationary point found.
 Normal termination of Gaussian 09 at Mon Jan 27 18:00:44 2020.
