 Gaussian 09, Revision D.01,
 Gaussian 09:  ES64L-G09RevD.01 24-Apr-2013

 -----------------------------
 # b3lyp 6-31G(2df,p) opt Freq
 -----------------------------

 -----
 titel
 -----
 Symbolic Z-matrix:
 Charge =  0 Multiplicity = 1

 SCF Done:  E(RB3LYP) =  -423.172530154     A.U. after   13 cycles
 Optimization completed.
    -- Stationary point found.
 Normal termination of Gaussian 09 at Mon Jan 27 23:48:13 2020.

 ----------------------------------------------------------------------
 #N Geom=AllCheck Guess=TCheck SCRF=Check GenChk RB3LYP/6-31G(2df,p) Fr
 eq
 ----------------------------------------------------------------------

 Structure from the checkpoint file:  "/scratch/puck/g09_bad5e5a3-da06-4a93-b81e-fc38b84c8c98/Gau-186182.chk"
 -----
 titel
 -----
 Charge =  0 Multiplicity = 1

                         Standard orientation:
 ---------------------------------------------------------------------
 Center     Atomic      Atomic             Coordinates (Angstroms)
 Number     Number       Type             X           Y           Z
 ---------------------------------------------------------------------
      1          8           0       -1.612326    1.396580   -0.366389
      2          6           0       -0.375292    1.147297    0.272266
      3          6           0        0.728909    0.822543   -0.746729
      4          6           0        1.926884    0.597944    0.215980
      5          6           0        1.127688   -0.654528    0.642124
      6          6           0        0.642333   -0.752384   -0.822920
      7          8           0       -0.623634   -1.364140   -0.874920
      8          6           0       -1.196987   -1.206329    0.432979
      9          6           0       -0.282869   -0.179189    1.111417
     10          1           0       -2.239158    1.701145    0.296909
     11          1           0       -0.089856    2.016658    0.880829
     12          1           0        0.789857    1.464350   -1.624568
     13          1           0        2.849946    0.332137   -0.304540
     14          1           0        2.133378    1.374169    0.957517
     15          1           0        1.572977   -1.496238    1.172791
     16          1           0        1.312046   -1.208079   -1.552743
     17          1           0       -2.225829   -0.854234    0.325933
     18          1           0       -1.199252   -2.170610    0.961663
     19          1           0       -0.440423   -0.070946    2.185982
 ---------------------------------------------------------------------

 SCF Done:  E(RB3LYP) =  -423.172530154     A.U. after    1 cycles

 The electronic state is 1-A.
 Alpha  occ. eigenvalues --  -19.13729 -19.12789 -10.23222 -10.22683 -10.21802
 Alpha  occ. eigenvalues --  -10.18895 -10.18868 -10.18631 -10.18458  -1.03625
 Alpha  occ. eigenvalues --   -1.01557  -0.87478  -0.75195  -0.69320  -0.66292
 Alpha  occ. eigenvalues --   -0.61547  -0.55901  -0.54120  -0.51655  -0.50848
 Alpha  occ. eigenvalues --   -0.47118  -0.44504  -0.44032  -0.39821  -0.38198
 Alpha  occ. eigenvalues --   -0.37015  -0.35926  -0.34021  -0.33561  -0.32267
 Alpha  occ. eigenvalues --   -0.31076  -0.29176  -0.26378  -0.22964
 Alpha virt. eigenvalues --    0.07095   0.09564   0.11665   0.12512   0.13287
 Alpha virt. eigenvalues --    0.14000   0.15555   0.16776   0.16841   0.17174
 Alpha virt. eigenvalues --    0.18308   0.19690   0.20112   0.21541   0.21758

 Mulliken charges:
               1
     1  O   -0.438217
     2  C    0.156439
     3  C   -0.097045
     4  C   -0.259651
     5  C   -0.057495
     6  C    0.156876
     7  O   -0.277207
     8  C   -0.055733
     9  C   -0.136956
    10  H    0.281293
    11  H    0.065004
    12  H    0.069227
    13  H    0.102747
    14  H    0.094635
    15  H    0.066672
    16  H    0.081589
    17  H    0.101151
    18  H    0.085759
    19  H    0.060912
 Sum of Mulliken charges =   0.00000

 Dipole moment (field-independent basis, Debye):
    X=              0.6251    Y=              0.9363    Z=              2.3822  Tot=              2.6348
 Quadrupole moment (field-independent basis, Debye-Ang):
   XX=            -50.0672   YY=            -53.4618   ZZ=            -53.4702
   XY=             -2.1821   XZ=             -5.1447   YZ=              0.3346

  Exact polarizability:  79.826   1.185  72.704  -3.581  -1.346  67.327
 Approx polarizability: 112.789   0.721 105.535  -2.404  -0.337 106.266

                      1                      2                      3
                      A                      A                      A
 Frequencies --    185.7953               277.0155               319.1609
 Red. masses --      5.4918                 1.2378                 2.5422
 Frc consts  --      0.1117                 0.0560                 0.1526
 IR Inten    --      0.0672                97.4850                 1.9214

                      4                      5                      6
                      A                      A                      A
 Frequencies --    335.1579               409.1685               429.4011
 Red. masses --      2.8518                 2.4006                 2.7990
 Frc consts  --      0.1887                 0.2368                 0.3041
 IR Inten    --     17.9328                 2.6158                 0.8772

                      7                      8                      9
                      A                      A                      A
 Frequencies --    534.1812               611.1848               687.0885
 Red. masses --      5.1933                 4.2871                 5.2590
 Frc consts  --      0.8731                 0.9435                 1.4628
 IR Inten    --      8.5984                 2.0424                 3.4570

                     10                     11                     12
                      A                      A                      A
 Frequencies --    783.2965               795.6022               815.0322
 Red. masses --      3.5667                 2.7780                 3.1716
 Frc consts  --      1.2893                 1.0361                 1.2413
 IR Inten    --      3.3834                 3.3570                 1.7234

                     13                     14                     15
                      A                      A                      A
 Frequencies --    836.8460               899.0801               904.5863
 Red. masses --      2.5602                 2.2241                 2.6108
 Frc consts  --      1.0564                 1.0593                 1.2587
 IR Inten    --      3.7963                14.1079                 0.3771

                     16                     17                     18
                      A                      A                      A
 Frequencies --    926.6890               953.7358               978.7777
 Red. masses --      2.2325                 1.7133                 2.1573
 Frc consts  --      1.1296                 0.9182                 1.2176
 IR Inten    --      7.3418                 3.4088                11.4852

                     19                     20                     21
                      A                      A                      A
 Frequencies --    984.9175              1022.4795              1027.8495
 Red. masses --      1.8807                 2.2906                 1.6737
 Frc consts  --      1.0749                 1.4109                 1.0418
 IR Inten    --      9.0959                 0.1642                18.0007

                     22                     23                     24
                      A                      A                      A
 Frequencies --   1068.5048              1080.5986              1093.0486
 Red. masses --      1.9436                 1.6377                 1.4838
 Frc consts  --      1.3074                 1.1267                 1.0445
 IR Inten    --     18.6636                 9.7163                20.9760

                     25                     26                     27
                      A                      A                      A
 Frequencies --   1112.3687              1139.6538              1184.4745
 Red. masses --      3.0510                 2.7899                 1.7147
 Frc consts  --      2.2243                 2.1350                 1.4174
 IR Inten    --     87.5106                44.3446                 9.0745

                     28                     29                     30
                      A                      A                      A
 Frequencies --   1193.5018              1208.5053              1224.9608
 Red. masses --      1.4899                 1.3970                 1.3877
 Frc consts  --      1.2505                 1.2021                 1.2269
 IR Inten    --      4.0383                25.5759                 2.5950

                     31                     32                     33
                      A                      A                      A
 Frequencies --   1240.1660              1256.9375              1269.7902
 Red. masses --      1.5496                 1.4247                 1.4688
 Frc consts  --      1.4042                 1.3262                 1.3953
 IR Inten    --      3.8963                 9.6521                33.5459

                     34                     35                     36
                      A                      A                      A
 Frequencies --   1296.2288              1318.0803              1331.6146
 Red. masses --      1.5916                 1.4287                 1.4697
 Frc consts  --      1.5756                 1.4624                 1.5354
 IR Inten    --      0.9307                12.7309                 8.0107

                     37                     38                     39
                      A                      A                      A
 Frequencies --   1351.6415              1397.0412              1440.7981
 Red. masses --      1.4066                 1.4480                 1.3745
 Frc consts  --      1.5141                 1.6651                 1.6811
 IR Inten    --      7.8708                10.8566                 4.0505

                     40                     41                     42
                      A                      A                      A
 Frequencies --   1509.5852              1510.2011              2992.9345
 Red. masses --      1.1016                 1.1137                 1.0845
 Frc consts  --      1.4790                 1.4966                 5.7236
 IR Inten    --      2.1424                 1.6563                63.2382

                     43                     44                     45
                      A                      A                      A
 Frequencies --   2997.4759              3059.2899              3092.7098
 Red. masses --      1.0714                 1.0573                 1.0924
 Frc consts  --      5.6716                 5.8304                 6.1563
 IR Inten    --     63.6982                43.0766                18.4727

                     46                     47                     48
                      A                      A                      A
 Frequencies --   3097.3243              3110.0772              3113.6058
 Red. masses --      1.0885                 1.0880                 1.1076
 Frc consts  --      6.1523                 6.2006                 6.3264
 IR Inten    --     41.9751                38.4357                17.7466

                     49                     50                     51
                      A                      A                      A
 Frequencies --   3119.5713              3131.2744              3821.3196
 Red. masses --      1.0905                 1.0920                 1.0664
 Frc consts  --      6.2529                 6.3084                 9.1744
 IR Inten    --     54.8295                30.1651                23.4432

 - Thermochemistry -
 -------------------
 Temperature   298.150 Kelvin.  Pressure   1.00000 Atm.
 Atom     1 has atomic number  8 and mass  15.99491

 Molecular mass:   126.06808 amu.
 Principal axes and moments of inertia in atomic units:
                           1         2         3
     Eigenvalues --   735.38745 839.007651098.38481
           X            0.99781   0.05434  -0.03760
           Y           -0.05504   0.99832  -0.01791
           Z            0.03656   0.01994   0.99913
 This molecule is an asymmetric top.
 Rotational symmetry number  1.
 Warning -- assumption of classical behavior for rotation
           may cause significant error
 Rotational temperatures (Kelvin)      0.11778     0.10323     0.07886
 Rotational constants (GHZ):           2.45414     2.15104     1.64309
 Zero-point vibrational energy     427547.3 (Joules/Mol)
                                  102.18626 (Kcal/Mol)
 Warning -- explicit consideration of   8 degrees of freedom as
           vibrations may cause significant error
 Vibrational temperatures:    267.32   398.56   459.20   482.22   588.70
          (Kelvin)            617.81   768.57   879.36   988.57  1126.99
                             1144.69  1172.65  1204.03  1293.57  1301.50
                             1333.30  1372.21  1408.24  1417.07  1471.12
                             1478.84  1537.34  1554.74  1572.65  1600.45
                             1639.71  1704.19  1717.18  1738.77  1762.44
                             1784.32  1808.45  1826.94  1864.98  1896.42
                             1915.89  1944.71  2010.03  2072.98  2171.95
                             2172.84  4306.16  4312.69  4401.63  4449.71
                             4456.35  4474.70  4479.78  4488.36  4505.20
                             5498.02

 Zero-point correction=                           0.162844 (Hartree/Particle)
 Thermal correction to Energy=                    0.169487
 Thermal correction to Enthalpy=                  0.170431
 Thermal correction to Gibbs Free Energy=         0.132263
 Sum of electronic and zero-point Energies=           -423.009686
 Sum of electronic and thermal Energies=              -423.003043
 Sum of electronic and thermal Enthalpies=            -423.002099
 Sum of electronic and thermal Free Energies=         -423.040268

                     E (Thermal)             CV                S
                      KCal/Mol        Cal/Mol-Kelvin    Cal/Mol-Kelvin
 Total                  106.355             28.241             80.332
 Electronic               0.000              0.000              0.000
 Translational            0.889              2.981             40.409
 Rotational               0.889              2.981             28.007
 Vibrational            104.577             22.280             11.917
 Vibration     1          0.632              1.859              2.269
 Vibration     2          0.678              1.716              1.552
 Vibration     3          0.705              1.637              1.314
 Vibration     4          0.716              1.605              1.235
 Vibration     5          0.774              1.450              0.930
 Vibration     6          0.791              1.406              0.861
 Vibration     7          0.889              1.174              0.578
 Vibration     8          0.970              1.008              0.431

 Optimization completed.
    -- Stationary point found.
 Normal termination of Gaussian 09 at Tue Jan 28 00:38:10 2020.
