 Gaussian 09, Revision D.01,
 Gaussian 09:  ES64L-G09RevD.01 24-Apr-2013

 -----------------------------
 # b3lyp 6-31G(2df,p) opt Freq
 -----------------------------

 -----
 titel
 -----
 Symbolic Z-matrix:
 Charge =  0 Multiplicity = 1

 SCF Done:  E(RB3LYP) =  -423.131297458     A.U. after   13 cycles
 Optimization completed.
    -- Stationary point found.
 Normal termination of Gaussian 09 at Tue Jan 28 01:59:38 2020.

 ----------------------------------------------------------------------
 #N Geom=AllCheck Guess=TCheck SCRF=Check GenChk RB3LYP/6-31G(2df,p) Fr
 eq
 ----------------------------------------------------------------------

 Structure from the checkpoint file:  "/scratch/puck/g09_a51d63dc-59b4-455b-ac7c-ad9df8c8521c/Gau-26616.chk"
 -----
 titel
 -----
 Charge =  0 Multiplicity = 1

                         Standard orientation:
 ---------------------------------------------------------------------
 Center     Atomic      Atomic             Coordinates (Angstroms)
 Number     Number       Type             X           Y           Z
 ---------------------------------------------------------------------
      1          8           0        1.902932   -1.077820   -0.597907
      2          6           0        1.663807    0.273489   -0.350435
      3          6           0        1.471272    0.701609    1.078617
      4          6           0        0.297988    0.685326    0.126169
      5          6           0       -0.589765    1.862081   -0.315517
      6          6           0       -1.835681    0.916928   -0.245196
      7          6           0       -0.901132   -0.236576    0.133433
      8          6           0       -1.144810   -1.505711    0.814558
      9          8           0       -0.901007   -1.473128   -0.605709
     10          1           0        1.077272   -1.462554   -0.925621
     11          1           0        2.190076    0.955042   -1.019138
     12          1           0        1.527097   -0.078890    1.830482
     13          1           0        1.845541    1.672282    1.389329
     14          1           0       -0.616402    2.700993    0.383907
     15          1           0       -0.374614    2.246687   -1.315887
     16          1           0       -2.564812    1.180201    0.524674
     17          1           0       -2.358364    0.757090   -1.190506
     18          1           0       -0.352339   -1.961245    1.405818
     19          1           0       -2.158931   -1.784900    1.096099
 ---------------------------------------------------------------------

 SCF Done:  E(RB3LYP) =  -423.131297458     A.U. after    1 cycles

 The electronic state is 1-A.
 Alpha  occ. eigenvalues --  -19.16206 -19.12544 -10.24882 -10.23934 -10.23259
 Alpha  occ. eigenvalues --  -10.19812 -10.19295 -10.19215 -10.18411  -1.07617
 Alpha  occ. eigenvalues --   -1.01420  -0.86686  -0.79764  -0.67788  -0.64016
 Alpha  occ. eigenvalues --   -0.62871  -0.59708  -0.54336  -0.51448  -0.50095
 Alpha  occ. eigenvalues --   -0.47967  -0.47009  -0.42724  -0.40829  -0.39574
 Alpha  occ. eigenvalues --   -0.37854  -0.37206  -0.35623  -0.34890  -0.32365
 Alpha  occ. eigenvalues --   -0.30922  -0.27669  -0.25731  -0.24712
 Alpha virt. eigenvalues --    0.05792   0.09023   0.09997   0.10501   0.10719
 Alpha virt. eigenvalues --    0.11689   0.13268   0.15397   0.16424   0.17183
 Alpha virt. eigenvalues --    0.18427   0.18732   0.19744   0.21022   0.22747

 Mulliken charges:
               1
     1  O   -0.439211
     2  C    0.063670
     3  C   -0.375858
     4  C    0.240627
     5  C   -0.324659
     6  C   -0.311792
     7  C    0.369460
     8  C   -0.265038
     9  O   -0.282907
    10  H    0.301696
    11  H    0.089563
    12  H    0.118583
    13  H    0.112742
    14  H    0.107983
    15  H    0.110377
    16  H    0.113581
    17  H    0.122984
    18  H    0.126276
    19  H    0.121923
 Sum of Mulliken charges =   0.00000

 Dipole moment (field-independent basis, Debye):
    X=             -1.8353    Y=              1.5964    Z=              1.2510  Tot=              2.7353
 Quadrupole moment (field-independent basis, Debye-Ang):
   XX=            -55.8919   YY=            -52.6497   ZZ=            -51.9364
   XY=              2.8014   XZ=             -0.5737   YZ=             -2.9563

  Exact polarizability:  80.714   2.165  79.123   0.783  -3.536  66.394
 Approx polarizability: 109.083   1.822 112.268   0.685  -0.618 104.134

                      1                      2                      3
                      A                      A                      A
 Frequencies --     42.8570               162.1671               191.3127
 Red. masses --      2.9036                 3.0224                 3.5366
 Frc consts  --      0.0031                 0.0468                 0.0763
 IR Inten    --      2.2609                 0.8386                 2.8326

                      4                      5                      6
                      A                      A                      A
 Frequencies --    234.9456               328.0420               350.8652
 Red. masses --      3.1685                 2.6570                 4.3245
 Frc consts  --      0.1030                 0.1685                 0.3137
 IR Inten    --     11.3231                12.1557                 5.4241

                      7                      8                      9
                      A                      A                      A
 Frequencies --    387.5080               419.3856               506.4275
 Red. masses --      3.0196                 2.0325                 1.3840
 Frc consts  --      0.2672                 0.2106                 0.2091
 IR Inten    --      3.0848                32.7885                49.6237

                     10                     11                     12
                      A                      A                      A
 Frequencies --    524.8574               582.8800               638.2023
 Red. masses --      2.1499                 4.2036                 3.7925
 Frc consts  --      0.3489                 0.8415                 0.9101
 IR Inten    --      9.4445                 3.7127                 0.7184

                     13                     14                     15
                      A                      A                      A
 Frequencies --    746.5161               793.3630               827.2958
 Red. masses --      1.3190                 2.5845                 2.2867
 Frc consts  --      0.4331                 0.9585                 0.9221
 IR Inten    --      5.9969                 7.9647                29.6747

                     16                     17                     18
                      A                      A                      A
 Frequencies --    874.7038               885.0043               893.4158
 Red. masses --      2.1049                 1.6593                 1.8918
 Frc consts  --      0.9489                 0.7657                 0.8897
 IR Inten    --      8.0841                 9.1985                 0.7311

                     19                     20                     21
                      A                      A                      A
 Frequencies --    932.1020               946.5446              1007.7348
 Red. masses --      3.1904                 3.3694                 2.4446
 Frc consts  --      1.6331                 1.7786                 1.4627
 IR Inten    --     15.5657                21.0841                 5.8201

                     22                     23                     24
                      A                      A                      A
 Frequencies --   1028.1097              1098.2459              1100.0700
 Red. masses --      1.2693                 2.4177                 1.7487
 Frc consts  --      0.7905                 1.7181                 1.2468
 IR Inten    --      2.3835                 2.1487                 4.3365

                     25                     26                     27
                      A                      A                      A
 Frequencies --   1116.2584              1139.3900              1140.5076
 Red. masses --      1.2845                 1.7439                 1.5916
 Frc consts  --      0.9430                 1.3339                 1.2197
 IR Inten    --      0.9674                 8.9032                 0.6898

                     28                     29                     30
                      A                      A                      A
 Frequencies --   1162.9391              1169.5144              1200.8452
 Red. masses --      2.7115                 1.4460                 1.8836
 Frc consts  --      2.1606                 1.1653                 1.6003
 IR Inten    --     66.0369                 5.6457                 2.8092

                     31                     32                     33
                      A                      A                      A
 Frequencies --   1223.4433              1252.1227              1254.1776
 Red. masses --      1.1824                 1.6718                 1.4781
 Frc consts  --      1.0428                 1.5443                 1.3699
 IR Inten    --      0.9085                 0.7537                 3.5580

                     34                     35                     36
                      A                      A                      A
 Frequencies --   1333.3060              1404.9423              1410.8348
 Red. masses --      1.8998                 1.5551                 1.2604
 Frc consts  --      1.9899                 1.8086                 1.4781
 IR Inten    --      9.5223                49.3931                45.7852

                     37                     38                     39
                      A                      A                      A
 Frequencies --   1431.7472              1465.0743              1474.5495
 Red. masses --      2.0790                 1.1516                 1.5128
 Frc consts  --      2.5110                 1.4563                 1.9379
 IR Inten    --     15.0100                 6.5071                15.2158

                     40                     41                     42
                      A                      A                      A
 Frequencies --   1493.5732              1527.2645              3058.9532
 Red. masses --      1.1131                 1.6953                 1.0576
 Frc consts  --      1.4630                 2.3298                 5.8308
 IR Inten    --      0.6213                 7.9296                31.7500

                     43                     44                     45
                      A                      A                      A
 Frequencies --   3070.3846              3087.1479              3099.0458
 Red. masses --      1.0599                 1.0507                 1.0873
 Frc consts  --      5.8872                 5.8998                 6.1523
 IR Inten    --     26.8264                21.9662                37.0054

                     46                     47                     48
                      A                      A                      A
 Frequencies --   3105.3232              3123.0304              3128.7647
 Red. masses --      1.1084                 1.0545                 1.1074
 Frc consts  --      6.2976                 6.0595                 6.3871
 IR Inten    --      7.1538                 9.8221                21.9588

                     49                     50                     51
                      A                      A                      A
 Frequencies --   3176.6028              3215.1998              3715.6589
 Red. masses --      1.1193                 1.1169                 1.0664
 Frc consts  --      6.6549                 6.8028                 8.6745
 IR Inten    --     14.6436                 7.1522               125.4986

 - Thermochemistry -
 -------------------
 Temperature   298.150 Kelvin.  Pressure   1.00000 Atm.
 Atom     1 has atomic number  8 and mass  15.99491

 Molecular mass:   126.06808 amu.
 Principal axes and moments of inertia in atomic units:
                           1         2         3
     Eigenvalues --   799.439841006.155321440.28610
           X            0.99992   0.01161   0.00514
           Y           -0.01143   0.99933  -0.03489
           Z           -0.00555   0.03483   0.99938
 This molecule is an asymmetric top.
 Rotational symmetry number  1.
 Warning -- assumption of classical behavior for rotation
           may cause significant error
 Rotational temperatures (Kelvin)      0.10834     0.08608     0.06014
 Rotational constants (GHZ):           2.25751     1.79370     1.25304
 Zero-point vibrational energy     415601.6 (Joules/Mol)
                                   99.33116 (Kcal/Mol)
 Warning -- explicit consideration of  11 degrees of freedom as
           vibrations may cause significant error
 Vibrational temperatures:     61.66   233.32   275.26   338.03   471.98
          (Kelvin)            504.82   557.54   603.40   728.64   755.15
                              838.63   918.23  1074.07  1141.47  1190.29
                             1258.50  1273.32  1285.42  1341.09  1361.86
                             1449.90  1479.22  1580.13  1582.75  1606.04
                             1639.33  1640.93  1673.21  1682.67  1727.75
                             1760.26  1801.52  1804.48  1918.33  2021.40
                             2029.87  2059.96  2107.91  2121.55  2148.92
                             2197.39  4401.15  4417.59  4441.71  4458.83
                             4467.86  4493.34  4501.59  4570.42  4625.95
                             5346.00

 Zero-point correction=                           0.158294 (Hartree/Particle)
 Thermal correction to Energy=                    0.166621
 Thermal correction to Enthalpy=                  0.167566
 Thermal correction to Gibbs Free Energy=         0.125154
 Sum of electronic and zero-point Energies=           -422.973003
 Sum of electronic and thermal Energies=              -422.964676
 Sum of electronic and thermal Enthalpies=            -422.963732
 Sum of electronic and thermal Free Energies=         -423.006144

                     E (Thermal)             CV                S
                      KCal/Mol        Cal/Mol-Kelvin    Cal/Mol-Kelvin
 Total                  104.556             32.493             89.263
 Electronic               0.000              0.000              0.000
 Translational            0.889              2.981             40.409
 Rotational               0.889              2.981             28.540
 Vibrational            102.779             26.532             20.315
 Vibration     1          0.595              1.980              5.122
 Vibration     2          0.622              1.889              2.524
 Vibration     3          0.634              1.852              2.215
 Vibration     4          0.655              1.787              1.841
 Vibration     5          0.711              1.619              1.270
 Vibration     6          0.728              1.573              1.162
 Vibration     7          0.756              1.497              1.010
 Vibration     8          0.782              1.428              0.894
 Vibration     9          0.862              1.236              0.642
 Vibration    10          0.880              1.195              0.599
 Vibration    11          0.940              1.068              0.480

 Optimization completed.
    -- Stationary point found.
 Normal termination of Gaussian 09 at Tue Jan 28 02:48:16 2020.
