 Gaussian 09, Revision D.01,
 Gaussian 09:  ES64L-G09RevD.01 24-Apr-2013

 -----------------------------
 # b3lyp 6-31G(2df,p) opt Freq
 -----------------------------

 -----
 titel
 -----
 Symbolic Z-matrix:
 Charge =  0 Multiplicity = 1

 SCF Done:  E(RB3LYP) =  -423.153379328     A.U. after   14 cycles
 SCF Done:  E(RB3LYP) =  -423.153379778     A.U. after    7 cycles
 SCF Done:  E(RB3LYP) =  -423.153379349     A.U. after    8 cycles
 SCF Done:  E(RB3LYP) =  -423.153379881     A.U. after    7 cycles
 SCF Done:  E(RB3LYP) =  -423.153379887     A.U. after    7 cycles
 Optimization completed.
    -- Stationary point found.
 Normal termination of Gaussian 09 at Tue Jan 28 12:01:28 2020.

 ----------------------------------------------------------------------
 #N Geom=AllCheck Guess=TCheck SCRF=Check GenChk RB3LYP/6-31G(2df,p) Fr
 eq
 ----------------------------------------------------------------------

 Structure from the checkpoint file:  "/scratch/puck/g09_8ecee263-8d83-4904-9753-00ba033db01f/Gau-26522.chk"
 -----
 titel
 -----
 Charge =  0 Multiplicity = 1

                         Standard orientation:
 ---------------------------------------------------------------------
 Center     Atomic      Atomic             Coordinates (Angstroms)
 Number     Number       Type             X           Y           Z
 ---------------------------------------------------------------------
      1          6           0       -2.856397   -1.032245    0.207900
      2          6           0       -1.893707   -0.257132   -0.694373
      3          6           0       -0.936554    0.618098    0.093422
      4          8           0       -0.081977    1.313899   -0.783510
      5          6           0        1.115947    1.529295   -0.066320
      6          6           0        1.259644    0.221716    0.744510
      7          8           0       -0.099963   -0.163842    0.952902
      8          6           0        2.012576   -0.816821    0.039682
      9          6           0        2.649869   -1.659645   -0.532434
     10          1           0       -2.305514   -1.682678    0.892564
     11          1           0       -3.472986   -0.354900    0.809233
     12          1           0       -3.530587   -1.654311   -0.387335
     13          1           0       -1.291597   -0.940641   -1.301921
     14          1           0       -2.446726    0.393131   -1.381953
     15          1           0       -1.487340    1.333399    0.732228
     16          1           0        1.927440    1.701005   -0.773821
     17          1           0        1.027925    2.388132    0.616527
     18          1           0        1.719433    0.406524    1.722324
     19          1           0        3.207202   -2.409711   -1.037296
 ---------------------------------------------------------------------

 SCF Done:  E(RB3LYP) =  -423.153379887     A.U. after    1 cycles

 The electronic state is 1-A.
 Alpha  occ. eigenvalues --  -19.15438 -19.14832 -10.27756 -10.26311 -10.24289
 Alpha  occ. eigenvalues --  -10.18383 -10.18027 -10.17940 -10.17310  -1.09353
 Alpha  occ. eigenvalues --   -0.99900  -0.81065  -0.76271  -0.72552  -0.65711
 Alpha  occ. eigenvalues --   -0.64281  -0.58740  -0.54932  -0.51919  -0.50343
 Alpha  occ. eigenvalues --   -0.47445  -0.46407  -0.43921  -0.42825  -0.40931
 Alpha  occ. eigenvalues --   -0.36663  -0.36062  -0.35452  -0.34356  -0.33403
 Alpha  occ. eigenvalues --   -0.28689  -0.28038  -0.27100  -0.25379
 Alpha virt. eigenvalues --    0.03445   0.04450   0.10551   0.11168   0.12267
 Alpha virt. eigenvalues --    0.12701   0.13316   0.14116   0.15685   0.16052
 Alpha virt. eigenvalues --    0.17163   0.17875   0.17965   0.19993   0.21789

 Mulliken charges:
               1
     1  C   -0.386474
     2  C   -0.199270
     3  C    0.229336
     4  O   -0.252197
     5  C   -0.120262
     6  C   -0.075969
     7  O   -0.273676
     8  C    0.355349
     9  C   -0.478441
    10  H    0.137836
    11  H    0.113892
    12  H    0.115389
    13  H    0.115620
    14  H    0.106848
    15  H    0.065915
    16  H    0.132022
    17  H    0.098753
    18  H    0.112810
    19  H    0.202518
 Sum of Mulliken charges =   0.00000

 Dipole moment (field-independent basis, Debye):
    X=              0.5014    Y=              0.5885    Z=              0.1627  Tot=              0.7900
 Quadrupole moment (field-independent basis, Debye-Ang):
   XX=            -48.3491   YY=            -51.0608   ZZ=            -54.4235
   XY=             -0.2509   XZ=             -0.3140   YZ=              4.2189

  Exact polarizability:  90.018  -7.271  78.289  -4.616   7.904  64.016
 Approx polarizability: 115.001 -16.883 115.138 -10.495  14.556 101.233

                      1                      2                      3
                      A                      A                      A
 Frequencies --     20.9983                90.2235               141.4272
 Red. masses --      4.5513                 2.2985                 3.7610
 Frc consts  --      0.0012                 0.0110                 0.0443
 IR Inten    --      1.0160                 0.1793                 1.0327

                      4                      5                      6
                      A                      A                      A
 Frequencies --    194.7075               205.3570               241.3321
 Red. masses --      3.6551                 1.8593                 1.5346
 Frc consts  --      0.0816                 0.0462                 0.0527
 IR Inten    --      2.7015                 1.5305                 1.0790

                      7                      8                      9
                      A                      A                      A
 Frequencies --    281.1007               411.2840               455.3631
 Red. masses --      2.9123                 3.6563                 3.6910
 Frc consts  --      0.1356                 0.3644                 0.4509
 IR Inten    --      1.1238                 3.9516                 5.8908

                     10                     11                     12
                      A                      A                      A
 Frequencies --    472.3422               536.1530               628.4581
 Red. masses --      2.9919                 5.5017                 1.2337
 Frc consts  --      0.3933                 0.9318                 0.2871
 IR Inten    --      2.1672                 1.9866                39.8467

                     13                     14                     15
                      A                      A                      A
 Frequencies --    663.7787               714.0274               779.2604
 Red. masses --      1.2525                 4.0197                 1.7265
 Frc consts  --      0.3252                 1.2075                 0.6177
 IR Inten    --     34.0381                11.0841                 1.5257

                     16                     17                     18
                      A                      A                      A
 Frequencies --    785.7034               841.8555               875.3985
 Red. masses --      4.6430                 3.7738                 1.7289
 Frc consts  --      1.6887                 1.5758                 0.7806
 IR Inten    --      6.0860                10.1800                16.1918

                     19                     20                     21
                      A                      A                      A
 Frequencies --    943.2247               994.2765              1000.6099
 Red. masses --      1.8950                 2.2446                 5.2376
 Frc consts  --      0.9933                 1.3074                 3.0897
 IR Inten    --     42.2809                12.0525                72.8733

                     22                     23                     24
                      A                      A                      A
 Frequencies --   1013.9474              1069.5356              1104.7701
 Red. masses --      3.6911                 3.3747                 1.9260
 Frc consts  --      2.2358                 2.2744                 1.3850
 IR Inten    --     17.6119                17.3730                26.5540

                     25                     26                     27
                      A                      A                      A
 Frequencies --   1118.9905              1146.8364              1173.9199
 Red. masses --      2.2369                 2.7273                 2.4937
 Frc consts  --      1.6503                 2.1134                 2.0248
 IR Inten    --     33.5921               113.6977               102.7106

                     28                     29                     30
                      A                      A                      A
 Frequencies --   1247.7905              1274.1721              1287.6141
 Red. masses --      1.2111                 1.3409                 1.2834
 Frc consts  --      1.1110                 1.2826                 1.2536
 IR Inten    --     18.1133                 1.9751                 5.9657

                     31                     32                     33
                      A                      A                      A
 Frequencies --   1327.5470              1351.0151              1371.3798
 Red. masses --      1.2739                 1.2767                 1.3081
 Frc consts  --      1.3228                 1.3729                 1.4495
 IR Inten    --      8.4646                 2.0005                28.4054

                     34                     35                     36
                      A                      A                      A
 Frequencies --   1388.9142              1411.6098              1435.1478
 Red. masses --      1.2901                 1.2795                 1.4964
 Frc consts  --      1.4664                 1.5022                 1.8159
 IR Inten    --     12.7353                 0.7651                41.5659

                     37                     38                     39
                      A                      A                      A
 Frequencies --   1477.0474              1499.2014              1509.1901
 Red. masses --      1.0781                 1.0423                 1.0814
 Frc consts  --      1.3858                 1.3803                 1.4512
 IR Inten    --      1.7277                 5.0440                 1.0063

                     40                     41                     42
                      A                      A                      A
 Frequencies --   1511.3932              2236.8589              2928.5622
 Red. masses --      1.0901                 5.8939                 1.0826
 Frc consts  --      1.4671                17.3752                 5.4707
 IR Inten    --      8.0199                 1.7566                89.2938

                     43                     44                     45
                      A                      A                      A
 Frequencies --   2990.4304              3038.6503              3041.1023
 Red. masses --      1.0705                 1.0381                 1.0833
 Frc consts  --      5.6405                 5.6476                 5.9026
 IR Inten    --     61.0000                25.5060                33.0756

                     46                     47                     48
                      A                      A                      A
 Frequencies --   3043.6614              3086.4189              3107.8105
 Red. masses --      1.0599                 1.1005                 1.1006
 Frc consts  --      5.7853                 6.1769                 6.2632
 IR Inten    --     19.5878                 7.5394                37.0218

                     49                     50                     51
                      A                      A                      A
 Frequencies --   3124.0564              3132.6106              3502.3304
 Red. masses --      1.1022                 1.0949                 1.1630
 Frc consts  --      6.3381                 6.3307                 8.4050
 IR Inten    --     25.9371                14.6194                61.3750

 - Thermochemistry -
 -------------------
 Temperature   298.150 Kelvin.  Pressure   1.00000 Atm.
 Atom     1 has atomic number  6 and mass  12.00000

 Molecular mass:   126.06808 amu.
 Principal axes and moments of inertia in atomic units:
                           1         2         3
     Eigenvalues --   680.771231529.265981841.80912
           X            0.99944   0.03340  -0.00121
           Y           -0.03331   0.99850   0.04356
           Z            0.00266  -0.04349   0.99905
 This molecule is an asymmetric top.
 Rotational symmetry number  1.
 Warning -- assumption of classical behavior for rotation
           may cause significant error
 Rotational temperatures (Kelvin)      0.12723     0.05664     0.04703
 Rotational constants (GHZ):           2.65102     1.18014     0.97987
 Zero-point vibrational energy     414083.7 (Joules/Mol)
                                   98.96839 (Kcal/Mol)
 Warning -- explicit consideration of  11 degrees of freedom as
           vibrations may cause significant error
 Vibrational temperatures:     30.21   129.81   203.48   280.14   295.46
          (Kelvin)            347.22   404.44   591.75   655.17   679.59
                              771.40   904.21   955.03  1027.32  1121.18
                             1130.45  1211.24  1259.50  1357.09  1430.54
                             1439.65  1458.84  1538.82  1589.52  1609.98
                             1650.04  1689.01  1795.29  1833.25  1852.59
                             1910.04  1943.81  1973.11  1998.34  2030.99
                             2064.85  2125.14  2157.01  2171.39  2174.56
                             3218.34  4213.54  4302.56  4371.93  4375.46
                             4379.14  4440.66  4471.44  4494.81  4507.12
                             5039.07

 Zero-point correction=                           0.157716 (Hartree/Particle)
 Thermal correction to Energy=                    0.166975
 Thermal correction to Enthalpy=                  0.167919
 Thermal correction to Gibbs Free Energy=         0.122411
 Sum of electronic and zero-point Energies=           -422.995664
 Sum of electronic and thermal Energies=              -422.986405
 Sum of electronic and thermal Enthalpies=            -422.985461
 Sum of electronic and thermal Free Energies=         -423.030969

                     E (Thermal)             CV                S
                      KCal/Mol        Cal/Mol-Kelvin    Cal/Mol-Kelvin
 Total                  104.778             33.768             95.780
 Electronic               0.000              0.000              0.000
 Translational            0.889              2.981             40.409
 Rotational               0.889              2.981             29.040
 Vibrational            103.001             27.807             26.331
 Vibration     1          0.593              1.986              6.537
 Vibration     2          0.602              1.956              3.655
 Vibration     3          0.615              1.912              2.784
 Vibration     4          0.635              1.847              2.183
 Vibration     5          0.640              1.832              2.085
 Vibration     6          0.658              1.777              1.793
 Vibration     7          0.681              1.709              1.527
 Vibration     8          0.775              1.446              0.922
 Vibration     9          0.814              1.349              0.780
 Vibration    10          0.829              1.311              0.731
 Vibration    11          0.891              1.170              0.574

 Normal termination of Gaussian 09 at Tue Jan 28 12:39:28 2020.
