 Gaussian 09, Revision D.01,
 Gaussian 09:  ES64L-G09RevD.01 24-Apr-2013

 -----------------------------
 # b3lyp 6-31G(2df,p) opt Freq
 -----------------------------

 -----
 titel
 -----
 Symbolic Z-matrix:
 Charge =  0 Multiplicity = 1

 SCF Done:  E(RB3LYP) =  -423.173279734     A.U. after   14 cycles
 Optimization completed.
    -- Stationary point found.
 Normal termination of Gaussian 09 at Mon Jan 27 15:33:27 2020.

 ----------------------------------------------------------------------
 #N Geom=AllCheck Guess=TCheck SCRF=Check GenChk RB3LYP/6-31G(2df,p) Fr
 eq
 ----------------------------------------------------------------------

 Structure from the checkpoint file:  "/scratch/puck/g09_de45c347-f6fa-49cf-a0ec-bc4762a5b2a9/Gau-174890.chk"
 -----
 titel
 -----
 Charge =  0 Multiplicity = 1

                         Standard orientation:
 ---------------------------------------------------------------------
 Center     Atomic      Atomic             Coordinates (Angstroms)
 Number     Number       Type             X           Y           Z
 ---------------------------------------------------------------------
      1          6           0        2.341937   -0.921551    0.143344
      2          6           0        1.511101    0.285746   -0.282320
      3          8           0        1.781320    1.438956    0.511453
      4          6           0        0.017245    0.026469   -0.313697
      5          8           0       -0.415293   -1.213644   -0.926510
      6          6           0       -0.739897   -0.991794    0.449691
      7          6           0       -2.151484   -0.466884    0.681564
      8          6           0       -2.140521    0.868389   -0.037334
      9          6           0       -0.945032    1.150563   -0.558451
     10          1           0        2.136632   -1.188569    1.186822
     11          1           0        2.110616   -1.787181   -0.482174
     12          1           0        3.405948   -0.688531    0.057578
     13          1           0        1.812458    0.581934   -1.295566
     14          1           0        1.505373    1.241798    1.413708
     15          1           0       -0.284803   -1.687495    1.149362
     16          1           0       -2.905875   -1.151869    0.275729
     17          1           0       -2.364717   -0.356959    1.752835
     18          1           0       -3.028352    1.483688   -0.129662
     19          1           0       -0.675584    2.045060   -1.104962
 ---------------------------------------------------------------------

 SCF Done:  E(RB3LYP) =  -423.173279734     A.U. after    1 cycles

 The electronic state is 1-A.
 Alpha  occ. eigenvalues --  -19.14691 -19.13893 -10.23749 -10.23645 -10.23546
 Alpha  occ. eigenvalues --  -10.19407 -10.18838 -10.18191 -10.17600  -1.06822
 Alpha  occ. eigenvalues --   -1.02012  -0.81838  -0.76119  -0.71643  -0.66584
 Alpha  occ. eigenvalues --   -0.62475  -0.56743  -0.54992  -0.52933  -0.46282
 Alpha  occ. eigenvalues --   -0.45742  -0.44870  -0.43699  -0.41055  -0.39879
 Alpha  occ. eigenvalues --   -0.38908  -0.37458  -0.36833  -0.35799  -0.33569
 Alpha  occ. eigenvalues --   -0.29874  -0.28271  -0.25517  -0.24457
 Alpha virt. eigenvalues --    0.00394   0.07726   0.09895   0.10493   0.12472
 Alpha virt. eigenvalues --    0.13524   0.14615   0.15434   0.16195   0.16691
 Alpha virt. eigenvalues --    0.17258   0.17924   0.20064   0.20354   0.21267

 Mulliken charges:
               1
     1  C   -0.410094
     2  C    0.022976
     3  O   -0.422112
     4  C    0.366915
     5  O   -0.301684
     6  C   -0.041850
     7  C   -0.293357
     8  C   -0.085907
     9  C   -0.117948
    10  H    0.103756
    11  H    0.139524
    12  H    0.122816
    13  H    0.099046
    14  H    0.278667
    15  H    0.093797
    16  H    0.127475
    17  H    0.110266
    18  H    0.101691
    19  H    0.106023
 Sum of Mulliken charges =   0.00000

 Dipole moment (field-independent basis, Debye):
    X=             -0.6924    Y=             -0.2157    Z=              1.8970  Tot=              2.0309
 Quadrupole moment (field-independent basis, Debye-Ang):
   XX=            -51.4147   YY=            -56.1676   ZZ=            -51.1970
   XY=             -3.0913   XZ=             -1.4261   YZ=             -2.9652

  Exact polarizability:  90.658  -0.669  72.381  -7.081  -5.900  63.628
 Approx polarizability: 123.583   6.110 109.848 -15.219  -6.026 105.054

                      1                      2                      3
                      A                      A                      A
 Frequencies --     58.7116               152.2543               195.3378
 Red. masses --      3.5446                 3.5828                 2.9469
 Frc consts  --      0.0072                 0.0489                 0.0663
 IR Inten    --      1.6940                 0.2949                 1.1772

                      4                      5                      6
                      A                      A                      A
 Frequencies --    245.2416               284.2949               312.6272
 Red. masses --      1.0708                 1.6733                 1.4731
 Frc consts  --      0.0379                 0.0797                 0.0848
 IR Inten    --      0.2604                42.9573                51.4752

                      7                      8                      9
                      A                      A                      A
 Frequencies --    359.2210               386.8613               466.1980
 Red. masses --      2.9036                 3.5708                 4.5718
 Frc consts  --      0.2208                 0.3149                 0.5854
 IR Inten    --     11.3481                21.8974                 1.5651

                     10                     11                     12
                      A                      A                      A
 Frequencies --    480.9532               550.4340               610.1603
 Red. masses --      2.7238                 2.8997                 3.1727
 Frc consts  --      0.3712                 0.5176                 0.6959
 IR Inten    --     17.6560                 9.5940                13.0899

                     13                     14                     15
                      A                      A                      A
 Frequencies --    725.0104               749.5314               797.0625
 Red. masses --      1.8327                 3.2449                 4.1263
 Frc consts  --      0.5676                 1.0741                 1.5445
 IR Inten    --     13.2453                 2.7178                 7.7247

                     16                     17                     18
                      A                      A                      A
 Frequencies --    871.2550               890.3529               923.1458
 Red. masses --      3.9864                 2.3204                 3.1215
 Frc consts  --      1.7829                 1.0838                 1.5673
 IR Inten    --     18.8665                 1.4557                20.7075

                     19                     20                     21
                      A                      A                      A
 Frequencies --    933.0740               954.3179               967.6190
 Red. masses --      2.1760                 1.3697                 1.9555
 Frc consts  --      1.1162                 0.7350                 1.0787
 IR Inten    --     22.6630                 0.9361                 8.7864

                     22                     23                     24
                      A                      A                      A
 Frequencies --    993.9347              1040.1864              1059.3735
 Red. masses --      1.6308                 2.1945                 1.5882
 Frc consts  --      0.9492                 1.3989                 1.0502
 IR Inten    --      2.0922                 6.6448                32.4048

                     25                     26                     27
                      A                      A                      A
 Frequencies --   1089.7803              1120.7240              1142.2652
 Red. masses --      2.0382                 1.4255                 1.6096
 Frc consts  --      1.4262                 1.0549                 1.2373
 IR Inten    --     17.1665                39.4719                36.3380

                     28                     29                     30
                      A                      A                      A
 Frequencies --   1184.8943              1205.1271              1280.8499
 Red. masses --      1.2304                 2.1435                 1.5071
 Frc consts  --      1.0178                 1.8342                 1.4568
 IR Inten    --      1.5865                 9.0247                 2.9229

                     31                     32                     33
                      A                      A                      A
 Frequencies --   1301.4941              1312.2687              1351.5306
 Red. masses --      1.4502                 1.6863                 1.7979
 Frc consts  --      1.4474                 1.7109                 1.9349
 IR Inten    --      9.9073                 0.9526                14.1367

                     34                     35                     36
                      A                      A                      A
 Frequencies --   1379.3807              1399.9320              1416.5445
 Red. masses --      1.5965                 1.3667                 1.1910
 Frc consts  --      1.7898                 1.5781                 1.4081
 IR Inten    --      0.6858                 9.8402                49.2391

                     37                     38                     39
                      A                      A                      A
 Frequencies --   1435.4051              1459.4875              1491.4255
 Red. masses --      3.2077                 1.1151                 1.0507
 Frc consts  --      3.8940                 1.3995                 1.3769
 IR Inten    --      3.2526                 4.3393                 7.2152

                     40                     41                     42
                      A                      A                      A
 Frequencies --   1498.5277              1666.2911              3026.2118
 Red. masses --      1.0724                 6.3929                 1.0615
 Frc consts  --      1.4188                10.4580                 5.7276
 IR Inten    --      1.8396                 3.7890                26.5432

                     43                     44                     45
                      A                      A                      A
 Frequencies --   3027.7663              3036.8146              3062.2669
 Red. masses --      1.0758                 1.0471                 1.0996
 Frc consts  --      5.8109                 5.6897                 6.0756
 IR Inten    --     10.5918                26.2627                12.4143

                     46                     47                     48
                      A                      A                      A
 Frequencies --   3107.8877              3135.9248              3150.5304
 Red. masses --      1.0951                 1.1027                 1.0908
 Frc consts  --      6.2321                 6.3892                 6.3791
 IR Inten    --     26.7883                12.4074                24.1133

                     49                     50                     51
                      A                      A                      A
 Frequencies --   3193.3723              3225.2311              3797.3352
 Red. masses --      1.0873                 1.1023                 1.0659
 Frc consts  --      6.5327                 6.7555                 9.0559
 IR Inten    --      8.5471                10.4030                11.3812

 - Thermochemistry -
 -------------------
 Temperature   298.150 Kelvin.  Pressure   1.00000 Atm.
 Atom     1 has atomic number  6 and mass  12.00000

 Molecular mass:   126.06808 amu.
 Principal axes and moments of inertia in atomic units:
                           1         2         3
     Eigenvalues --   599.321031313.781951607.40862
           X            0.99935  -0.03514  -0.00767
           Y            0.03463   0.99766  -0.05896
           Z            0.00973   0.05866   0.99823
 This molecule is an asymmetric top.
 Rotational symmetry number  1.
 Warning -- assumption of classical behavior for rotation
           may cause significant error
 Rotational temperatures (Kelvin)      0.14452     0.06593     0.05388
 Rotational constants (GHZ):           3.01131     1.37370     1.12276
 Zero-point vibrational energy     415740.8 (Joules/Mol)
                                   99.36443 (Kcal/Mol)
 Warning -- explicit consideration of  12 degrees of freedom as
           vibrations may cause significant error
 Vibrational temperatures:     84.47   219.06   281.05   352.85   409.04
          (Kelvin)            449.80   516.84   556.61   670.75   691.98
                              791.95   877.88  1043.13  1078.41  1146.79
                             1253.54  1281.02  1328.20  1342.48  1373.05
                             1392.19  1430.05  1496.59  1524.20  1567.95
                             1612.47  1643.46  1704.80  1733.91  1842.85
                             1872.56  1888.06  1944.55  1984.62  2014.19
                             2038.09  2065.23  2099.87  2145.83  2156.04
                             2397.42  4354.04  4356.27  4369.29  4405.91
                             4471.55  4511.89  4532.90  4594.54  4640.38
                             5463.51

 Zero-point correction=                           0.158347 (Hartree/Particle)
 Thermal correction to Energy=                    0.166917
 Thermal correction to Enthalpy=                  0.167861
 Thermal correction to Gibbs Free Energy=         0.125202
 Sum of electronic and zero-point Energies=           -423.014932
 Sum of electronic and thermal Energies=              -423.006363
 Sum of electronic and thermal Enthalpies=            -423.005419
 Sum of electronic and thermal Free Energies=         -423.048078

                     E (Thermal)             CV                S
                      KCal/Mol        Cal/Mol-Kelvin    Cal/Mol-Kelvin
 Total                  104.742             33.141             89.783
 Electronic               0.000              0.000              0.000
 Translational            0.889              2.981             40.409
 Rotational               0.889              2.981             28.628
 Vibrational            102.964             27.179             20.747
 Vibration     1          0.596              1.974              4.500
 Vibration     2          0.619              1.900              2.644
 Vibration     3          0.636              1.846              2.177
 Vibration     4          0.660              1.771              1.765
 Vibration     5          0.683              1.703              1.508
 Vibration     6          0.701              1.650              1.348
 Vibration     7          0.734              1.556              1.125
 Vibration     8          0.755              1.498              1.012
 Vibration     9          0.824              1.325              0.748
 Vibration    10          0.837              1.292              0.708
 Vibration    11          0.906              1.139              0.543
 Vibration    12          0.969              1.010              0.433

 Optimization completed.
    -- Stationary point found.
 Normal termination of Gaussian 09 at Mon Jan 27 16:15:28 2020.
