 Gaussian 09, Revision D.01,
 Gaussian 09:  ES64L-G09RevD.01 24-Apr-2013

 -----------------------------
 # b3lyp 6-31G(2df,p) opt Freq
 -----------------------------

 -----
 titel
 -----
 Symbolic Z-matrix:
 Charge =  0 Multiplicity = 1

 SCF Done:  E(RB3LYP) =  -423.180317485     A.U. after   14 cycles
 Optimization completed.
    -- Stationary point found.
 Normal termination of Gaussian 09 at Tue Jan 28 03:07:14 2020.

 ----------------------------------------------------------------------
 #N Geom=AllCheck Guess=TCheck SCRF=Check GenChk RB3LYP/6-31G(2df,p) Fr
 eq
 ----------------------------------------------------------------------

 Structure from the checkpoint file:  "/scratch/puck/g09_89249d61-361b-4011-a51a-6fe6f91380ae/Gau-65596.chk"
 -----
 titel
 -----
 Charge =  0 Multiplicity = 1

                         Standard orientation:
 ---------------------------------------------------------------------
 Center     Atomic      Atomic             Coordinates (Angstroms)
 Number     Number       Type             X           Y           Z
 ---------------------------------------------------------------------
      1          8           0       -1.492232   -1.570588   -0.623223
      2          6           0       -1.413549   -0.597608    0.415842
      3          6           0       -0.045864   -0.637258    1.123297
      4          6           0        0.975886    0.086637    0.274711
      5          6           0        2.328071   -0.441502    0.075957
      6          8           0        1.333496   -0.617010   -0.940344
      7          6           0        0.661106    1.554126    0.070001
      8          6           0       -0.801031    1.744967   -0.254235
      9          6           0       -1.718984    0.790021   -0.106176
     10          1           0       -0.726143   -1.429485   -1.194112
     11          1           0       -2.192884   -0.891960    1.128332
     12          1           0       -0.118526   -0.145503    2.101098
     13          1           0        0.243324   -1.679488    1.283541
     14          1           0        3.140337    0.234062   -0.190318
     15          1           0        2.634372   -1.349694    0.593851
     16          1           0        0.929585    2.127032    0.970338
     17          1           0        1.283741    1.945455   -0.742482
     18          1           0       -1.088396    2.720403   -0.639604
     19          1           0       -2.749327    0.973661   -0.398491
 ---------------------------------------------------------------------

 SCF Done:  E(RB3LYP) =  -423.180317485     A.U. after    1 cycles

 The electronic state is 1-A.
 Alpha  occ. eigenvalues --  -19.15471 -19.12128 -10.24701 -10.23800 -10.23160
 Alpha  occ. eigenvalues --  -10.19639 -10.18905 -10.18630 -10.17911  -1.07270
 Alpha  occ. eigenvalues --   -1.00475  -0.82549  -0.74543  -0.73133  -0.66668
 Alpha  occ. eigenvalues --   -0.62878  -0.58809  -0.53013  -0.50377  -0.49238
 Alpha  occ. eigenvalues --   -0.46549  -0.45733  -0.43518  -0.42213  -0.41822
 Alpha  occ. eigenvalues --   -0.38928  -0.37570  -0.35741  -0.35361  -0.32169
 Alpha  occ. eigenvalues --   -0.29846  -0.27217  -0.26371  -0.24613
 Alpha virt. eigenvalues --    0.01443   0.08338   0.09732   0.09778   0.12253
 Alpha virt. eigenvalues --    0.13066   0.14313   0.14679   0.15627   0.16435
 Alpha virt. eigenvalues --    0.17613   0.17908   0.18833   0.21758   0.22681

 Mulliken charges:
               1
     1  O   -0.441529
     2  C    0.096842
     3  C   -0.314167
     4  C    0.410142
     5  C   -0.252164
     6  O   -0.286037
     7  C   -0.321625
     8  C   -0.050494
     9  C   -0.080521
    10  H    0.294063
    11  H    0.083458
    12  H    0.103687
    13  H    0.109297
    14  H    0.113670
    15  H    0.116482
    16  H    0.113945
    17  H    0.118533
    18  H    0.092502
    19  H    0.093916
 Sum of Mulliken charges =   0.00000

 Dipole moment (field-independent basis, Debye):
    X=              1.6349    Y=              1.8463    Z=              1.7296  Tot=              3.0122
 Quadrupole moment (field-independent basis, Debye-Ang):
   XX=            -51.5007   YY=            -53.9298   ZZ=            -53.6944
   XY=             -2.3521   XZ=              0.2673   YZ=             -2.4376

  Exact polarizability:  89.275   2.346  79.247  -0.503  -3.736  59.772
 Approx polarizability: 124.697  11.381 118.154  -1.519  -0.292  96.699

                      1                      2                      3
                      A                      A                      A
 Frequencies --    107.8492               133.2020               268.0400
 Red. masses --      3.8002                 4.4257                 3.0588
 Frc consts  --      0.0260                 0.0463                 0.1295
 IR Inten    --      1.2682                 3.0943                 0.3861

                      4                      5                      6
                      A                      A                      A
 Frequencies --    303.0377               346.3842               377.5233
 Red. masses --      2.9707                 3.0391                 2.3022
 Frc consts  --      0.1607                 0.2148                 0.1933
 IR Inten    --      2.6204                 3.0189                 9.4809

                      7                      8                      9
                      A                      A                      A
 Frequencies --    396.8992               430.5286               484.0643
 Red. masses --      1.7738                 1.4565                 2.7662
 Frc consts  --      0.1646                 0.1591                 0.3819
 IR Inten    --     14.1080                78.8376                 7.4787

                     10                     11                     12
                      A                      A                      A
 Frequencies --    513.7861               605.9794               675.9246
 Red. masses --      3.1313                 3.2606                 4.5555
 Frc consts  --      0.4870                 0.7054                 1.2263
 IR Inten    --      3.3513                 4.0341                 4.1407

                     13                     14                     15
                      A                      A                      A
 Frequencies --    747.7085               787.8189               819.7492
 Red. masses --      1.5768                 4.8480                 2.9632
 Frc consts  --      0.5194                 1.7728                 1.1732
 IR Inten    --     23.5318                15.7129                 9.8683

                     16                     17                     18
                      A                      A                      A
 Frequencies --    892.8874               915.7471               936.4931
 Red. masses --      2.0503                 1.8846                 2.8117
 Frc consts  --      0.9631                 0.9312                 1.4529
 IR Inten    --      8.9593                 1.4375                 2.5341

                     19                     20                     21
                      A                      A                      A
 Frequencies --    954.2456               987.1899              1001.3899
 Red. masses --      2.1053                 1.7539                 4.9298
 Frc consts  --      1.1295                 1.0071                 2.9126
 IR Inten    --     15.9204                 9.5110                41.7271

                     22                     23                     24
                      A                      A                      A
 Frequencies --   1011.3692              1061.3254              1074.2008
 Red. masses --      1.3822                 2.1953                 2.2540
 Frc consts  --      0.8330                 1.4570                 1.5324
 IR Inten    --      0.0979                29.7883                41.7961

                     25                     26                     27
                      A                      A                      A
 Frequencies --   1124.7905              1156.5453              1165.3097
 Red. masses --      1.2612                 1.2508                 1.3180
 Frc consts  --      0.9401                 0.9857                 1.0545
 IR Inten    --      4.2949                22.5253                 1.1807

                     28                     29                     30
                      A                      A                      A
 Frequencies --   1198.1750              1232.6726              1280.0128
 Red. masses --      1.0913                 1.2373                 1.5760
 Frc consts  --      0.9231                 1.1077                 1.5214
 IR Inten    --      6.8689                 8.9501                 2.5629

                     31                     32                     33
                      A                      A                      A
 Frequencies --   1288.3739              1325.9383              1336.8503
 Red. masses --      1.6023                 1.6414                 1.6750
 Frc consts  --      1.5671                 1.7003                 1.7637
 IR Inten    --      1.7705                 6.0794                 5.4233

                     34                     35                     36
                      A                      A                      A
 Frequencies --   1374.3956              1408.3503              1436.3964
 Red. masses --      1.7205                 1.5502                 1.7143
 Frc consts  --      1.9148                 1.8116                 2.0839
 IR Inten    --     12.2210                 3.3431                 8.1307

                     37                     38                     39
                      A                      A                      A
 Frequencies --   1445.5943              1455.6924              1474.5191
 Red. masses --      1.2236                 1.1169                 1.2051
 Frc consts  --      1.5066                 1.3944                 1.5437
 IR Inten    --     61.4333                 4.0578                12.7361

                     40                     41                     42
                      A                      A                      A
 Frequencies --   1530.5645              1716.5416              3000.1409
 Red. masses --      1.4306                 6.6569                 1.0684
 Frc consts  --      1.9746                11.5566                 5.6658
 IR Inten    --      3.1484                 3.9616                23.0745

                     43                     44                     45
                      A                      A                      A
 Frequencies --   3032.0428              3045.1628              3061.9680
 Red. masses --      1.0710                 1.0766                 1.0918
 Frc consts  --      5.8010                 5.8819                 6.0313
 IR Inten    --     11.2394                49.1514                12.8307

                     46                     47                     48
                      A                      A                      A
 Frequencies --   3079.8346              3098.4306              3147.9377
 Red. masses --      1.0510                 1.1006                 1.0843
 Frc consts  --      5.8734                 6.2256                 6.3306
 IR Inten    --     29.2602                17.6189                 8.8756

                     49                     50                     51
                      A                      A                      A
 Frequencies --   3165.4906              3173.5160              3777.8216
 Red. masses --      1.1191                 1.0967                 1.0659
 Frc consts  --      6.6070                 6.5075                 8.9628
 IR Inten    --     20.0565                29.5997                39.6276

 - Thermochemistry -
 -------------------
 Temperature   298.150 Kelvin.  Pressure   1.00000 Atm.
 Atom     1 has atomic number  8 and mass  15.99491

 Molecular mass:   126.06808 amu.
 Principal axes and moments of inertia in atomic units:
                           1         2         3
     Eigenvalues --   732.870921061.530461433.10566
           X            0.99988  -0.01401   0.00630
           Y            0.01424   0.99915  -0.03872
           Z           -0.00575   0.03881   0.99923
 This molecule is an asymmetric top.
 Rotational symmetry number  1.
 Warning -- assumption of classical behavior for rotation
           may cause significant error
 Rotational temperatures (Kelvin)      0.11818     0.08159     0.06044
 Rotational constants (GHZ):           2.46256     1.70013     1.25932
 Zero-point vibrational energy     420884.6 (Joules/Mol)
                                  100.59383 (Kcal/Mol)
 Warning -- explicit consideration of  11 degrees of freedom as
           vibrations may cause significant error
 Vibrational temperatures:    155.17   191.65   385.65   436.00   498.37
          (Kelvin)            543.17   571.05   619.43   696.46   739.22
                              871.87   972.50  1075.78  1133.49  1179.43
                             1284.66  1317.55  1347.40  1372.94  1420.34
                             1440.77  1455.13  1527.01  1545.53  1618.32
                             1664.01  1676.62  1723.90  1773.54  1841.65
                             1853.68  1907.73  1923.43  1977.45  2026.30
                             2066.65  2079.89  2094.41  2121.50  2202.14
                             2469.72  4316.53  4362.43  4381.30  4405.48
                             4431.19  4457.94  4529.17  4554.43  4565.98
                             5435.44

 Zero-point correction=                           0.160306 (Hartree/Particle)
 Thermal correction to Energy=                    0.168227
 Thermal correction to Enthalpy=                  0.169171
 Thermal correction to Gibbs Free Energy=         0.128153
 Sum of electronic and zero-point Energies=           -423.020011
 Sum of electronic and thermal Energies=              -423.012091
 Sum of electronic and thermal Enthalpies=            -423.011146
 Sum of electronic and thermal Free Energies=         -423.052165

                     E (Thermal)             CV                S
                      KCal/Mol        Cal/Mol-Kelvin    Cal/Mol-Kelvin
 Total                  105.564             31.624             86.330
 Electronic               0.000              0.000              0.000
 Translational            0.889              2.981             40.409
 Rotational               0.889              2.981             28.502
 Vibrational            103.786             25.662             17.419
 Vibration     1          0.606              1.943              3.307
 Vibration     2          0.613              1.920              2.899
 Vibration     3          0.673              1.732              1.609
 Vibration     4          0.694              1.668              1.400
 Vibration     5          0.724              1.583              1.183
 Vibration     6          0.748              1.518              1.049
 Vibration     7          0.763              1.477              0.974
 Vibration     8          0.792              1.404              0.857
 Vibration     9          0.840              1.285              0.699
 Vibration    10          0.869              1.219              0.625
 Vibration    11          0.965              1.019              0.439

 Normal termination of Gaussian 09 at Tue Jan 28 04:06:15 2020.
