 Gaussian 09, Revision D.01,
 Gaussian 09:  ES64L-G09RevD.01 24-Apr-2013

 -----------------------------
 # b3lyp 6-31G(2df,p) opt Freq
 -----------------------------

 -----
 titel
 -----
 Symbolic Z-matrix:
 Charge =  0 Multiplicity = 1

 SCF Done:  E(RB3LYP) =  -423.174763770     A.U. after   13 cycles
 Optimization completed.
    -- Stationary point found.
 Normal termination of Gaussian 09 at Tue Jan 28 12:40:45 2020.

 ----------------------------------------------------------------------
 #N Geom=AllCheck Guess=TCheck SCRF=Check GenChk RB3LYP/6-31G(2df,p) Fr
 eq
 ----------------------------------------------------------------------

 Structure from the checkpoint file:  "/scratch/puck/g09_518e5a97-59ba-44af-9576-22117d710ce2/Gau-30112.chk"
 -----
 titel
 -----
 Charge =  0 Multiplicity = 1

                         Standard orientation:
 ---------------------------------------------------------------------
 Center     Atomic      Atomic             Coordinates (Angstroms)
 Number     Number       Type             X           Y           Z
 ---------------------------------------------------------------------
      1          8           0        2.554700   -0.667044   -0.206040
      2          6           0        2.095350    0.648051    0.075216
      3          6           0        0.600651    0.710983    0.156074
      4          6           0       -0.228167    1.631511   -0.344885
      5          6           0       -1.689951    1.325745   -0.104106
      6          6           0       -1.652456   -0.104810    0.464223
      7          6           0       -1.525238   -1.267740   -0.547248
      8          8           0       -0.191839   -1.602112   -0.087756
      9          6           0       -0.171965   -0.425751    0.779463
     10          1           0        1.831310   -1.150544   -0.625493
     11          1           0        2.540717    0.935543    1.039354
     12          1           0        2.462520    1.369909   -0.671214
     13          1           0        0.094463    2.518989   -0.881065
     14          1           0       -2.141693    2.034123    0.602720
     15          1           0       -2.283579    1.394361   -1.025035
     16          1           0       -2.373702   -0.286448    1.260573
     17          1           0       -2.212144   -2.109840   -0.412326
     18          1           0       -1.533064   -0.960558   -1.600872
     19          1           0        0.142941   -0.700213    1.791313
 ---------------------------------------------------------------------

 SCF Done:  E(RB3LYP) =  -423.174763770     A.U. after    1 cycles

 The electronic state is 1-A.
 Alpha  occ. eigenvalues --  -19.14018 -19.11900 -10.23721 -10.23563 -10.22640
 Alpha  occ. eigenvalues --  -10.19858 -10.19620 -10.19183 -10.18775  -1.04161
 Alpha  occ. eigenvalues --   -1.00118  -0.84176  -0.75464  -0.69880  -0.68746
 Alpha  occ. eigenvalues --   -0.64246  -0.56226  -0.53351  -0.52266  -0.49295
 Alpha  occ. eigenvalues --   -0.45359  -0.44759  -0.43701  -0.42603  -0.41285
 Alpha  occ. eigenvalues --   -0.40820  -0.37742  -0.35293  -0.32690  -0.31927
 Alpha  occ. eigenvalues --   -0.30733  -0.27180  -0.25196  -0.24427
 Alpha virt. eigenvalues --    0.00338   0.08230   0.09074   0.10109   0.12079
 Alpha virt. eigenvalues --    0.13487   0.13841   0.15137   0.15585   0.16917
 Alpha virt. eigenvalues --    0.17341   0.17650   0.19749   0.20443   0.22661

 Mulliken charges:
               1
     1  O   -0.431414
     2  C   -0.143543
     3  C    0.275931
     4  C   -0.184447
     5  C   -0.279972
     6  C   -0.075146
     7  C   -0.083716
     8  O   -0.299375
     9  C    0.029111
    10  H    0.295122
    11  H    0.106729
    12  H    0.091301
    13  H    0.097239
    14  H    0.112204
    15  H    0.109061
    16  H    0.082906
    17  H    0.109449
    18  H    0.102876
    19  H    0.085685
 Sum of Mulliken charges =   0.00000

 Dipole moment (field-independent basis, Debye):
    X=             -2.9439    Y=              1.7957    Z=              0.0655  Tot=              3.4490
 Quadrupole moment (field-independent basis, Debye-Ang):
   XX=            -56.5606   YY=            -53.9192   ZZ=            -51.0931
   XY=              3.7631   XZ=              0.4911   YZ=             -0.0820

  Exact polarizability:  88.031  -1.404  79.016   3.765  -3.611  62.835
 Approx polarizability: 121.958 -11.224 119.775   9.075  -7.751  98.173

                      1                      2                      3
                      A                      A                      A
 Frequencies --     70.5761               112.6974               177.5186
 Red. masses --      3.9140                 2.8464                 4.4008
 Frc consts  --      0.0115                 0.0213                 0.0817
 IR Inten    --      7.5178                 1.0404                 0.9468

                      4                      5                      6
                      A                      A                      A
 Frequencies --    249.7785               306.7691               362.6792
 Red. masses --      2.7141                 2.8868                 2.6592
 Frc consts  --      0.0998                 0.1601                 0.2061
 IR Inten    --      2.3319                 3.0421                17.9855

                      7                      8                      9
                      A                      A                      A
 Frequencies --    390.5367               412.0777               541.4183
 Red. masses --      2.1178                 1.2168                 4.1887
 Frc consts  --      0.1903                 0.1217                 0.7234
 IR Inten    --     16.3397                87.7294                 3.4417

                     10                     11                     12
                      A                      A                      A
 Frequencies --    674.6080               728.1702               775.4063
 Red. masses --      5.0678                 4.7902                 2.8821
 Frc consts  --      1.3589                 1.4965                 1.0210
 IR Inten    --      3.2020                 2.6121                 0.8198

                     13                     14                     15
                      A                      A                      A
 Frequencies --    825.9557               858.0980               884.9431
 Red. masses --      1.4320                 2.3897                 2.2055
 Frc consts  --      0.5756                 1.0367                 1.0176
 IR Inten    --     10.5116                10.7772                 5.1703

                     16                     17                     18
                      A                      A                      A
 Frequencies --    920.9008               949.5655               969.9605
 Red. masses --      1.7053                 2.3739                 1.9257
 Frc consts  --      0.8521                 1.2611                 1.0675
 IR Inten    --      5.2541                 5.1232                 3.3283

                     19                     20                     21
                      A                      A                      A
 Frequencies --    979.5890              1000.7728              1021.7732
 Red. masses --      3.8131                 6.6185                 1.9814
 Frc consts  --      2.1558                 3.9056                 1.2188
 IR Inten    --     40.3258                67.6816                30.9949

                     22                     23                     24
                      A                      A                      A
 Frequencies --   1063.0161              1078.1787              1081.3485
 Red. masses --      3.2344                 2.2172                 1.9919
 Frc consts  --      2.1534                 1.5186                 1.3723
 IR Inten    --     40.9738                26.7033                 4.0829

                     25                     26                     27
                      A                      A                      A
 Frequencies --   1161.1431              1171.8411              1198.0393
 Red. masses --      1.1481                 2.0783                 1.2046
 Frc consts  --      0.9120                 1.6815                 1.0187
 IR Inten    --      2.0475                 3.6264                 0.3268

                     28                     29                     30
                      A                      A                      A
 Frequencies --   1233.5667              1240.0618              1258.7308
 Red. masses --      1.0963                 1.7441                 1.4308
 Frc consts  --      0.9829                 1.5802                 1.3356
 IR Inten    --      3.0460                 0.9205                 4.4883

                     31                     32                     33
                      A                      A                      A
 Frequencies --   1289.9435              1316.2434              1326.3817
 Red. masses --      1.2793                 1.8159                 1.4371
 Frc consts  --      1.2541                 1.8536                 1.4896
 IR Inten    --      0.2547                 6.8349                 8.9472

                     34                     35                     36
                      A                      A                      A
 Frequencies --   1336.1328              1360.5917              1377.6542
 Red. masses --      1.3616                 1.6032                 1.6688
 Frc consts  --      1.4322                 1.7487                 1.8661
 IR Inten    --      2.8148                 3.8460                 6.8547

                     37                     38                     39
                      A                      A                      A
 Frequencies --   1454.3891              1486.7156              1511.2801
 Red. masses --      1.2315                 1.0906                 1.0880
 Frc consts  --      1.5347                 1.4203                 1.4641
 IR Inten    --     99.4572                 2.4982                 0.2475

                     40                     41                     42
                      A                      A                      A
 Frequencies --   1518.0649              1711.1371              2977.3048
 Red. masses --      1.1000                 7.4989                 1.0611
 Frc consts  --      1.4936                12.9365                 5.5420
 IR Inten    --      0.9351                 0.5636                68.7050

                     43                     44                     45
                      A                      A                      A
 Frequencies --   3004.1458              3015.8124              3018.3092
 Red. masses --      1.0998                 1.0595                 1.0592
 Frc consts  --      5.8481                 5.6773                 5.6855
 IR Inten    --     35.5028                35.0378                68.5623

                     46                     47                     48
                      A                      A                      A
 Frequencies --   3042.3970              3060.1081              3070.8139
 Red. masses --      1.1015                 1.0869                 1.1071
 Frc consts  --      6.0074                 5.9964                 6.1511
 IR Inten    --     26.1077                33.7834                32.1799

                     49                     50                     51
                      A                      A                      A
 Frequencies --   3115.5812              3178.9900              3760.5349
 Red. masses --      1.0891                 1.0931                 1.0670
 Frc consts  --      6.2285                 6.5087                 8.8906
 IR Inten    --     37.5072                15.0386                83.2489

 - Thermochemistry -
 -------------------
 Temperature   298.150 Kelvin.  Pressure   1.00000 Atm.
 Atom     1 has atomic number  8 and mass  15.99491

 Molecular mass:   126.06808 amu.
 Principal axes and moments of inertia in atomic units:
                           1         2         3
     Eigenvalues --   658.180311159.518981618.36988
           X            0.99976   0.02107   0.00528
           Y           -0.02103   0.99976  -0.00659
           Z           -0.00542   0.00647   0.99996
 This molecule is an asymmetric top.
 Rotational symmetry number  1.
 Warning -- assumption of classical behavior for rotation
           may cause significant error
 Rotational temperatures (Kelvin)      0.13160     0.07470     0.05352
 Rotational constants (GHZ):           2.74202     1.55646     1.11516
 Zero-point vibrational energy     422474.7 (Joules/Mol)
                                  100.97387 (Kcal/Mol)
 Warning -- explicit consideration of   9 degrees of freedom as
           vibrations may cause significant error
 Vibrational temperatures:    101.54   162.15   255.41   359.38   441.37
          (Kelvin)            521.81   561.89   592.89   778.98   970.61
                             1047.67  1115.64  1188.36  1234.61  1273.23
                             1324.97  1366.21  1395.56  1409.41  1439.89
                             1470.10  1529.44  1551.26  1555.82  1670.62
                             1686.02  1723.71  1774.83  1784.17  1811.03
                             1855.94  1893.78  1908.37  1922.39  1957.59
                             1982.13  2092.54  2139.05  2174.39  2184.15
                             2461.94  4283.67  4322.29  4339.08  4342.67
                             4377.33  4402.81  4418.21  4482.62  4573.85
                             5410.56

 Zero-point correction=                           0.160912 (Hartree/Particle)
 Thermal correction to Energy=                    0.168913
 Thermal correction to Enthalpy=                  0.169857
 Thermal correction to Gibbs Free Energy=         0.128025
 Sum of electronic and zero-point Energies=           -423.013852
 Sum of electronic and thermal Energies=              -423.005851
 Sum of electronic and thermal Enthalpies=            -423.004907
 Sum of electronic and thermal Free Energies=         -423.046738

                     E (Thermal)             CV                S
                      KCal/Mol        Cal/Mol-Kelvin    Cal/Mol-Kelvin
 Total                  105.994             30.536             88.042
 Electronic               0.000              0.000              0.000
 Translational            0.889              2.981             40.409
 Rotational               0.889              2.981             28.603
 Vibrational            104.217             24.574             19.030
 Vibration     1          0.598              1.968              4.137
 Vibration     2          0.607              1.939              3.222
 Vibration     3          0.628              1.870              2.354
 Vibration     4          0.663              1.763              1.732
 Vibration     5          0.697              1.661              1.380
 Vibration     6          0.737              1.549              1.111
 Vibration     7          0.758              1.490              0.998
 Vibration     8          0.776              1.444              0.919
 Vibration     9          0.897              1.158              0.562

 Optimization completed.
    -- Stationary point found.
 Normal termination of Gaussian 09 at Tue Jan 28 13:25:01 2020.
