 Gaussian 09, Revision D.01,
 Gaussian 09:  ES64L-G09RevD.01 24-Apr-2013

 -----------------------------
 # b3lyp 6-31G(2df,p) opt Freq
 -----------------------------

 -----
 titel
 -----
 Symbolic Z-matrix:
 Charge =  0 Multiplicity = 1

 SCF Done:  E(RB3LYP) =  -423.172314062     A.U. after   14 cycles
 Optimization completed.
    -- Stationary point found.
 Normal termination of Gaussian 09 at Tue Jan 28 12:10:33 2020.

 ----------------------------------------------------------------------
 #N Geom=AllCheck Guess=TCheck SCRF=Check GenChk RB3LYP/6-31G(2df,p) Fr
 eq
 ----------------------------------------------------------------------

 Structure from the checkpoint file:  "/scratch/puck/g09_9b5a4543-f35b-4c37-9272-57d70c7ef0df/Gau-25568.chk"
 -----
 titel
 -----
 Charge =  0 Multiplicity = 1

                         Standard orientation:
 ---------------------------------------------------------------------
 Center     Atomic      Atomic             Coordinates (Angstroms)
 Number     Number       Type             X           Y           Z
 ---------------------------------------------------------------------
      1          6           0       -2.677303   -0.244009   -0.081168
      2          6           0       -1.482972   -0.501764    0.848723
      3          6           0       -0.155354   -0.255869    0.159785
      4          6           0        0.321325   -1.236244   -0.946508
      5          8           0        1.639673   -1.343930   -0.369632
      6          6           0        1.291894   -0.477454    0.725090
      7          6           0        1.671531    0.997722    0.452119
      8          6           0        0.267310    1.192403   -0.157537
      9          8           0       -0.312834    2.130392   -0.624943
     10          1           0       -3.621849   -0.409346    0.445071
     11          1           0       -2.662220    0.783733   -0.452615
     12          1           0       -2.658256   -0.915052   -0.946997
     13          1           0       -1.560144    0.145072    1.731537
     14          1           0       -1.506714   -1.535247    1.217786
     15          1           0       -0.207007   -2.198223   -0.917834
     16          1           0        0.337867   -0.866242   -1.977859
     17          1           0        1.522740   -0.906276    1.702256
     18          1           0        1.794507    1.601227    1.358793
     19          1           0        2.527776    1.159936   -0.206552
 ---------------------------------------------------------------------

 SCF Done:  E(RB3LYP) =  -423.172314062     A.U. after    1 cycles

 The electronic state is 1-A.
 Alpha  occ. eigenvalues --  -19.14368 -19.14349 -10.27415 -10.24563 -10.24402
 Alpha  occ. eigenvalues --  -10.20576 -10.19733 -10.19530 -10.17969  -1.05714
 Alpha  occ. eigenvalues --   -1.04628  -0.83672  -0.77999  -0.71553  -0.65907
 Alpha  occ. eigenvalues --   -0.61678  -0.59726  -0.51105  -0.49552  -0.49048
 Alpha  occ. eigenvalues --   -0.47899  -0.44472  -0.43253  -0.41487  -0.41014
 Alpha  occ. eigenvalues --   -0.39781  -0.39244  -0.36880  -0.36712  -0.35357
 Alpha  occ. eigenvalues --   -0.31611  -0.29876  -0.25788  -0.24360
 Alpha virt. eigenvalues --   -0.02815   0.06400   0.09108   0.10555   0.12546
 Alpha virt. eigenvalues --    0.12707   0.13936   0.14310   0.15172   0.16324
 Alpha virt. eigenvalues --    0.16969   0.17659   0.18910   0.19308   0.21701

 Mulliken charges:
               1
     1  C   -0.387265
     2  C   -0.300239
     3  C    0.181622
     4  C   -0.122452
     5  O   -0.288559
     6  C    0.039824
     7  C   -0.360905
     8  C    0.357038
     9  O   -0.299830
    10  H    0.115562
    11  H    0.150847
    12  H    0.117313
    13  H    0.104600
    14  H    0.103870
    15  H    0.109688
    16  H    0.117494
    17  H    0.086128
    18  H    0.134607
    19  H    0.140657
 Sum of Mulliken charges =   0.00000

 Dipole moment (field-independent basis, Debye):
    X=             -0.3831    Y=             -1.2074    Z=              1.4533  Tot=              1.9279
 Quadrupole moment (field-independent basis, Debye-Ang):
   XX=            -54.1402   YY=            -59.5532   ZZ=            -50.9215
   XY=              5.5036   XZ=              0.9530   YZ=              2.4430

  Exact polarizability:  82.429   2.752  75.493   4.066   0.814  67.810
 Approx polarizability: 111.323  -3.319 115.241   7.045  -1.724 103.471

                      1                      2                      3
                      A                      A                      A
 Frequencies --     76.8046                99.6659               148.3597
 Red. masses --      3.5907                 2.9068                 2.9109
 Frc consts  --      0.0125                 0.0170                 0.0377
 IR Inten    --      3.9196                 3.2234                 0.4050

                      4                      5                      6
                      A                      A                      A
 Frequencies --    194.0317               233.5825               290.2894
 Red. masses --      1.9879                 1.5611                 2.0063
 Frc consts  --      0.0441                 0.0502                 0.0996
 IR Inten    --      1.3915                 2.0299                 1.3322

                      7                      8                      9
                      A                      A                      A
 Frequencies --    314.4253               410.5279               461.3229
 Red. masses --      3.2726                 2.5574                 3.1506
 Frc consts  --      0.1906                 0.2539                 0.3951
 IR Inten    --      0.6322                 2.8060                 2.3559

                     10                     11                     12
                      A                      A                      A
 Frequencies --    511.3243               616.6022               681.3862
 Red. masses --      2.2668                 4.2739                 3.5909
 Frc consts  --      0.3492                 0.9574                 0.9823
 IR Inten    --      0.8683                 1.8410                 6.0188

                     13                     14                     15
                      A                      A                      A
 Frequencies --    752.8487               792.8902               835.2107
 Red. masses --      2.5022                 1.2785                 2.4856
 Frc consts  --      0.8356                 0.4736                 1.0216
 IR Inten    --      3.9545                 1.0599                 9.5729

                     16                     17                     18
                      A                      A                      A
 Frequencies --    903.4343               924.8135               978.1723
 Red. masses --      2.1444                 2.5488                 2.7975
 Frc consts  --      1.0312                 1.2844                 1.5771
 IR Inten    --     10.5395                10.5528                 2.9551

                     19                     20                     21
                      A                      A                      A
 Frequencies --    989.7518              1003.3672              1009.8579
 Red. masses --      1.8185                 3.4233                 3.2743
 Frc consts  --      1.0496                 2.0306                 1.9674
 IR Inten    --      9.7613                 6.2768                10.0741

                     22                     23                     24
                      A                      A                      A
 Frequencies --   1042.3383              1057.9624              1113.2506
 Red. masses --      2.7763                 2.8097                 1.5589
 Frc consts  --      1.7772                 1.8529                 1.1383
 IR Inten    --     53.1430                69.3139                 7.6084

                     25                     26                     27
                      A                      A                      A
 Frequencies --   1125.7426              1150.2615              1169.6191
 Red. masses --      2.2357                 1.4509                 1.4767
 Frc consts  --      1.6693                 1.1311                 1.1902
 IR Inten    --      8.0353                 1.1883                 8.5645

                     28                     29                     30
                      A                      A                      A
 Frequencies --   1201.3660              1228.9460              1270.7968
 Red. masses --      2.3075                 1.7356                 1.6675
 Frc consts  --      1.9622                 1.5444                 1.5866
 IR Inten    --      6.1382                 8.0366                 2.9759

                     31                     32                     33
                      A                      A                      A
 Frequencies --   1302.2341              1324.1301              1355.9244
 Red. masses --      1.2799                 1.5241                 1.4038
 Frc consts  --      1.2788                 1.5744                 1.5207
 IR Inten    --      3.3237                21.2662                 2.8182

                     34                     35                     36
                      A                      A                      A
 Frequencies --   1365.9190              1410.9351              1416.5494
 Red. masses --      1.8783                 1.2215                 1.1115
 Frc consts  --      2.0648                 1.4327                 1.3141
 IR Inten    --      9.4290                 3.7991                10.7941

                     37                     38                     39
                      A                      A                      A
 Frequencies --   1487.2030              1498.3023              1511.1638
 Red. masses --      1.0642                 1.0406                 1.0681
 Frc consts  --      1.3868                 1.3764                 1.4370
 IR Inten    --      0.7761                 6.5487                 2.9126

                     40                     41                     42
                      A                      A                      A
 Frequencies --   1523.3730              1879.2453              3009.5085
 Red. masses --      1.0939                12.6664                 1.0582
 Frc consts  --      1.4957                26.3554                 5.6468
 IR Inten    --      0.4429               227.3624                54.1226

                     43                     44                     45
                      A                      A                      A
 Frequencies --   3018.6801              3037.7252              3050.8936
 Red. masses --      1.0594                 1.0393                 1.0631
 Frc consts  --      5.6880                 5.6507                 5.8302
 IR Inten    --     22.8807                22.5664                 2.4190

                     46                     47                     48
                      A                      A                      A
 Frequencies --   3053.2986              3064.2356              3094.8567
 Red. masses --      1.0983                 1.1074                 1.0899
 Frc consts  --      6.0329                 6.1266                 6.1507
 IR Inten    --     22.2007                30.1858                36.0246

                     49                     50                     51
                      A                      A                      A
 Frequencies --   3103.3147              3120.8002              3128.6448
 Red. masses --      1.1001                 1.1021                 1.1018
 Frc consts  --      6.2422                 6.3242                 6.3544
 IR Inten    --     35.5834                 4.5513                14.0148

 - Thermochemistry -
 -------------------
 Temperature   298.150 Kelvin.  Pressure   1.00000 Atm.
 Atom     1 has atomic number  6 and mass  12.00000

 Molecular mass:   126.06808 amu.
 Principal axes and moments of inertia in atomic units:
                           1         2         3
     Eigenvalues --   793.739391108.784361526.80962
           X            0.99523   0.09716   0.00833
           Y           -0.09734   0.99496   0.02403
           Z           -0.00595  -0.02473   0.99968
 This molecule is an asymmetric top.
 Rotational symmetry number  1.
 Warning -- assumption of classical behavior for rotation
           may cause significant error
 Rotational temperatures (Kelvin)      0.10912     0.07812     0.05673
 Rotational constants (GHZ):           2.27372     1.62768     1.18203
 Zero-point vibrational energy     414780.5 (Joules/Mol)
                                   99.13493 (Kcal/Mol)
 Warning -- explicit consideration of  11 degrees of freedom as
           vibrations may cause significant error
 Vibrational temperatures:    110.50   143.40   213.46   279.17   336.07
          (Kelvin)            417.66   452.39   590.66   663.74   735.68
                              887.15   980.36  1083.18  1140.79  1201.68
                             1299.84  1330.60  1407.37  1424.03  1443.62
                             1452.96  1499.69  1522.17  1601.72  1619.69
                             1654.97  1682.82  1728.50  1768.18  1828.39
                             1873.62  1905.13  1950.87  1965.25  2030.02
                             2038.10  2139.75  2155.72  2174.22  2191.79
                             2703.81  4330.01  4343.20  4370.60  4389.55
                             4393.01  4408.75  4452.80  4464.97  4490.13
                             4501.42

 Zero-point correction=                           0.157982 (Hartree/Particle)
 Thermal correction to Energy=                    0.166690
 Thermal correction to Enthalpy=                  0.167634
 Thermal correction to Gibbs Free Energy=         0.124359
 Sum of electronic and zero-point Energies=           -423.014333
 Sum of electronic and thermal Energies=              -423.005624
 Sum of electronic and thermal Enthalpies=            -423.004680
 Sum of electronic and thermal Free Energies=         -423.047955

                     E (Thermal)             CV                S
                      KCal/Mol        Cal/Mol-Kelvin    Cal/Mol-Kelvin
 Total                  104.600             32.347             91.080
 Electronic               0.000              0.000              0.000
 Translational            0.889              2.981             40.409
 Rotational               0.889              2.981             28.687
 Vibrational            102.822             26.385             21.984
 Vibration     1          0.599              1.965              3.971
 Vibration     2          0.604              1.949              3.461
 Vibration     3          0.618              1.904              2.693
 Vibration     4          0.635              1.848              2.189
 Vibration     5          0.654              1.790              1.851
 Vibration     6          0.686              1.692              1.472
 Vibration     7          0.702              1.646              1.339
 Vibration     8          0.775              1.447              0.925
 Vibration     9          0.819              1.336              0.762
 Vibration    10          0.866              1.225              0.630
 Vibration    11          0.976              0.997              0.422

 Optimization completed.
    -- Stationary point found.
 Normal termination of Gaussian 09 at Tue Jan 28 12:56:59 2020.
