 Gaussian 09, Revision D.01,
 Gaussian 09:  ES64L-G09RevD.01 24-Apr-2013

 -----------------------------
 # b3lyp 6-31G(2df,p) opt Freq
 -----------------------------

 -----
 titel
 -----
 Symbolic Z-matrix:
 Charge =  0 Multiplicity = 1

 SCF Done:  E(RB3LYP) =  -423.135043593     A.U. after   14 cycles
 SCF Done:  E(RB3LYP) =  -423.135043560     A.U. after    7 cycles
 SCF Done:  E(RB3LYP) =  -423.135043560     A.U. after    7 cycles
 Optimization completed.
    -- Stationary point found.
 Normal termination of Gaussian 09 at Tue Jan 28 00:52:39 2020.

 ----------------------------------------------------------------------
 #N Geom=AllCheck Guess=TCheck SCRF=Check GenChk RB3LYP/6-31G(2df,p) Fr
 eq
 ----------------------------------------------------------------------

 Structure from the checkpoint file:  "/scratch/puck/g09_447db454-af86-4b7b-9a5d-e1488b4cafbe/Gau-71690.chk"
 -----
 titel
 -----
 Charge =  0 Multiplicity = 1

                         Standard orientation:
 ---------------------------------------------------------------------
 Center     Atomic      Atomic             Coordinates (Angstroms)
 Number     Number       Type             X           Y           Z
 ---------------------------------------------------------------------
      1          6           0        0.202972    0.000082    1.698055
      2          6           0        0.390798   -0.000011    0.176301
      3          6           0        1.791314   -0.000056   -0.198823
      4          6           0        2.946055   -0.000359   -0.540803
      5          6           0       -0.516861    1.081514   -0.544538
      6          8           0       -0.980964    2.173850    0.203829
      7          6           0       -1.581968    0.000071   -0.795043
      8          6           0       -0.516999   -1.081486   -0.544483
      9          8           0       -0.981243   -2.173775    0.203893
     10          1           0        0.668061    0.886046    2.137559
     11          1           0       -0.854757    0.000191    1.966289
     12          1           0        0.667910   -0.885904    2.137674
     13          1           0        3.966698    0.000393   -0.833034
     14          1           0       -0.036714    1.406625   -1.475659
     15          1           0       -0.275478    2.826749    0.259404
     16          1           0       -2.317424    0.000104    0.013160
     17          1           0       -2.099758    0.000098   -1.755092
     18          1           0       -0.036914   -1.406675   -1.475603
     19          1           0       -0.275832   -2.826753    0.259529
 ---------------------------------------------------------------------

 SCF Done:  E(RB3LYP) =  -423.135043560     A.U. after    1 cycles

 The electronic state is 1-A.
 Alpha  occ. eigenvalues --  -19.14459 -19.14459 -10.23777 -10.23776 -10.20644
 Alpha  occ. eigenvalues --  -10.17944 -10.17748 -10.17497 -10.17009  -1.03064
 Alpha  occ. eigenvalues --   -1.02542  -0.84798  -0.75599  -0.71537  -0.64558
 Alpha  occ. eigenvalues --   -0.64104  -0.56254  -0.53117  -0.52610  -0.50567
 Alpha  occ. eigenvalues --   -0.49483  -0.44798  -0.41386  -0.39603  -0.38677
 Alpha  occ. eigenvalues --   -0.38596  -0.35567  -0.35422  -0.32193  -0.32166
 Alpha  occ. eigenvalues --   -0.28894  -0.28627  -0.25558  -0.23930
 Alpha virt. eigenvalues --    0.04621   0.05160   0.06458   0.08806   0.10961
 Alpha virt. eigenvalues --    0.12053   0.12977   0.15290   0.16023   0.16557
 Alpha virt. eigenvalues --    0.18062   0.19005   0.19148   0.20670   0.23429

 Mulliken charges:
               1
     1  C   -0.416620
     2  C    0.015360
     3  C    0.236677
     4  C   -0.449712
     5  C    0.105856
     6  O   -0.416974
     7  C   -0.281426
     8  C    0.105855
     9  O   -0.416990
    10  H    0.114530
    11  H    0.132353
    12  H    0.114534
    13  H    0.189505
    14  H    0.077427
    15  H    0.288541
    16  H    0.129603
    17  H    0.105500
    18  H    0.077432
    19  H    0.288545
 Sum of Mulliken charges =   0.00000

 Dipole moment (field-independent basis, Debye):
    X=              1.6243    Y=              0.0008    Z=             -0.7422  Tot=              1.7858
 Quadrupole moment (field-independent basis, Debye-Ang):
   XX=            -54.1631   YY=            -48.7966   ZZ=            -52.7441
   XY=              0.0037   XZ=              0.2893   YZ=             -0.0010

  Exact polarizability:  95.393  -0.003  71.097  -3.975   0.000  67.168
 Approx polarizability: 145.766  -0.014 100.553 -12.170   0.003  96.760

                      1                      2                      3
                      A                      A                      A
 Frequencies --     99.7898               118.6122               162.1429
 Red. masses --      3.3291                 4.4599                 3.8720
 Frc consts  --      0.0195                 0.0370                 0.0600
 IR Inten    --      1.4978                 0.8881                 0.0214

                      4                      5                      6
                      A                      A                      A
 Frequencies --    180.9038               242.7633               244.5981
 Red. masses --      1.0241                 3.1880                 3.4990
 Frc consts  --      0.0197                 0.1107                 0.1233
 IR Inten    --      0.1489                 0.8526                 0.0242

                      7                      8                      9
                      A                      A                      A
 Frequencies --    313.2710               320.3365               351.3359
 Red. masses --      1.0979                 1.2659                 2.4327
 Frc consts  --      0.0635                 0.0765                 0.1769
 IR Inten    --     74.8284               115.5995                38.4923

                     10                     11                     12
                      A                      A                      A
 Frequencies --    382.8433               480.5418               503.5419
 Red. masses --      4.3448                 4.4283                 3.8808
 Frc consts  --      0.3752                 0.6025                 0.5798
 IR Inten    --     18.4116                 8.2595                14.3396

                     13                     14                     15
                      A                      A                      A
 Frequencies --    533.5877               561.2568               590.4758
 Red. masses --      3.8933                 4.2015                 2.8529
 Frc consts  --      0.6531                 0.7798                 0.5861
 IR Inten    --      9.1145                 0.6812                 0.4832

                     16                     17                     18
                      A                      A                      A
 Frequencies --    612.8924               618.7878               719.2263
 Red. masses --      1.2866                 1.2181                 2.9030
 Frc consts  --      0.2847                 0.2748                 0.8848
 IR Inten    --     45.1915                44.8396                 2.0247

                     19                     20                     21
                      A                      A                      A
 Frequencies --    836.6663               901.9066               918.7852
 Red. masses --      2.5392                 2.8005                 1.8819
 Frc consts  --      1.0473                 1.3422                 0.9360
 IR Inten    --      0.1547                 3.6094                 6.5945

                     22                     23                     24
                      A                      A                      A
 Frequencies --    954.1498              1023.5336              1050.1616
 Red. masses --      1.7641                 2.5320                 1.9380
 Frc consts  --      0.9463                 1.5628                 1.2593
 IR Inten    --      6.7661                11.3918               139.5365

                     25                     26                     27
                      A                      A                      A
 Frequencies --   1104.3947              1136.4010              1159.8618
 Red. masses --      1.6472                 1.7519                 5.0780
 Frc consts  --      1.1837                 1.3330                 4.0249
 IR Inten    --      0.2945                17.8195                67.3110

                     28                     29                     30
                      A                      A                      A
 Frequencies --   1172.7897              1220.0372              1247.0210
 Red. masses --      4.4990                 2.4863                 1.4308
 Frc consts  --      3.6459                 2.1805                 1.3109
 IR Inten    --      5.3231                 2.9170                27.2809

                     31                     32                     33
                      A                      A                      A
 Frequencies --   1256.4324              1263.5739              1283.7110
 Red. masses --      1.2719                 1.2662                 1.2663
 Frc consts  --      1.1830                 1.1911                 1.2294
 IR Inten    --      1.4430                44.1022               103.7832

                     34                     35                     36
                      A                      A                      A
 Frequencies --   1343.5667              1413.4652              1421.9460
 Red. masses --      1.5897                 1.2315                 1.3632
 Frc consts  --      1.6907                 1.4497                 1.6240
 IR Inten    --     16.6845                 2.2566                 4.2931

                     37                     38                     39
                      A                      A                      A
 Frequencies --   1448.9749              1479.1505              1489.8511
 Red. masses --      1.3065                 1.0500                 1.1757
 Frc consts  --      1.6161                 1.3536                 1.5375
 IR Inten    --      2.3405                10.8143                 0.1472

                     40                     41                     42
                      A                      A                      A
 Frequencies --   1493.7316              2220.2442              3020.9622
 Red. masses --      1.0947                 6.0176                 1.0851
 Frc consts  --      1.4391                17.4772                 5.8349
 IR Inten    --      7.8706                11.2786                 6.6182

                     43                     44                     45
                      A                      A                      A
 Frequencies --   3027.0135              3054.9669              3079.3503
 Red. masses --      1.0864                 1.0349                 1.0586
 Frc consts  --      5.8648                 5.6909                 5.9140
 IR Inten    --     63.5733                16.7630                14.7819

                     46                     47                     48
                      A                      A                      A
 Frequencies --   3123.6193              3136.6447              3142.8268
 Red. masses --      1.1022                 1.1068                 1.1022
 Frc consts  --      6.3363                 6.4161                 6.4142
 IR Inten    --     18.3239                28.6312                10.0922

                     49                     50                     51
                      A                      A                      A
 Frequencies --   3502.0237              3813.4986              3813.8547
 Red. masses --      1.1592                 1.0661                 1.0661
 Frc consts  --      8.3763                 9.1348                 9.1361
 IR Inten    --     76.2651                41.3261                 6.5588

 - Thermochemistry -
 -------------------
 Temperature   298.150 Kelvin.  Pressure   1.00000 Atm.
 Atom     1 has atomic number  6 and mass  12.00000

 Molecular mass:   126.06808 amu.
 Principal axes and moments of inertia in atomic units:
                           1         2         3
     Eigenvalues --   990.303331128.937821573.59332
           X            0.99996   0.00006   0.00901
           Y           -0.00006   1.00000   0.00000
           Z           -0.00901   0.00000   0.99996
 This molecule is an asymmetric top.
 Rotational symmetry number  1.
 Warning -- assumption of classical behavior for rotation
           may cause significant error
 Rotational temperatures (Kelvin)      0.08746     0.07672     0.05504
 Rotational constants (GHZ):           1.82241     1.59862     1.14689
 Zero-point vibrational energy     410271.4 (Joules/Mol)
                                   98.05722 (Kcal/Mol)
 Warning -- explicit consideration of  17 degrees of freedom as
           vibrations may cause significant error
 Vibrational temperatures:    143.58   170.66   233.29   260.28   349.28
          (Kelvin)            351.92   450.73   460.89   505.49   550.83
                              691.39   724.48   767.71   807.52   849.56
                              881.81   890.30  1034.80  1203.77  1297.64
                             1321.93  1372.81  1472.63  1510.95  1588.98
                             1635.03  1668.78  1687.38  1755.36  1794.18
                             1807.72  1818.00  1846.97  1933.09  2033.66
                             2045.86  2084.75  2128.17  2143.56  2149.14
                             3194.43  4346.49  4355.19  4395.41  4430.49
                             4494.19  4512.93  4521.82  5038.62  5486.77
                             5487.28

 Zero-point correction=                           0.156264 (Hartree/Particle)
 Thermal correction to Energy=                    0.166115
 Thermal correction to Enthalpy=                  0.167060
 Thermal correction to Gibbs Free Energy=         0.122187
 Sum of electronic and zero-point Energies=           -422.978779
 Sum of electronic and thermal Energies=              -422.968928
 Sum of electronic and thermal Enthalpies=            -422.967984
 Sum of electronic and thermal Free Energies=         -423.012857

                     E (Thermal)             CV                S
                      KCal/Mol        Cal/Mol-Kelvin    Cal/Mol-Kelvin
 Total                  104.239             37.350             94.443
 Electronic               0.000              0.000              0.000
 Translational            0.889              2.981             40.409
 Rotational               0.889              2.981             28.955
 Vibrational            102.462             31.389             25.080
 Vibration     1          0.604              1.949              3.458
 Vibration     2          0.609              1.934              3.123
 Vibration     3          0.622              1.889              2.525
 Vibration     4          0.630              1.866              2.319
 Vibration     5          0.659              1.775              1.783
 Vibration     6          0.660              1.772              1.769
 Vibration     7          0.701              1.648              1.345
 Vibration     8          0.706              1.635              1.308
 Vibration     9          0.728              1.573              1.160
 Vibration    10          0.752              1.507              1.028
 Vibration    11          0.837              1.293              0.709
 Vibration    12          0.859              1.242              0.649
 Vibration    13          0.889              1.176              0.579
 Vibration    14          0.917              1.115              0.521
 Vibration    15          0.948              1.052              0.466
 Vibration    16          0.972              1.005              0.428
 Vibration    17          0.979              0.992              0.418

 Optimization completed.
    -- Stationary point found.
 Normal termination of Gaussian 09 at Tue Jan 28 01:34:41 2020.
