 Gaussian 09, Revision D.01,
 Gaussian 09:  ES64L-G09RevD.01 24-Apr-2013

 -----------------------------
 # b3lyp 6-31G(2df,p) opt Freq
 -----------------------------

 -----
 titel
 -----
 Symbolic Z-matrix:
 Charge =  0 Multiplicity = 1

 SCF Done:  E(RB3LYP) =  -423.201449111     A.U. after   14 cycles
 Optimization completed.
    -- Stationary point found.
 Normal termination of Gaussian 09 at Mon Jan 27 13:09:40 2020.

 ----------------------------------------------------------------------
 #N Geom=AllCheck Guess=TCheck SCRF=Check GenChk RB3LYP/6-31G(2df,p) Fr
 eq
 ----------------------------------------------------------------------

 Structure from the checkpoint file:  "/scratch/puck/g09_77feae66-d18e-4a81-8db1-d786def47417/Gau-156070.chk"
 -----
 titel
 -----
 Charge =  0 Multiplicity = 1

                         Standard orientation:
 ---------------------------------------------------------------------
 Center     Atomic      Atomic             Coordinates (Angstroms)
 Number     Number       Type             X           Y           Z
 ---------------------------------------------------------------------
      1          8           0       -2.421839   -0.326461   -0.636565
      2          6           0       -1.473313   -0.115183    0.081973
      3          6           0       -1.042841    1.301189    0.426388
      4          6           0        0.238681    1.736610   -0.311960
      5          6           0        1.542683    1.157707    0.242434
      6          6           0        1.748110   -0.336004    0.093938
      7          8           0        1.148524   -1.008000   -1.022959
      8          6           0        0.760771   -1.407531    0.297626
      9          6           0       -0.696150   -1.277701    0.695744
     10          1           0       -1.870761    1.955706    0.143123
     11          1           0       -0.887451    1.390253    1.509832
     12          1           0        0.149102    1.483801   -1.373237
     13          1           0        0.305772    2.827771   -0.251338
     14          1           0        2.379743    1.650737   -0.267537
     15          1           0        1.649198    1.413032    1.306333
     16          1           0        2.786396   -0.633976    0.261893
     17          1           0        1.177063   -2.373424    0.593913
     18          1           0       -1.222909   -2.191039    0.404944
     19          1           0       -0.747276   -1.201695    1.791414
 ---------------------------------------------------------------------

 SCF Done:  E(RB3LYP) =  -423.201449111     A.U. after    1 cycles

 The electronic state is 1-A.
 Alpha  occ. eigenvalues --  -19.15396 -19.12675 -10.26805 -10.24741 -10.24324
 Alpha  occ. eigenvalues --  -10.19795 -10.19780 -10.19604 -10.19176  -1.07386
 Alpha  occ. eigenvalues --   -1.03769  -0.81260  -0.77276  -0.73410  -0.65439
 Alpha  occ. eigenvalues --   -0.63635  -0.56419  -0.53345  -0.50711  -0.49266
 Alpha  occ. eigenvalues --   -0.46331  -0.45318  -0.43026  -0.42762  -0.41355
 Alpha  occ. eigenvalues --   -0.39631  -0.37926  -0.36829  -0.34789  -0.34319
 Alpha  occ. eigenvalues --   -0.33784  -0.29934  -0.26999  -0.24092
 Alpha virt. eigenvalues --   -0.01424   0.07944   0.10021   0.10279   0.11410
 Alpha virt. eigenvalues --    0.12594   0.13407   0.15227   0.15602   0.16455
 Alpha virt. eigenvalues --    0.16767   0.18290   0.18676   0.19687   0.20513

 Mulliken charges:
               1
     1  O   -0.299033
     2  C    0.389313
     3  C   -0.286858
     4  C   -0.206897
     5  C   -0.240536
     6  C    0.063547
     7  O   -0.249825
     8  C    0.056335
     9  C   -0.342529
    10  H    0.122220
    11  H    0.100343
    12  H    0.131856
    13  H    0.105459
    14  H    0.112686
    15  H    0.105274
    16  H    0.090255
    17  H    0.096274
    18  H    0.133099
    19  H    0.119018
 Sum of Mulliken charges =   0.00000

 Dipole moment (field-independent basis, Debye):
    X=              2.2819    Y=              1.0453    Z=              3.0360  Tot=              3.9392
 Quadrupole moment (field-independent basis, Debye-Ang):
   XX=            -58.2580   YY=            -49.6759   ZZ=            -54.6687
   XY=             -0.2819   XZ=             -1.6946   YZ=             -2.8706

  Exact polarizability:  82.290   3.253  79.894   2.905  -1.971  62.324
 Approx polarizability: 116.060   7.712 108.395   8.779   0.358 106.319

                      1                      2                      3
                      A                      A                      A
 Frequencies --     75.3576                85.7444               244.7418
 Red. masses --      3.5183                 4.1517                 2.3798
 Frc consts  --      0.0118                 0.0180                 0.0840
 IR Inten    --      0.4773                 1.7418                 3.0755

                      4                      5                      6
                      A                      A                      A
 Frequencies --    250.9088               320.0518               371.1851
 Red. masses --      4.9112                 2.7394                 3.1885
 Frc consts  --      0.1822                 0.1653                 0.2588
 IR Inten    --      3.6561                 0.2500                 2.3674

                      7                      8                      9
                      A                      A                      A
 Frequencies --    405.5154               500.8667               517.2917
 Red. masses --      1.7653                 3.7264                 3.9726
 Frc consts  --      0.1710                 0.5508                 0.6263
 IR Inten    --      0.4895                14.2928                 5.4153

                     10                     11                     12
                      A                      A                      A
 Frequencies --    598.6792               660.9037               754.2489
 Red. masses --      2.3421                 4.2935                 3.7428
 Frc consts  --      0.4946                 1.1049                 1.2545
 IR Inten    --      1.1538                 2.1078                 7.5860

                     13                     14                     15
                      A                      A                      A
 Frequencies --    765.8388               825.8911               852.0062
 Red. masses --      2.8897                 1.9095                 2.5087
 Frc consts  --      0.9986                 0.7674                 1.0730
 IR Inten    --      8.7621                 2.9915                 8.0802

                     16                     17                     18
                      A                      A                      A
 Frequencies --    894.9403               927.2427               937.4257
 Red. masses --      3.8719                 2.1428                 1.9721
 Frc consts  --      1.8271                 1.0855                 1.0211
 IR Inten    --      2.2749                11.5258                 3.7660

                     19                     20                     21
                      A                      A                      A
 Frequencies --    967.9954              1023.9897              1065.9303
 Red. masses --      2.1884                 2.3432                 1.9913
 Frc consts  --      1.2081                 1.4476                 1.3331
 IR Inten    --     17.3111                 9.0407                 6.7138

                     22                     23                     24
                      A                      A                      A
 Frequencies --   1100.5038              1107.8062              1144.6795
 Red. masses --      2.1737                 1.2590                 1.3707
 Frc consts  --      1.5511                 0.9103                 1.0582
 IR Inten    --      3.4436                 4.4962                 2.4432

                     25                     26                     27
                      A                      A                      A
 Frequencies --   1172.1192              1207.2829              1230.1197
 Red. masses --      1.6388                 1.4036                 1.3016
 Frc consts  --      1.3265                 1.2053                 1.1605
 IR Inten    --     27.8607                 7.7768                 7.5504

                     28                     29                     30
                      A                      A                      A
 Frequencies --   1268.9122              1285.6045              1311.6811
 Red. masses --      1.4274                 1.2332                 1.2654
 Frc consts  --      1.3542                 1.2009                 1.2827
 IR Inten    --     22.5441                 3.5804                 3.0699

                     31                     32                     33
                      A                      A                      A
 Frequencies --   1343.1342              1356.3420              1384.6427
 Red. masses --      1.7384                 1.4611                 1.4382
 Frc consts  --      1.8477                 1.5837                 1.6246
 IR Inten    --      8.3115                 4.8320                 6.7912

                     34                     35                     36
                      A                      A                      A
 Frequencies --   1395.3738              1414.1507              1460.0189
 Red. masses --      1.5775                 1.2911                 1.1521
 Frc consts  --      1.8096                 1.5213                 1.4469
 IR Inten    --      1.3969                17.9842                 7.6807

                     37                     38                     39
                      A                      A                      A
 Frequencies --   1473.2993              1477.0522              1487.0857
 Red. masses --      1.1079                 1.1980                 1.0996
 Frc consts  --      1.4169                 1.5400                 1.4327
 IR Inten    --      3.8123                11.8741                 4.4670

                     40                     41                     42
                      A                      A                      A
 Frequencies --   1503.6289              1812.7260              3012.4235
 Red. masses --      2.0991                10.8588                 1.0623
 Frc consts  --      2.7962                21.0231                 5.6800
 IR Inten    --      6.2870               160.5422                20.2405

                     43                     44                     45
                      A                      A                      A
 Frequencies --   3015.6735              3025.0459              3042.4829
 Red. masses --      1.0656                 1.0648                 1.0791
 Frc consts  --      5.7096                 5.7409                 5.8852
 IR Inten    --      2.0812                21.7282                 6.0328

                     46                     47                     48
                      A                      A                      A
 Frequencies --   3053.8374              3067.6176              3080.6855
 Red. masses --      1.0803                 1.0844                 1.0901
 Frc consts  --      5.9357                 6.0120                 6.0954
 IR Inten    --     33.6394                25.5987                64.2063

                     49                     50                     51
                      A                      A                      A
 Frequencies --   3092.9900              3094.7320              3105.1592
 Red. masses --      1.1015                 1.0944                 1.0977
 Frc consts  --      6.2086                 6.1756                 6.2359
 IR Inten    --     20.1471                16.5087                14.8405

 - Thermochemistry -
 -------------------
 Temperature   298.150 Kelvin.  Pressure   1.00000 Atm.
 Atom     1 has atomic number  8 and mass  15.99491

 Molecular mass:   126.06808 amu.
 Principal axes and moments of inertia in atomic units:
                           1         2         3
     Eigenvalues --   759.076211074.134281518.93455
           X            0.99984   0.01772  -0.00326
           Y           -0.01780   0.99947  -0.02741
           Z            0.00277   0.02746   0.99962
 This molecule is an asymmetric top.
 Rotational symmetry number  1.
 Warning -- assumption of classical behavior for rotation
           may cause significant error
 Rotational temperatures (Kelvin)      0.11410     0.08064     0.05702
 Rotational constants (GHZ):           2.37755     1.68018     1.18816
 Zero-point vibrational energy     422123.7 (Joules/Mol)
                                  100.88998 (Kcal/Mol)
 Warning -- explicit consideration of  10 degrees of freedom as
           vibrations may cause significant error
 Vibrational temperatures:    108.42   123.37   352.13   361.00   460.48
          (Kelvin)            534.05   583.45   720.63   744.27   861.36
                              950.89  1085.19  1101.87  1188.27  1225.85
                             1287.62  1334.09  1348.74  1392.73  1473.29
                             1533.63  1583.38  1593.88  1646.94  1686.42
                             1737.01  1769.87  1825.68  1849.70  1887.21
                             1932.47  1951.47  1992.19  2007.63  2034.64
                             2100.64  2119.75  2125.15  2139.58  2163.38
                             2608.11  4334.20  4338.88  4352.36  4377.45
                             4393.79  4413.61  4432.41  4450.12  4452.62
                             4467.63

 Zero-point correction=                           0.160778 (Hartree/Particle)
 Thermal correction to Energy=                    0.168694
 Thermal correction to Enthalpy=                  0.169638
 Thermal correction to Gibbs Free Energy=         0.127960
 Sum of electronic and zero-point Energies=           -423.040671
 Sum of electronic and thermal Energies=              -423.032755
 Sum of electronic and thermal Enthalpies=            -423.031811
 Sum of electronic and thermal Free Energies=         -423.073489

                     E (Thermal)             CV                S
                      KCal/Mol        Cal/Mol-Kelvin    Cal/Mol-Kelvin
 Total                  105.857             30.424             87.719
 Electronic               0.000              0.000              0.000
 Translational            0.889              2.981             40.409
 Rotational               0.889              2.981             28.606
 Vibrational            104.080             24.462             18.705
 Vibration     1          0.599              1.965              4.008
 Vibration     2          0.601              1.959              3.755
 Vibration     3          0.660              1.771              1.768
 Vibration     4          0.663              1.761              1.724
 Vibration     5          0.706              1.635              1.310
 Vibration     6          0.743              1.531              1.075
 Vibration     7          0.770              1.458              0.943
 Vibration     8          0.856              1.248              0.656
 Vibration     9          0.872              1.212              0.616
 Vibration    10          0.957              1.035              0.452

 Optimization completed.
    -- Stationary point found.
 Normal termination of Gaussian 09 at Mon Jan 27 13:54:06 2020.
