 Gaussian 09, Revision D.01,
 Gaussian 09:  ES64L-G09RevD.01 24-Apr-2013

 -----------------------------
 # b3lyp 6-31G(2df,p) opt Freq
 -----------------------------

 -----
 titel
 -----
 Symbolic Z-matrix:
 Charge =  0 Multiplicity = 1

 SCF Done:  E(RB3LYP) =  -423.185243403     A.U. after   14 cycles
 Optimization completed.
    -- Stationary point found.
 Normal termination of Gaussian 09 at Tue Jan 28 00:41:52 2020.

 ----------------------------------------------------------------------
 #N Geom=AllCheck Guess=TCheck SCRF=Check GenChk RB3LYP/6-31G(2df,p) Fr
 eq
 ----------------------------------------------------------------------

 Structure from the checkpoint file:  "/scratch/puck/g09_3d5b037a-dd0d-4ea6-b6a3-250ca7636fda/Gau-36842.chk"
 -----
 titel
 -----
 Charge =  0 Multiplicity = 1

                         Standard orientation:
 ---------------------------------------------------------------------
 Center     Atomic      Atomic             Coordinates (Angstroms)
 Number     Number       Type             X           Y           Z
 ---------------------------------------------------------------------
      1          8           0       -1.951137   -1.437389    0.141508
      2          6           0       -0.750943   -0.712544    0.337706
      3          6           0        0.383804   -1.576719   -0.136204
      4          6           0        1.671730   -1.253666   -0.211171
      5          6           0        2.341087    0.041702    0.161110
      6          6           0        1.571390    1.333112    0.145660
      7          6           0        0.289569    1.586878   -0.118297
      8          6           0       -0.842197    0.638212   -0.403473
      9          8           0       -2.097497    1.254023   -0.071884
     10          1           0       -2.652766   -0.772391    0.152294
     11          1           0       -0.617343   -0.481212    1.411630
     12          1           0        0.066548   -2.571879   -0.434899
     13          1           0        2.361028   -2.022084   -0.554715
     14          1           0        2.804147   -0.072329    1.156540
     15          1           0        3.205952    0.182291   -0.504365
     16          1           0        2.202614    2.197649    0.347739
     17          1           0       -0.026484    2.628874   -0.129329
     18          1           0       -0.923976    0.428685   -1.476372
     19          1           0       -2.017281    1.607466    0.822500
 ---------------------------------------------------------------------

 SCF Done:  E(RB3LYP) =  -423.185243403     A.U. after    1 cycles

 The electronic state is 1-A.
 Alpha  occ. eigenvalues --  -19.15141 -19.12380 -10.23787 -10.23085 -10.19915
 Alpha  occ. eigenvalues --  -10.19436 -10.18609 -10.18461 -10.17807  -1.03783
 Alpha  occ. eigenvalues --   -1.00305  -0.82543  -0.76478  -0.75050  -0.66307
 Alpha  occ. eigenvalues --   -0.64273  -0.56326  -0.53562  -0.51157  -0.48343
 Alpha  occ. eigenvalues --   -0.46942  -0.44928  -0.43467  -0.42954  -0.41623
 Alpha  occ. eigenvalues --   -0.39502  -0.36375  -0.35688  -0.32835  -0.32189
 Alpha  occ. eigenvalues --   -0.29729  -0.27204  -0.25293  -0.23918
 Alpha virt. eigenvalues --    0.00659   0.01850   0.08161   0.08367   0.12235
 Alpha virt. eigenvalues --    0.13154   0.13977   0.14996   0.16125   0.16949
 Alpha virt. eigenvalues --    0.18416   0.19134   0.20540   0.22622   0.23603

 Mulliken charges:
               1
     1  O   -0.448937
     2  C    0.058392
     3  C   -0.058618
     4  C   -0.067080
     5  C   -0.313172
     6  C   -0.050214
     7  C   -0.097380
     8  C    0.045541
     9  O   -0.444019
    10  H    0.284031
    11  H    0.064863
    12  H    0.104574
    13  H    0.091634
    14  H    0.128536
    15  H    0.123221
    16  H    0.092541
    17  H    0.092313
    18  H    0.112040
    19  H    0.281735
 Sum of Mulliken charges =   0.00000

 Dipole moment (field-independent basis, Debye):
    X=              1.7270    Y=              1.5469    Z=              1.0329  Tot=              2.5382
 Quadrupole moment (field-independent basis, Debye-Ang):
   XX=            -51.2883   YY=            -54.6035   ZZ=            -52.8669
   XY=             -2.4029   XZ=             -2.1967   YZ=              2.9306

  Exact polarizability: 103.085  -0.546  79.342   1.473   3.641  53.657
 Approx polarizability: 159.081  -0.346 108.962   4.874   4.831  86.044

                      1                      2                      3
                      A                      A                      A
 Frequencies --     58.5018               106.1633               269.8740
 Red. masses --      2.3348                 4.6496                 2.7776
 Frc consts  --      0.0047                 0.0309                 0.1192
 IR Inten    --      0.0970                 1.6869                 1.8714

                      4                      5                      6
                      A                      A                      A
 Frequencies --    298.5467               330.8680               359.3419
 Red. masses --      3.8148                 3.5736                 1.7096
 Frc consts  --      0.2003                 0.2305                 0.1301
 IR Inten    --      3.3831                 7.3594                21.6455

                      7                      8                      9
                      A                      A                      A
 Frequencies --    383.9676               398.0481               459.3843
 Red. masses --      2.2052                 4.9054                 3.7817
 Frc consts  --      0.1915                 0.4579                 0.4702
 IR Inten    --     27.5835                 5.9576                 4.1253

                     10                     11                     12
                      A                      A                      A
 Frequencies --    476.9006               553.3787               559.3846
 Red. masses --      1.9658                 1.9408                 1.6017
 Frc consts  --      0.2634                 0.3502                 0.2953
 IR Inten    --      5.7479                71.6980                64.8688

                     13                     14                     15
                      A                      A                      A
 Frequencies --    683.1295               704.3369               711.1468
 Red. masses --      2.2455                 1.5285                 2.2244
 Frc consts  --      0.6174                 0.4468                 0.6628
 IR Inten    --      8.0256                12.8686                25.3317

                     16                     17                     18
                      A                      A                      A
 Frequencies --    811.6507               870.4893               942.3387
 Red. masses --      3.3691                 4.4838                 2.6592
 Frc consts  --      1.3077                 2.0018                 1.3913
 IR Inten    --      4.3852                 3.9939                39.8696

                     19                     20                     21
                      A                      A                      A
 Frequencies --    960.5403               983.3530              1005.7951
 Red. masses --      1.9018                 2.6103                 1.2986
 Frc consts  --      1.0338                 1.4872                 0.7740
 IR Inten    --     21.4506                 5.0866                 6.9592

                     22                     23                     24
                      A                      A                      A
 Frequencies --   1021.8792              1047.5181              1082.2431
 Red. masses --      1.3121                 3.1448                 2.2413
 Frc consts  --      0.8072                 2.0331                 1.5467
 IR Inten    --      5.7607                56.5373                13.8683

                     25                     26                     27
                      A                      A                      A
 Frequencies --   1095.1371              1111.4256              1212.0771
 Red. masses --      3.1517                 3.4240                 1.1306
 Frc consts  --      2.2271                 2.4919                 0.9787
 IR Inten    --     38.9685                56.9196                11.3928

                     28                     29                     30
                      A                      A                      A
 Frequencies --   1230.2969              1245.4388              1256.2622
 Red. masses --      1.1355                 1.0925                 1.1595
 Frc consts  --      1.0126                 0.9985                 1.0782
 IR Inten    --      5.2287                 1.9890                 1.1945

                     31                     32                     33
                      A                      A                      A
 Frequencies --   1278.5061              1312.2478              1364.0239
 Red. masses --      1.2171                 1.2163                 1.2422
 Frc consts  --      1.1721                 1.2340                 1.3617
 IR Inten    --     16.9426                74.7977                 0.9345

                     34                     35                     36
                      A                      A                      A
 Frequencies --   1391.6940              1395.4483              1409.5062
 Red. masses --      1.3327                 1.8535                 1.2348
 Frc consts  --      1.5207                 2.1265                 1.4454
 IR Inten    --     33.6147                 4.0210                41.6069

                     37                     38                     39
                      A                      A                      A
 Frequencies --   1434.4688              1442.9354              1451.4347
 Red. masses --      1.4332                 1.5959                 1.0901
 Frc consts  --      1.7376                 1.9577                 1.3530
 IR Inten    --     30.6270                20.8682                 7.4636

                     40                     41                     42
                      A                      A                      A
 Frequencies --   1734.9447              1745.1462              2910.7979
 Red. masses --      7.7413                 7.4411                 1.0803
 Frc consts  --     13.7290                13.3522                 5.3929
 IR Inten    --      7.4968                 2.1999                49.8937

                     43                     44                     45
                      A                      A                      A
 Frequencies --   2967.4759              3005.2664              3047.7217
 Red. masses --      1.0734                 1.0833                 1.0840
 Frc consts  --      5.5689                 5.7643                 5.9326
 IR Inten    --     21.8025                18.4358                18.6931

                     46                     47                     48
                      A                      A                      A
 Frequencies --   3122.7014              3143.1548              3146.5628
 Red. masses --      1.0827                 1.0851                 1.0931
 Frc consts  --      6.2202                 6.3159                 6.3765
 IR Inten    --      6.2809                14.9592                25.3311

                     49                     50                     51
                      A                      A                      A
 Frequencies --   3176.0115              3756.3624              3783.2218
 Red. masses --      1.0934                 1.0647                 1.0659
 Frc consts  --      6.4980                 8.8510                 8.9884
 IR Inten    --     12.2024                54.4964                15.1765

 - Thermochemistry -
 -------------------
 Temperature   298.150 Kelvin.  Pressure   1.00000 Atm.
 Atom     1 has atomic number  8 and mass  15.99491

 Molecular mass:   126.06808 amu.
 Principal axes and moments of inertia in atomic units:
                           1         2         3
     Eigenvalues --   743.022361184.440871839.36844
           X            0.99996  -0.00834  -0.00162
           Y            0.00836   0.99988   0.01292
           Z            0.00151  -0.01293   0.99992
 This molecule is an asymmetric top.
 Rotational symmetry number  1.
 Warning -- assumption of classical behavior for rotation
           may cause significant error
 Rotational temperatures (Kelvin)      0.11657     0.07313     0.04709
 Rotational constants (GHZ):           2.42892     1.52371     0.98117
 Zero-point vibrational energy     420182.6 (Joules/Mol)
                                  100.42606 (Kcal/Mol)
 Warning -- explicit consideration of  12 degrees of freedom as
           vibrations may cause significant error
 Vibrational temperatures:     84.17   152.75   388.29   429.54   476.04
          (Kelvin)            517.01   552.44   572.70   660.95   686.15
                              796.19   804.83   982.87  1013.38  1023.18
                             1167.78  1252.44  1355.81  1382.00  1414.82
                             1447.11  1470.25  1507.14  1557.10  1575.66
                             1599.09  1743.91  1770.12  1791.91  1807.48
                             1839.48  1888.03  1962.52  2002.33  2007.74
                             2027.96  2063.88  2076.06  2088.29  2496.20
                             2510.87  4187.98  4269.53  4323.90  4384.99
                             4492.87  4522.29  4527.20  4569.57  5404.56
                             5443.21

 Zero-point correction=                           0.160039 (Hartree/Particle)
 Thermal correction to Energy=                    0.168446
 Thermal correction to Enthalpy=                  0.169390
 Thermal correction to Gibbs Free Energy=         0.126891
 Sum of electronic and zero-point Energies=           -423.025204
 Sum of electronic and thermal Energies=              -423.016798
 Sum of electronic and thermal Enthalpies=            -423.015854
 Sum of electronic and thermal Free Energies=         -423.058352

                     E (Thermal)             CV                S
                      KCal/Mol        Cal/Mol-Kelvin    Cal/Mol-Kelvin
 Total                  105.701             32.966             89.446
 Electronic               0.000              0.000              0.000
 Translational            0.889              2.981             40.409
 Rotational               0.889              2.981             28.872
 Vibrational            103.924             27.004             20.165
 Vibration     1          0.596              1.974              4.507
 Vibration     2          0.605              1.944              3.338
 Vibration     3          0.674              1.729              1.597
 Vibration     4          0.692              1.676              1.425
 Vibration     5          0.713              1.614              1.256
 Vibration     6          0.734              1.556              1.125
 Vibration     7          0.753              1.504              1.023
 Vibration     8          0.764              1.474              0.970
 Vibration     9          0.817              1.340              0.768
 Vibration    10          0.833              1.301              0.718
 Vibration    11          0.909              1.132              0.537
 Vibration    12          0.915              1.119              0.525

 Normal termination of Gaussian 09 at Tue Jan 28 02:49:43 2020.
