 Gaussian 09, Revision D.01,
 Gaussian 09:  ES64L-G09RevD.01 24-Apr-2013

 -----------------------------
 # b3lyp 6-31G(2df,p) opt Freq
 -----------------------------

 -----
 titel
 -----
 Symbolic Z-matrix:
 Charge =  0 Multiplicity = 1

 SCF Done:  E(RB3LYP) =  -423.195989269     A.U. after   14 cycles
 SCF Done:  E(RB3LYP) =  -423.195988920     A.U. after    8 cycles
 SCF Done:  E(RB3LYP) =  -423.195989778     A.U. after    7 cycles
 SCF Done:  E(RB3LYP) =  -423.195989779     A.U. after    6 cycles
 SCF Done:  E(RB3LYP) =  -423.195989841     A.U. after    7 cycles
 SCF Done:  E(RB3LYP) =  -423.195989904     A.U. after    6 cycles
 SCF Done:  E(RB3LYP) =  -423.195989929     A.U. after    8 cycles
 SCF Done:  E(RB3LYP) =  -423.195990007     A.U. after    7 cycles
 SCF Done:  E(RB3LYP) =  -423.195989982     A.U. after    9 cycles
 SCF Done:  E(RB3LYP) =  -423.195989909     A.U. after    9 cycles
 SCF Done:  E(RB3LYP) =  -423.195989805     A.U. after    9 cycles
 SCF Done:  E(RB3LYP) =  -423.195989653     A.U. after    8 cycles
 SCF Done:  E(RB3LYP) =  -423.195989521     A.U. after    8 cycles
 SCF Done:  E(RB3LYP) =  -423.195989184     A.U. after    9 cycles
 SCF Done:  E(RB3LYP) =  -423.195990015     A.U. after    8 cycles
 SCF Done:  E(RB3LYP) =  -423.195989445     A.U. after    9 cycles
 SCF Done:  E(RB3LYP) =  -423.195989935     A.U. after    8 cycles
 Optimization completed on the basis of negligible forces.
    -- Stationary point found.
 Normal termination of Gaussian 09 at Tue Jan 28 09:08:03 2020.

 ----------------------------------------------------------------------
 #N Geom=AllCheck Guess=TCheck SCRF=Check GenChk RB3LYP/6-31G(2df,p) Fr
 eq
 ----------------------------------------------------------------------

 Structure from the checkpoint file:  "/scratch/puck/g09_3dc922a5-98cf-4716-89fc-178281ec0a0a/Gau-128027.chk"
 -----
 titel
 -----
 Charge =  0 Multiplicity = 1

                         Standard orientation:
 ---------------------------------------------------------------------
 Center     Atomic      Atomic             Coordinates (Angstroms)
 Number     Number       Type             X           Y           Z
 ---------------------------------------------------------------------
      1          6           0        2.565921   -1.624232   -0.054928
      2          8           0        1.489459   -0.859315   -0.612768
      3          6           0        1.124634    0.222786    0.097413
      4          8           0        1.665437    0.578417    1.111845
      5          6           0       -0.068325    0.926034   -0.565552
      6          6           0       -0.165161    2.386829   -0.095665
      7          6           0       -1.286794    0.167901   -0.278686
      8          6           0       -2.291656   -0.441516   -0.017606
      9          6           0       -3.506854   -1.182147    0.289413
     10          1           0        2.735309   -2.447440   -0.748865
     11          1           0        3.465683   -1.011246    0.040473
     12          1           0        2.294719   -2.005747    0.932738
     13          1           0        0.112538    0.895275   -1.647394
     14          1           0       -1.027428    2.871279   -0.559199
     15          1           0       -0.274809    2.427497    0.989291
     16          1           0        0.739858    2.936459   -0.368319
     17          1           0       -4.326210   -0.506963    0.559689
     18          1           0       -3.837419   -1.778907   -0.567823
     19          1           0       -3.352002   -1.866954    1.130456
 ---------------------------------------------------------------------

 SCF Done:  E(RB3LYP) =  -423.195989935     A.U. after    1 cycles

 The electronic state is 1-A.
 Alpha  occ. eigenvalues --  -19.18349 -19.12621 -10.30482 -10.23717 -10.22048
 Alpha  occ. eigenvalues --  -10.20362 -10.17900 -10.17520 -10.17084  -1.10243
 Alpha  occ. eigenvalues --   -1.01454  -0.81456  -0.76673  -0.72603  -0.69191
 Alpha  occ. eigenvalues --   -0.64164  -0.56337  -0.51772  -0.49926  -0.47241
 Alpha  occ. eigenvalues --   -0.46652  -0.44886  -0.42998  -0.42636  -0.42481
 Alpha  occ. eigenvalues --   -0.39787  -0.38191  -0.37651  -0.36221  -0.35290
 Alpha  occ. eigenvalues --   -0.30206  -0.28351  -0.25042  -0.24466
 Alpha virt. eigenvalues --    0.01018   0.05609   0.07179   0.10455   0.11116
 Alpha virt. eigenvalues --    0.12404   0.12695   0.14946   0.15867   0.16933
 Alpha virt. eigenvalues --    0.17189   0.17954   0.18356   0.19107   0.21419

 Mulliken charges:
               1
     1  C   -0.240439
     2  O   -0.230117
     3  C    0.451646
     4  O   -0.355403
     5  C   -0.250677
     6  C   -0.383523
     7  C    0.108710
     8  C    0.021833
     9  C   -0.496492
    10  H    0.133946
    11  H    0.140952
    12  H    0.142202
    13  H    0.123314
    14  H    0.121238
    15  H    0.144897
    16  H    0.120368
    17  H    0.149206
    18  H    0.148487
    19  H    0.149853
 Sum of Mulliken charges =   0.00000

 Dipole moment (field-independent basis, Debye):
    X=             -0.5953    Y=             -1.1919    Z=             -1.1218  Tot=              1.7417
 Quadrupole moment (field-independent basis, Debye-Ang):
   XX=            -45.7034   YY=            -49.0255   ZZ=            -55.3361
   XY=             -1.5699   XZ=             -3.7316   YZ=             -2.9055

  Exact polarizability: 100.849   8.377  81.478  -2.724  -0.483  61.776
 Approx polarizability: 134.471  20.943 110.574  -4.038   1.299 100.035

                      1                      2                      3
                      A                      A                      A
 Frequencies --     20.8591                24.5460                69.4085
 Red. masses --      1.0221                 5.0284                 3.4128
 Frc consts  --      0.0003                 0.0018                 0.0097
 IR Inten    --      0.0192                 1.1832                 0.3546

                      4                      5                      6
                      A                      A                      A
 Frequencies --    111.7939               128.9334               161.5570
 Red. masses --      1.1337                 2.9112                 2.8675
 Frc consts  --      0.0083                 0.0285                 0.0441
 IR Inten    --      0.3240                 3.0395                 3.1190

                      7                      8                      9
                      A                      A                      A
 Frequencies --    203.7881               220.1389               275.2032
 Red. masses --      1.7680                 1.5955                 4.0355
 Frc consts  --      0.0433                 0.0456                 0.1801
 IR Inten    --      1.7717                 0.9236                 7.1300

                     10                     11                     12
                      A                      A                      A
 Frequencies --    289.6673               331.6828               414.0638
 Red. masses --      3.3175                 4.3054                 5.2527
 Frc consts  --      0.1640                 0.2791                 0.5306
 IR Inten    --      0.8084                19.1436                 1.3722

                     13                     14                     15
                      A                      A                      A
 Frequencies --    429.0306               533.9763               622.8917
 Red. masses --      6.0823                 4.6837                 4.2147
 Frc consts  --      0.6596                 0.7868                 0.9635
 IR Inten    --      0.5009                 4.7105                 4.7522

                     16                     17                     18
                      A                      A                      A
 Frequencies --    725.8808               812.0645               862.4428
 Red. masses --      3.6970                 3.8573                 3.3351
 Frc consts  --      1.1477                 1.4987                 1.4616
 IR Inten    --      6.6378                 6.1921                10.4821

                     19                     20                     21
                      A                      A                      A
 Frequencies --    978.9571              1025.0013              1051.9998
 Red. masses --      3.5974                 2.4713                 1.4034
 Frc consts  --      2.0313                 1.5298                 0.9151
 IR Inten    --      2.6126                11.8629                 1.1920

                     22                     23                     24
                      A                      A                      A
 Frequencies --   1053.1398              1072.0851              1111.4870
 Red. masses --      1.4166                 1.6750                 2.7827
 Frc consts  --      0.9257                 1.1343                 2.0255
 IR Inten    --      1.3012                 4.3088                27.7676

                     25                     26                     27
                      A                      A                      A
 Frequencies --   1178.5470              1182.0308              1201.0951
 Red. masses --      1.3524                 2.0094                 1.8661
 Frc consts  --      1.1068                 1.6542                 1.5861
 IR Inten    --      6.8113                20.3094                92.3946

                     28                     29                     30
                      A                      A                      A
 Frequencies --   1224.7968              1318.2529              1333.7146
 Red. masses --      2.3758                 1.5848                 1.8685
 Frc consts  --      2.0998                 1.6227                 1.9582
 IR Inten    --    207.2026                12.5532                95.9964

                     31                     32                     33
                      A                      A                      A
 Frequencies --   1407.2088              1414.8976              1472.2900
 Red. masses --      1.2133                 1.2487                 1.1921
 Frc consts  --      1.4156                 1.4729                 1.5224
 IR Inten    --      5.8580                 6.0352                10.4401

                     34                     35                     36
                      A                      A                      A
 Frequencies --   1478.1913              1478.3747              1481.8266
 Red. masses --      1.0395                 1.0398                 1.0484
 Frc consts  --      1.3383                 1.3389                 1.3564
 IR Inten    --      5.6082                 5.3583                 6.3509

                     37                     38                     39
                      A                      A                      A
 Frequencies --   1488.1886              1492.4869              1496.9699
 Red. masses --      1.0422                 1.0519                 1.0587
 Frc consts  --      1.3599                 1.3805                 1.3979
 IR Inten    --      4.6241                 8.1826                 5.9214

                     40                     41                     42
                      A                      A                      A
 Frequencies --   1826.2018              2371.6150              3027.5744
 Red. masses --     11.3128                11.8446                 1.0347
 Frc consts  --     22.2289                39.2518                 5.5882
 IR Inten    --    208.0511                 2.1366                31.9555

                     43                     44                     45
                      A                      A                      A
 Frequencies --   3030.4086              3052.1063              3054.8008
 Red. masses --      1.0815                 1.0299                 1.0349
 Frc consts  --      5.8515                 5.6523                 5.6898
 IR Inten    --     10.8725                30.9243                19.2478

                     46                     47                     48
                      A                      A                      A
 Frequencies --   3088.6784              3088.7930              3126.6639
 Red. masses --      1.1002                 1.1001                 1.1056
 Frc consts  --      6.1841                 6.1840                 6.3680
 IR Inten    --     10.0475                 9.8032                17.0785

                     49                     50                     51
                      A                      A                      A
 Frequencies --   3128.7504              3147.0089              3160.0241
 Red. masses --      1.1024                 1.1023                 1.1059
 Frc consts  --      6.3579                 6.4323                 6.5066
 IR Inten    --     22.6738                10.9782                14.9707

 - Thermochemistry -
 -------------------
 Temperature   298.150 Kelvin.  Pressure   1.00000 Atm.
 Atom     1 has atomic number  6 and mass  12.00000

 Molecular mass:   126.06808 amu.
 Principal axes and moments of inertia in atomic units:
                           1         2         3
     Eigenvalues --   816.590071841.859892378.04812
           X            0.99996  -0.00325  -0.00891
           Y            0.00306   0.99977  -0.02121
           Z            0.00897   0.02118   0.99974
 This molecule is an asymmetric top.
 Rotational symmetry number  1.
 Warning -- assumption of classical behavior for rotation
           may cause significant error
 Rotational temperatures (Kelvin)      0.10607     0.04703     0.03642
 Rotational constants (GHZ):           2.21009     0.97985     0.75892
 Zero-point vibrational energy     408417.6 (Joules/Mol)
                                   97.61416 (Kcal/Mol)
 Warning -- explicit consideration of  14 degrees of freedom as
           vibrations may cause significant error
 Vibrational temperatures:     30.01    35.32    99.86   160.85   185.51
          (Kelvin)            232.44   293.21   316.73   395.96   416.77
                              477.22   595.74   617.28   768.27   896.20
                             1044.38  1168.38  1240.86  1408.50  1474.75
                             1513.59  1515.23  1542.49  1599.18  1695.66
                             1700.68  1728.11  1762.21  1896.67  1918.92
                             2024.66  2035.72  2118.29  2126.78  2127.05
                             2132.02  2141.17  2147.35  2153.80  2627.49
                             3412.22  4356.00  4360.08  4391.29  4395.17
                             4443.91  4444.08  4498.57  4501.57  4527.84
                             4546.56

 Zero-point correction=                           0.155558 (Hartree/Particle)
 Thermal correction to Energy=                    0.166832
 Thermal correction to Enthalpy=                  0.167777
 Thermal correction to Gibbs Free Energy=         0.116317
 Sum of electronic and zero-point Energies=           -423.040432
 Sum of electronic and thermal Energies=              -423.029157
 Sum of electronic and thermal Enthalpies=            -423.028213
 Sum of electronic and thermal Free Energies=         -423.079673

                     E (Thermal)             CV                S
                      KCal/Mol        Cal/Mol-Kelvin    Cal/Mol-Kelvin
 Total                  104.689             37.153            108.307
 Electronic               0.000              0.000              0.000
 Translational            0.889              2.981             40.409
 Rotational               0.889              2.981             29.660
 Vibrational            102.912             31.192             38.238
 Vibration     1          0.593              1.986              6.551
 Vibration     2          0.593              1.985              6.228
 Vibration     3          0.598              1.969              4.170
 Vibration     4          0.607              1.940              3.238
 Vibration     5          0.611              1.924              2.962
 Vibration     6          0.622              1.890              2.531
 Vibration     7          0.639              1.835              2.099
 Vibration     8          0.647              1.810              1.958
 Vibration     9          0.677              1.719              1.563
 Vibration    10          0.686              1.693              1.476
 Vibration    11          0.714              1.612              1.252
 Vibration    12          0.778              1.440              0.912
 Vibration    13          0.790              1.407              0.862
 Vibration    14          0.889              1.175              0.578

 Optimization completed on the basis of negligible forces.
    -- Stationary point found.
 Normal termination of Gaussian 09 at Tue Jan 28 09:41:51 2020.
