 Gaussian 09, Revision D.01,
 Gaussian 09:  ES64L-G09RevD.01 24-Apr-2013

 -----------------------------
 # b3lyp 6-31G(2df,p) opt Freq
 -----------------------------

 -----
 titel
 -----
 Symbolic Z-matrix:
 Charge =  0 Multiplicity = 1

 SCF Done:  E(RB3LYP) =  -423.122274165     A.U. after   13 cycles
 Optimization completed.
    -- Stationary point found.
 Normal termination of Gaussian 09 at Mon Jan 27 12:04:07 2020.

 ----------------------------------------------------------------------
 #N Geom=AllCheck Guess=TCheck SCRF=Check GenChk RB3LYP/6-31G(2df,p) Fr
 eq
 ----------------------------------------------------------------------

 Structure from the checkpoint file:  "/scratch/puck/g09_ec61e6d8-d785-43e5-b82d-1968843642f7/Gau-71273.chk"
 -----
 titel
 -----
 Charge =  0 Multiplicity = 1

                         Standard orientation:
 ---------------------------------------------------------------------
 Center     Atomic      Atomic             Coordinates (Angstroms)
 Number     Number       Type             X           Y           Z
 ---------------------------------------------------------------------
      1          6           0       -2.000650   -1.247275    0.327557
      2          6           0       -2.584970    0.107354    0.018498
      3          6           0       -1.308366   -0.324838   -0.649429
      4          6           0        0.000206    0.308029   -0.270450
      5          6           0        0.155443    1.771014   -0.211766
      6          8           0        0.027176    0.988273    0.984872
      7          6           0        1.212921   -0.542284   -0.554734
      8          6           0        2.066291   -1.050221    0.527804
      9          8           0        2.486803    0.038315   -0.300805
     10          1           0       -1.540247   -1.374070    1.301048
     11          1           0       -2.493561   -2.131561   -0.060135
     12          1           0       -3.483017    0.161006   -0.586259
     13          1           0       -2.503399    0.863266    0.790954
     14          1           0       -1.371642   -0.598297   -1.699488
     15          1           0        1.140676    2.203223   -0.364674
     16          1           0       -0.698678    2.405278   -0.441643
     17          1           0        1.152152   -1.115554   -1.481240
     18          1           0        1.824314   -0.776587    1.551528
     19          1           0        2.616321   -1.980077    0.392489
 ---------------------------------------------------------------------

 SCF Done:  E(RB3LYP) =  -423.122274165     A.U. after    1 cycles

 The electronic state is 1-A.
 Alpha  occ. eigenvalues --  -19.15461 -19.15314 -10.24685 -10.24102 -10.23308
 Alpha  occ. eigenvalues --  -10.22988 -10.19867 -10.18838 -10.18708  -1.08401
 Alpha  occ. eigenvalues --   -1.06321  -0.85995  -0.72849  -0.67339  -0.64380
 Alpha  occ. eigenvalues --   -0.61521  -0.60000  -0.55889  -0.52675  -0.49699
 Alpha  occ. eigenvalues --   -0.49358  -0.47659  -0.43350  -0.41910  -0.39963
 Alpha  occ. eigenvalues --   -0.37603  -0.36645  -0.36128  -0.35223  -0.30561
 Alpha  occ. eigenvalues --   -0.30026  -0.28457  -0.27163  -0.26036
 Alpha virt. eigenvalues --    0.07425   0.08854   0.09778   0.10375   0.12221
 Alpha virt. eigenvalues --    0.12438   0.14082   0.14759   0.15480   0.16236
 Alpha virt. eigenvalues --    0.17057   0.17553   0.18413   0.20341   0.22956

 Mulliken charges:
               1
     1  C   -0.261082
     2  C   -0.274386
     3  C   -0.085468
     4  C    0.358392
     5  C   -0.216909
     6  O   -0.274406
     7  C    0.013020
     8  C   -0.172394
     9  O   -0.237246
    10  H    0.124322
    11  H    0.112179
    12  H    0.110482
    13  H    0.130857
    14  H    0.089051
    15  H    0.134066
    16  H    0.113065
    17  H    0.090415
    18  H    0.132404
    19  H    0.113635
 Sum of Mulliken charges =   0.00000

 Dipole moment (field-independent basis, Debye):
    X=             -1.3171    Y=             -1.1090    Z=             -1.1619  Tot=              2.0772
 Quadrupole moment (field-independent basis, Debye-Ang):
   XX=            -56.1826   YY=            -49.6584   ZZ=            -52.9317
   XY=             -2.4348   XZ=              2.4849   YZ=             -1.2413

  Exact polarizability:  82.149  -2.239  77.835   2.730  -2.294  63.454
 Approx polarizability: 106.920  -0.471 113.426   2.527  -3.599 104.051

                      1                      2                      3
                      A                      A                      A
 Frequencies --     69.8212                80.3465               170.0028
 Red. masses --      3.9010                 2.6377                 3.2229
 Frc consts  --      0.0112                 0.0100                 0.0549
 IR Inten    --      1.3385                 1.5276                 1.2015

                      4                      5                      6
                      A                      A                      A
 Frequencies --    206.3212               254.1824               284.6636
 Red. masses --      3.6129                 4.2228                 3.0863
 Frc consts  --      0.0906                 0.1607                 0.1474
 IR Inten    --      1.6206                 0.8412                 9.9929

                      7                      8                      9
                      A                      A                      A
 Frequencies --    388.5226               406.6802               542.8207
 Red. masses --      5.2963                 2.7859                 3.0139
 Frc consts  --      0.4710                 0.2715                 0.5232
 IR Inten    --      2.9777                 0.0626                 7.4199

                     10                     11                     12
                      A                      A                      A
 Frequencies --    585.1103               685.5568               790.5103
 Red. masses --      3.0948                 3.0182                 1.1194
 Frc consts  --      0.6243                 0.8358                 0.4121
 IR Inten    --     14.0069                 6.8274                 1.3795

                     13                     14                     15
                      A                      A                      A
 Frequencies --    816.5461               828.4909               865.7878
 Red. masses --      1.9712                 1.3645                 2.8711
 Frc consts  --      0.7743                 0.5518                 1.2680
 IR Inten    --      5.8250                 7.1746                16.3838

                     16                     17                     18
                      A                      A                      A
 Frequencies --    882.2902               914.9260               939.3853
 Red. masses --      3.7035                 5.0314                 4.6833
 Frc consts  --      1.6986                 2.4815                 2.4349
 IR Inten    --     21.0799                23.9366                 1.5983

                     19                     20                     21
                      A                      A                      A
 Frequencies --    955.3531               990.0992              1027.6193
 Red. masses --      1.8103                 4.1571                 1.7088
 Frc consts  --      0.9735                 2.4010                 1.0632
 IR Inten    --     11.4012                23.1439                14.3873

                     22                     23                     24
                      A                      A                      A
 Frequencies --   1064.5060              1091.9014              1098.6273
 Red. masses --      1.3173                 1.3623                 1.2161
 Frc consts  --      0.8795                 0.9570                 0.8648
 IR Inten    --      5.8004                 1.1511                 1.3211

                     25                     26                     27
                      A                      A                      A
 Frequencies --   1111.7867              1129.5484              1133.8745
 Red. masses --      1.5474                 1.2394                 1.1477
 Frc consts  --      1.1269                 0.9317                 0.8694
 IR Inten    --      2.7932                 6.0679                 1.3713

                     28                     29                     30
                      A                      A                      A
 Frequencies --   1155.6106              1167.2469              1182.0572
 Red. masses --      1.4944                 1.3869                 1.4013
 Frc consts  --      1.1758                 1.1133                 1.1536
 IR Inten    --      1.8289                 0.8872                 2.6233

                     31                     32                     33
                      A                      A                      A
 Frequencies --   1188.6060              1203.3037              1228.9437
 Red. masses --      1.9341                 1.3568                 1.7626
 Frc consts  --      1.6099                 1.1575                 1.5684
 IR Inten    --     13.6807                 0.3385                 9.2398

                     34                     35                     36
                      A                      A                      A
 Frequencies --   1287.1511              1378.9241              1414.3619
 Red. masses --      1.7397                 1.8565                 2.3081
 Frc consts  --      1.6981                 2.0798                 2.7203
 IR Inten    --      8.3520                 3.9055                 7.3222

                     37                     38                     39
                      A                      A                      A
 Frequencies --   1437.1218              1459.1478              1497.7585
 Red. masses --      1.9004                 1.0922                 1.4505
 Frc consts  --      2.3124                 1.3701                 1.9172
 IR Inten    --      0.1780                 1.8208                 2.4775

                     40                     41                     42
                      A                      A                      A
 Frequencies --   1506.6201              1521.3501              3092.4983
 Red. masses --      1.3954                 1.3960                 1.0574
 Frc consts  --      1.8662                 1.9036                 5.9580
 IR Inten    --      3.4473                 0.8610                20.2803

                     43                     44                     45
                      A                      A                      A
 Frequencies --   3097.4224              3100.9205              3137.1863
 Red. masses --      1.0511                 1.0801                 1.0539
 Frc consts  --      5.9416                 6.1191                 6.1113
 IR Inten    --     32.5475                17.8628                14.8417

                     46                     47                     48
                      A                      A                      A
 Frequencies --   3138.4522              3143.8905              3193.4143
 Red. masses --      1.0667                 1.0748                 1.1187
 Frc consts  --      6.1903                 6.2590                 6.7218
 IR Inten    --     15.9198                 9.2638                15.3013

                     49                     50                     51
                      A                      A                      A
 Frequencies --   3198.1165              3220.0861              3234.7230
 Red. masses --      1.1193                 1.1181                 1.1160
 Frc consts  --      6.7449                 6.8309                 6.8801
 IR Inten    --      9.9346                 1.3635                11.4627

 - Thermochemistry -
 -------------------
 Temperature   298.150 Kelvin.  Pressure   1.00000 Atm.
 Atom     1 has atomic number  6 and mass  12.00000

 Molecular mass:   126.06808 amu.
 Principal axes and moments of inertia in atomic units:
                           1         2         3
     Eigenvalues --   563.612381433.978351694.80106
           X            0.99995  -0.00546   0.00829
           Y            0.00571   0.99952  -0.03052
           Z           -0.00812   0.03056   0.99950
 This molecule is an asymmetric top.
 Rotational symmetry number  1.
 Warning -- assumption of classical behavior for rotation
           may cause significant error
 Rotational temperatures (Kelvin)      0.15368     0.06040     0.05111
 Rotational constants (GHZ):           3.20210     1.25856     1.06487
 Zero-point vibrational energy     415703.5 (Joules/Mol)
                                   99.35552 (Kcal/Mol)
 Warning -- explicit consideration of  10 degrees of freedom as
           vibrations may cause significant error
 Vibrational temperatures:    100.46   115.60   244.60   296.85   365.71
          (Kelvin)            409.57   559.00   585.12   781.00   841.84
                              986.36  1137.37  1174.83  1192.01  1245.67
                             1269.42  1316.37  1351.56  1374.54  1424.53
                             1478.51  1531.58  1571.00  1580.68  1599.61
                             1625.17  1631.39  1662.66  1679.41  1700.71
                             1710.14  1731.28  1768.17  1851.92  1983.96
                             2034.95  2067.70  2099.39  2154.94  2167.69
                             2188.88  4449.41  4456.49  4461.53  4513.71
                             4515.53  4523.35  4594.61  4601.37  4632.98
                             4654.04

 Zero-point correction=                           0.158333 (Hartree/Particle)
 Thermal correction to Energy=                    0.166782
 Thermal correction to Enthalpy=                  0.167726
 Thermal correction to Gibbs Free Energy=         0.124782
 Sum of electronic and zero-point Energies=           -422.963941
 Sum of electronic and thermal Energies=              -422.955492
 Sum of electronic and thermal Enthalpies=            -422.954548
 Sum of electronic and thermal Free Energies=         -422.997493

                     E (Thermal)             CV                S
                      KCal/Mol        Cal/Mol-Kelvin    Cal/Mol-Kelvin
 Total                  104.657             31.856             90.385
 Electronic               0.000              0.000              0.000
 Translational            0.889              2.981             40.409
 Rotational               0.889              2.981             28.706
 Vibrational            102.880             25.895             21.270
 Vibration     1          0.598              1.969              4.158
 Vibration     2          0.600              1.962              3.882
 Vibration     3          0.625              1.879              2.435
 Vibration     4          0.641              1.831              2.076
 Vibration     5          0.665              1.756              1.701
 Vibration     6          0.683              1.702              1.505
 Vibration     7          0.757              1.495              1.006
 Vibration     8          0.771              1.456              0.938
 Vibration     9          0.898              1.155              0.559
 Vibration    10          0.942              1.064              0.476

 Normal termination of Gaussian 09 at Mon Jan 27 12:45:09 2020.
