 Gaussian 09, Revision D.01,
 Gaussian 09:  ES64L-G09RevD.01 24-Apr-2013

 -----------------------------
 # b3lyp 6-31G(2df,p) opt Freq
 -----------------------------

 -----
 titel
 -----
 Symbolic Z-matrix:
 Charge =  0 Multiplicity = 1

 SCF Done:  E(RB3LYP) =  -423.137154958     A.U. after   13 cycles
 Optimization completed.
    -- Stationary point found.
 Normal termination of Gaussian 09 at Tue Jan 28 13:41:53 2020.

 ----------------------------------------------------------------------
 #N Geom=AllCheck Guess=TCheck SCRF=Check GenChk RB3LYP/6-31G(2df,p) Fr
 eq
 ----------------------------------------------------------------------

 Structure from the checkpoint file:  "/scratch/puck/g09_3e3ed75e-22c2-4ef2-95a4-df7a3f990630/Gau-94552.chk"
 -----
 titel
 -----
 Charge =  0 Multiplicity = 1

                         Standard orientation:
 ---------------------------------------------------------------------
 Center     Atomic      Atomic             Coordinates (Angstroms)
 Number     Number       Type             X           Y           Z
 ---------------------------------------------------------------------
      1          6           0        3.014910   -0.055107   -0.203422
      2          8           0        1.758126   -0.706856   -0.158625
      3          6           0        0.800299   -0.023760    0.586813
      4          8           0        0.425936    1.222999   -0.018681
      5          6           0       -0.926237    0.989845   -0.376313
      6          6           0       -1.127382   -0.468113   -0.878197
      7          6           0       -2.541300   -0.466499   -0.251911
      8          6           0       -1.663025    0.266015    0.788440
      9          6           0       -0.521481   -0.774507    0.535606
     10          1           0        3.426046    0.090262    0.807263
     11          1           0        3.689415   -0.699388   -0.771407
     12          1           0        2.940364    0.920899   -0.696870
     13          1           0        1.184543    0.190064    1.596964
     14          1           0       -1.351205    1.849490   -0.892903
     15          1           0       -0.801155   -0.892664   -1.826603
     16          1           0       -3.307881    0.128384   -0.757384
     17          1           0       -2.938344   -1.439114    0.048109
     18          1           0       -1.958739    0.692996    1.747620
     19          1           0       -0.570238   -1.777311    0.957567
 ---------------------------------------------------------------------

 SCF Done:  E(RB3LYP) =  -423.137154958     A.U. after    1 cycles

 The electronic state is 1-A.
 Alpha  occ. eigenvalues --  -19.14176 -19.13564 -10.26920 -10.23641 -10.22019
 Alpha  occ. eigenvalues --  -10.19934 -10.19743 -10.19634 -10.18945  -1.06974
 Alpha  occ. eigenvalues --   -1.01273  -0.89810  -0.73839  -0.66943  -0.65959
 Alpha  occ. eigenvalues --   -0.63287  -0.58142  -0.55491  -0.50544  -0.49591
 Alpha  occ. eigenvalues --   -0.49072  -0.45771  -0.43259  -0.41489  -0.40065
 Alpha  occ. eigenvalues --   -0.37689  -0.34566  -0.33455  -0.32922  -0.32462
 Alpha  occ. eigenvalues --   -0.31167  -0.29858  -0.26617  -0.24584
 Alpha virt. eigenvalues --    0.10084   0.10996   0.12100   0.13442   0.13590
 Alpha virt. eigenvalues --    0.14875   0.15102   0.15292   0.16061   0.16733
 Alpha virt. eigenvalues --    0.17283   0.17602   0.18726   0.19209   0.19941

 Mulliken charges:
               1
     1  C   -0.242011
     2  O   -0.244039
     3  C    0.216458
     4  O   -0.296624
     5  C    0.137062
     6  C   -0.069462
     7  C   -0.262483
     8  C   -0.090652
     9  C   -0.086379
    10  H    0.104238
    11  H    0.125452
    12  H    0.129073
    13  H    0.065884
    14  H    0.085286
    15  H    0.082833
    16  H    0.093185
    17  H    0.098927
    18  H    0.073769
    19  H    0.079484
 Sum of Mulliken charges =   0.00000

 Dipole moment (field-independent basis, Debye):
    X=             -0.4798    Y=             -0.2343    Z=              0.4824  Tot=              0.7195
 Quadrupole moment (field-independent basis, Debye-Ang):
   XX=            -48.6956   YY=            -55.0697   ZZ=            -51.7947
   XY=             -0.1514   XZ=              0.6617   YZ=             -0.8213

  Exact polarizability:  92.972  -0.599  66.578   1.466  -0.338  67.433
 Approx polarizability: 115.850  -1.318 105.453   1.587  -0.089 104.320

                      1                      2                      3
                      A                      A                      A
 Frequencies --     98.5583               138.1603               178.8655
 Red. masses --      3.2201                 2.3772                 1.2887
 Frc consts  --      0.0184                 0.0267                 0.0243
 IR Inten    --      2.8150                 3.3354                 1.9519

                      4                      5                      6
                      A                      A                      A
 Frequencies --    265.3507               365.1060               419.6185
 Red. masses --      3.0609                 3.1557                 2.7326
 Frc consts  --      0.1270                 0.2478                 0.2835
 IR Inten    --      1.2851                 0.9065                 1.9005

                      7                      8                      9
                      A                      A                      A
 Frequencies --    466.0897               573.2633               693.7512
 Red. masses --      4.0223                 5.3209                 4.9508
 Frc consts  --      0.5148                 1.0302                 1.4039
 IR Inten    --      3.1467                 3.4784                 1.7828

                     10                     11                     12
                      A                      A                      A
 Frequencies --    748.5192               804.5835               823.1645
 Red. masses --      3.9112                 2.5932                 2.9589
 Frc consts  --      1.2911                 0.9891                 1.1813
 IR Inten    --      5.7579                 4.4367                 7.1661

                     13                     14                     15
                      A                      A                      A
 Frequencies --    887.7802               896.3700               913.8159
 Red. masses --      2.1785                 2.2957                 1.9823
 Frc consts  --      1.0116                 1.0868                 0.9753
 IR Inten    --      9.5163                13.3785                 7.8307

                     16                     17                     18
                      A                      A                      A
 Frequencies --    948.9653               976.0445               983.7997
 Red. masses --      4.0210                 3.8747                 1.3721
 Frc consts  --      2.1335                 2.1748                 0.7824
 IR Inten    --     61.5454                11.5904                11.1525

                     19                     20                     21
                      A                      A                      A
 Frequencies --    999.7859              1019.0243              1045.6671
 Red. masses --      1.2201                 3.4935                 2.6444
 Frc consts  --      0.7186                 2.1373                 1.7036
 IR Inten    --      5.3625                28.5648               110.4394

                     22                     23                     24
                      A                      A                      A
 Frequencies --   1074.9072              1082.9276              1118.4506
 Red. masses --      1.4891                 1.6892                 4.1916
 Frc consts  --      1.0137                 1.1672                 3.0894
 IR Inten    --     31.3137                40.1330                48.3586

                     25                     26                     27
                      A                      A                      A
 Frequencies --   1121.3009              1149.8373              1167.8901
 Red. masses --      1.5698                 2.7854                 1.6345
 Frc consts  --      1.1629                 2.1698                 1.3136
 IR Inten    --      0.4947                76.9197                21.2850

                     28                     29                     30
                      A                      A                      A
 Frequencies --   1179.8749              1185.5440              1225.8869
 Red. masses --      1.2907                 1.4351                 1.7118
 Frc consts  --      1.0587                 1.1884                 1.5157
 IR Inten    --      3.1964                 2.2045                50.6467

                     31                     32                     33
                      A                      A                      A
 Frequencies --   1234.4950              1245.4501              1260.0714
 Red. masses --      1.6887                 1.7087                 1.7264
 Frc consts  --      1.5163                 1.5616                 1.6151
 IR Inten    --     12.8780                20.9980                 3.7537

                     34                     35                     36
                      A                      A                      A
 Frequencies --   1273.1202              1326.3676              1375.6984
 Red. masses --      1.4930                 1.6264                 1.6021
 Frc consts  --      1.4257                 1.6858                 1.7864
 IR Inten    --      4.6129                 2.4371                34.3200

                     37                     38                     39
                      A                      A                      A
 Frequencies --   1400.1833              1479.2330              1484.4431
 Red. masses --      1.3515                 1.1849                 1.0478
 Frc consts  --      1.5611                 1.5276                 1.3603
 IR Inten    --     49.7933                 2.9736                 3.7020

                     40                     41                     42
                      A                      A                      A
 Frequencies --   1512.2365              1522.8143              2978.8083
 Red. masses --      1.0538                 1.1263                 1.0799
 Frc consts  --      1.4199                 1.5388                 5.6458
 IR Inten    --      4.7669                 0.2981                38.5227

                     43                     44                     45
                      A                      A                      A
 Frequencies --   2991.0116              3051.2994              3065.1067
 Red. masses --      1.0470                 1.0553                 1.0923
 Frc consts  --      5.5184                 5.7888                 6.0462
 IR Inten    --     88.1415                56.2183                34.1557

                     46                     47                     48
                      A                      A                      A
 Frequencies --   3105.4215              3112.5016              3124.0227
 Red. masses --      1.0902                 1.1090                 1.0891
 Frc consts  --      6.1945                 6.3302                 6.2624
 IR Inten    --     47.2913                28.5608                34.1232

                     49                     50                     51
                      A                      A                      A
 Frequencies --   3124.7851              3133.3765              3141.4780
 Red. masses --      1.1008                 1.0881                 1.0965
 Frc consts  --      6.3327                 6.2945                 6.3755
 IR Inten    --     29.1843                58.8418                 7.3289

 - Thermochemistry -
 -------------------
 Temperature   298.150 Kelvin.  Pressure   1.00000 Atm.
 Atom     1 has atomic number  6 and mass  12.00000

 Molecular mass:   126.06808 amu.
 Principal axes and moments of inertia in atomic units:
                           1         2         3
     Eigenvalues --   389.645251469.196331568.07545
           X            0.99997   0.00769   0.00238
           Y           -0.00766   0.99987  -0.01431
           Z           -0.00249   0.01429   0.99989
 This molecule is an asymmetric top.
 Rotational symmetry number  1.
 Rotational temperatures (Kelvin)      0.22229     0.05895     0.05524
 Rotational constants (GHZ):           4.63175     1.22839     1.15093
 Zero-point vibrational energy     421652.7 (Joules/Mol)
                                  100.77741 (Kcal/Mol)
 Warning -- explicit consideration of   8 degrees of freedom as
           vibrations may cause significant error
 Vibrational temperatures:    141.80   198.78   257.35   381.78   525.31
          (Kelvin)            603.74   670.60   824.80   998.15  1076.95
                             1157.61  1184.35  1277.32  1289.67  1314.78
                             1365.35  1404.31  1415.47  1438.47  1466.15
                             1504.48  1546.55  1558.09  1609.20  1613.30
                             1654.36  1680.33  1697.57  1705.73  1763.78
                             1776.16  1791.92  1812.96  1831.73  1908.34
                             1979.32  2014.55  2128.28  2135.78  2175.77
                             2190.99  4285.84  4303.39  4390.13  4410.00
                             4468.00  4478.19  4494.77  4495.86  4508.22
                             4519.88

 Zero-point correction=                           0.160599 (Hartree/Particle)
 Thermal correction to Energy=                    0.167993
 Thermal correction to Enthalpy=                  0.168937
 Thermal correction to Gibbs Free Energy=         0.128604
 Sum of electronic and zero-point Energies=           -422.976556
 Sum of electronic and thermal Energies=              -422.969162
 Sum of electronic and thermal Enthalpies=            -422.968218
 Sum of electronic and thermal Free Energies=         -423.008551

                     E (Thermal)             CV                S
                      KCal/Mol        Cal/Mol-Kelvin    Cal/Mol-Kelvin
 Total                  105.417             29.020             84.887
 Electronic               0.000              0.000              0.000
 Translational            0.889              2.981             40.409
 Rotational               0.889              2.981             28.286
 Vibrational            103.640             23.058             16.192
 Vibration     1          0.604              1.950              3.483
 Vibration     2          0.614              1.915              2.829
 Vibration     3          0.629              1.868              2.340
 Vibration     4          0.671              1.737              1.626
 Vibration     5          0.738              1.544              1.100
 Vibration     6          0.782              1.428              0.893
 Vibration     7          0.823              1.325              0.749
 Vibration     8          0.930              1.089              0.498

 Optimization completed.
    -- Stationary point found.
 Normal termination of Gaussian 09 at Tue Jan 28 15:04:51 2020.
