 Gaussian 09, Revision D.01,
 Gaussian 09:  ES64L-G09RevD.01 24-Apr-2013

 -----------------------------
 # b3lyp 6-31G(2df,p) opt Freq
 -----------------------------

 -----
 titel
 -----
 Symbolic Z-matrix:
 Charge =  0 Multiplicity = 1

 SCF Done:  E(RB3LYP) =  -423.208790893     A.U. after   14 cycles
 Optimization completed.
    -- Stationary point found.
 Normal termination of Gaussian 09 at Tue Jan 28 08:13:48 2020.

 ----------------------------------------------------------------------
 #N Geom=AllCheck Guess=TCheck SCRF=Check GenChk RB3LYP/6-31G(2df,p) Fr
 eq
 ----------------------------------------------------------------------

 Structure from the checkpoint file:  "/scratch/puck/g09_1d523d82-018c-4b43-aa41-7454c715da25/Gau-14206.chk"
 -----
 titel
 -----
 Charge =  0 Multiplicity = 1

                         Standard orientation:
 ---------------------------------------------------------------------
 Center     Atomic      Atomic             Coordinates (Angstroms)
 Number     Number       Type             X           Y           Z
 ---------------------------------------------------------------------
      1          8           0        2.288075   -0.184843   -0.848029
      2          6           0        1.558297   -0.449535    0.354738
      3          6           0        1.000647    0.823690    1.010286
      4          6           0        0.145529    1.733986    0.117089
      5          6           0       -0.931825    1.029833   -0.742155
      6          6           0       -1.587385   -0.190019   -0.108382
      7          8           0       -2.754958   -0.190597    0.224162
      8          6           0       -0.781256   -1.442527   -0.011956
      9          6           0        0.542086   -1.554203    0.149061
     10          1           0        1.652582   -0.075992   -1.562721
     11          1           0        2.317653   -0.852435    1.035648
     12          1           0        0.427000    0.516726    1.893198
     13          1           0        1.848955    1.410134    1.379468
     14          1           0       -0.345856    2.470339    0.760639
     15          1           0        0.799449    2.299166   -0.554211
     16          1           0       -1.728996    1.733320   -0.993666
     17          1           0       -0.485786    0.693796   -1.687383
     18          1           0       -1.390690   -2.341770   -0.061093
     19          1           0        0.964191   -2.557118    0.168972
 ---------------------------------------------------------------------

 SCF Done:  E(RB3LYP) =  -423.208790893     A.U. after    1 cycles

 The electronic state is 1-A.
 Alpha  occ. eigenvalues --  -19.14741 -19.12914 -10.27049 -10.24732 -10.20900
 Alpha  occ. eigenvalues --  -10.19934 -10.19803 -10.19612 -10.18996  -1.03841
 Alpha  occ. eigenvalues --   -1.02724  -0.82771  -0.78215  -0.74898  -0.66746
 Alpha  occ. eigenvalues --   -0.63870  -0.57360  -0.53191  -0.50514  -0.48516
 Alpha  occ. eigenvalues --   -0.46930  -0.44527  -0.43801  -0.43156  -0.41434
 Alpha  occ. eigenvalues --   -0.39431  -0.37407  -0.36287  -0.35183  -0.34751
 Alpha  occ. eigenvalues --   -0.32042  -0.28815  -0.27197  -0.24559
 Alpha virt. eigenvalues --   -0.05775   0.04173   0.05928   0.08599   0.11383
 Alpha virt. eigenvalues --    0.13087   0.13549   0.15472   0.15897   0.17209
 Alpha virt. eigenvalues --    0.17822   0.19211   0.20429   0.21022   0.23961

 Mulliken charges:
               1
     1  O   -0.433844
     2  C    0.086553
     3  C   -0.230237
     4  C   -0.209058
     5  C   -0.309274
     6  C    0.360841
     7  O   -0.318117
     8  C   -0.145299
     9  C   -0.086203
    10  H    0.284765
    11  H    0.096905
    12  H    0.111484
    13  H    0.108396
    14  H    0.117659
    15  H    0.114043
    16  H    0.124946
    17  H    0.100884
    18  H    0.115318
    19  H    0.110237
 Sum of Mulliken charges =   0.00000

 Dipole moment (field-independent basis, Debye):
    X=              1.6139    Y=              0.1211    Z=             -0.4397  Tot=              1.6771
 Quadrupole moment (field-independent basis, Debye-Ang):
   XX=            -67.5783   YY=            -49.4452   ZZ=            -50.7773
   XY=             -0.7761   XZ=              3.8902   YZ=             -0.3381

  Exact polarizability:  95.186  -1.999  77.463   1.838  -1.614  60.246
 Approx polarizability: 158.581  -5.636 104.814  -3.035  -2.663  93.824

                      1                      2                      3
                      A                      A                      A
 Frequencies --     64.6685               126.6549               164.4332
 Red. masses --      4.7831                 3.8478                 2.2713
 Frc consts  --      0.0118                 0.0364                 0.0362
 IR Inten    --      5.8208                 4.8032                 4.3427

                      4                      5                      6
                      A                      A                      A
 Frequencies --    202.0381               255.9231               309.2123
 Red. masses --      2.1057                 1.4435                 2.8820
 Frc consts  --      0.0506                 0.0557                 0.1624
 IR Inten    --      9.0219                72.7345                 3.6291

                      7                      8                      9
                      A                      A                      A
 Frequencies --    352.5028               405.7794               459.5544
 Red. masses --      4.0662                 2.9413                 2.6756
 Frc consts  --      0.2977                 0.2853                 0.3329
 IR Inten    --      0.6897                 4.9934                 1.3073

                     10                     11                     12
                      A                      A                      A
 Frequencies --    489.0828               573.6464               677.2491
 Red. masses --      3.7892                 3.1018                 4.7149
 Frc consts  --      0.5340                 0.6014                 1.2741
 IR Inten    --      9.6839                 0.8206                 0.4942

                     13                     14                     15
                      A                      A                      A
 Frequencies --    700.4877               754.6465               786.1108
 Red. masses --      1.6059                 2.7166                 2.1471
 Frc consts  --      0.4643                 0.9115                 0.7818
 IR Inten    --      1.8456                 5.9971                16.2373

                     16                     17                     18
                      A                      A                      A
 Frequencies --    835.5539               890.5589               896.9553
 Red. masses --      2.0034                 2.9508                 2.9678
 Frc consts  --      0.8241                 1.3788                 1.4068
 IR Inten    --      6.2945                 4.5700                12.5285

                     19                     20                     21
                      A                      A                      A
 Frequencies --    933.5326               999.8709              1024.7564
 Red. masses --      2.2236                 2.1588                 1.3067
 Frc consts  --      1.1417                 1.2716                 0.8085
 IR Inten    --     15.6660                21.4949                 2.9822

                     22                     23                     24
                      A                      A                      A
 Frequencies --   1044.8087              1084.7734              1115.3108
 Red. masses --      2.4468                 2.2039                 1.8313
 Frc consts  --      1.5737                 1.5280                 1.3421
 IR Inten    --     30.4870                43.4745                26.3770

                     25                     26                     27
                      A                      A                      A
 Frequencies --   1166.4332              1200.5203              1222.8027
 Red. masses --      2.0108                 1.3673                 1.1183
 Frc consts  --      1.6119                 1.1611                 0.9852
 IR Inten    --     14.7956                29.5005                 1.8600

                     28                     29                     30
                      A                      A                      A
 Frequencies --   1257.2183              1277.2170              1294.4785
 Red. masses --      1.3628                 1.4057                 1.1909
 Frc consts  --      1.2692                 1.3511                 1.1757
 IR Inten    --     12.5544                28.0038                 0.7888

                     31                     32                     33
                      A                      A                      A
 Frequencies --   1327.3692              1374.1371              1385.2348
 Red. masses --      1.4462                 1.4331                 1.4842
 Frc consts  --      1.5013                 1.5944                 1.6780
 IR Inten    --      8.5390                 5.7393                 6.1517

                     34                     35                     36
                      A                      A                      A
 Frequencies --   1400.1972              1408.2609              1426.7111
 Red. masses --      1.3560                 1.3728                 1.3182
 Frc consts  --      1.5664                 1.6040                 1.5809
 IR Inten    --     16.0968                 3.4199                41.8805

                     37                     38                     39
                      A                      A                      A
 Frequencies --   1476.5356              1482.5932              1499.8944
 Red. masses --      1.0803                 1.0843                 1.0990
 Frc consts  --      1.3876                 1.4043                 1.4567
 IR Inten    --      0.3585                14.3673                 5.2326

                     40                     41                     42
                      A                      A                      A
 Frequencies --   1690.5980              1777.1606              3021.9247
 Red. masses --      7.3603                11.0778                 1.0675
 Frc consts  --     12.3945                20.6137                 5.7434
 IR Inten    --      6.0086               189.2391                19.0044

                     43                     44                     45
                      A                      A                      A
 Frequencies --   3028.3746              3040.8283              3049.2053
 Red. masses --      1.0717                 1.0735                 1.0627
 Frc consts  --      5.7906                 5.8485                 5.8217
 IR Inten    --      3.6158                38.8839                17.6553

                     46                     47                     48
                      A                      A                      A
 Frequencies --   3073.3446              3090.0086              3106.8594
 Red. masses --      1.0994                 1.1017                 1.0973
 Frc consts  --      6.1181                 6.1975                 6.2404
 IR Inten    --     25.0657                26.1440                21.9758

                     49                     50                     51
                      A                      A                      A
 Frequencies --   3143.0264              3168.9568              3818.6241
 Red. masses --      1.0847                 1.0941                 1.0663
 Frc consts  --      6.3133                 6.4735                 9.1611
 IR Inten    --      8.3078                11.8318                11.6338

 - Thermochemistry -
 -------------------
 Temperature   298.150 Kelvin.  Pressure   1.00000 Atm.
 Atom     1 has atomic number  8 and mass  15.99491

 Molecular mass:   126.06808 amu.
 Principal axes and moments of inertia in atomic units:
                           1         2         3
     Eigenvalues --   685.398951298.907651648.58067
           X            0.99980  -0.00407   0.01935
           Y            0.00415   0.99998  -0.00427
           Z           -0.01933   0.00435   0.99980
 This molecule is an asymmetric top.
 Rotational symmetry number  1.
 Warning -- assumption of classical behavior for rotation
           may cause significant error
 Rotational temperatures (Kelvin)      0.12637     0.06668     0.05254
 Rotational constants (GHZ):           2.63313     1.38943     1.09472
 Zero-point vibrational energy     420826.1 (Joules/Mol)
                                  100.57984 (Kcal/Mol)
 Warning -- explicit consideration of  11 degrees of freedom as
           vibrations may cause significant error
 Vibrational temperatures:     93.04   182.23   236.58   290.69   368.22
          (Kelvin)            444.89   507.17   583.83   661.20   703.68
                              825.35   974.41  1007.84  1085.77  1131.04
                             1202.17  1281.31  1290.52  1343.14  1438.59
                             1474.39  1503.24  1560.75  1604.68  1678.24
                             1727.28  1759.34  1808.85  1837.63  1862.46
                             1909.79  1977.07  1993.04  2014.57  2026.17
                             2052.72  2124.40  2133.12  2158.01  2432.39
                             2556.93  4347.87  4357.15  4375.07  4387.12
                             4421.85  4445.83  4470.07  4522.11  4559.42
                             5494.14

 Zero-point correction=                           0.160284 (Hartree/Particle)
 Thermal correction to Energy=                    0.168938
 Thermal correction to Enthalpy=                  0.169882
 Thermal correction to Gibbs Free Energy=         0.126807
 Sum of electronic and zero-point Energies=           -423.048507
 Sum of electronic and thermal Energies=              -423.039853
 Sum of electronic and thermal Enthalpies=            -423.038909
 Sum of electronic and thermal Free Energies=         -423.081984

                     E (Thermal)             CV                S
                      KCal/Mol        Cal/Mol-Kelvin    Cal/Mol-Kelvin
 Total                  106.010             32.585             90.659
 Electronic               0.000              0.000              0.000
 Translational            0.889              2.981             40.409
 Rotational               0.889              2.981             28.775
 Vibrational            104.232             26.624             21.476
 Vibration     1          0.597              1.971              4.309
 Vibration     2          0.611              1.926              2.996
 Vibration     3          0.623              1.886              2.498
 Vibration     4          0.639              1.837              2.114
 Vibration     5          0.666              1.753              1.689
 Vibration     6          0.699              1.656              1.367
 Vibration     7          0.729              1.570              1.155
 Vibration     8          0.771              1.458              0.942
 Vibration     9          0.817              1.340              0.767
 Vibration    10          0.845              1.274              0.686
 Vibration    11          0.930              1.088              0.497

 Optimization completed.
    -- Stationary point found.
 Normal termination of Gaussian 09 at Tue Jan 28 08:58:18 2020.
