 Gaussian 09, Revision D.01,
 Gaussian 09:  ES64L-G09RevD.01 24-Apr-2013

 -----------------------------
 # b3lyp 6-31G(2df,p) opt Freq
 -----------------------------

 -----
 titel
 -----
 Symbolic Z-matrix:
 Charge =  0 Multiplicity = 1

 SCF Done:  E(RB3LYP) =  -423.193270677     A.U. after   14 cycles
 Optimization completed.
    -- Stationary point found.
 Normal termination of Gaussian 09 at Mon Jan 27 13:15:32 2020.

 ----------------------------------------------------------------------
 #N Geom=AllCheck Guess=TCheck SCRF=Check GenChk RB3LYP/6-31G(2df,p) Fr
 eq
 ----------------------------------------------------------------------

 Structure from the checkpoint file:  "/scratch/puck/g09_7a51ec20-6553-4341-bb48-359cfa2730f8/Gau-38310.chk"
 -----
 titel
 -----
 Charge =  0 Multiplicity = 1

                         Standard orientation:
 ---------------------------------------------------------------------
 Center     Atomic      Atomic             Coordinates (Angstroms)
 Number     Number       Type             X           Y           Z
 ---------------------------------------------------------------------
      1          8           0        2.835702   -0.082578   -0.517459
      2          6           0        1.919586    0.664541   -0.266484
      3          6           0        0.596961    0.222999    0.247905
      4          6           0        0.557044   -0.993704    1.165609
      5          6           0        0.050881   -1.120276   -0.235407
      6          6           0       -1.423735   -1.213788   -0.590722
      7          6           0       -2.245795   -0.042898   -0.026035
      8          6           0       -1.488806    1.266776   -0.224743
      9          8           0       -0.278131    1.274370    0.528063
     10          1           0        1.996683    1.765726   -0.399804
     11          1           0        1.509502   -1.454609    1.401937
     12          1           0       -0.154422   -0.919426    1.980437
     13          1           0        0.727890   -1.633832   -0.911799
     14          1           0       -1.507535   -1.200881   -1.684435
     15          1           0       -1.833485   -2.174388   -0.258203
     16          1           0       -3.219724    0.005389   -0.524235
     17          1           0       -2.437775   -0.174831    1.045174
     18          1           0       -1.277503    1.426979   -1.294515
     19          1           0       -2.061019    2.123646    0.139877
 ---------------------------------------------------------------------

 SCF Done:  E(RB3LYP) =  -423.193270677     A.U. after    1 cycles

 The electronic state is 1-A.
 Alpha  occ. eigenvalues --  -19.15375 -19.13297 -10.26406 -10.24639 -10.23730
 Alpha  occ. eigenvalues --  -10.20758 -10.19824 -10.19547 -10.19326  -1.05399
 Alpha  occ. eigenvalues --   -1.03703  -0.86513  -0.79934  -0.69662  -0.67276
 Alpha  occ. eigenvalues --   -0.62870  -0.57786  -0.53143  -0.51593  -0.49342
 Alpha  occ. eigenvalues --   -0.47173  -0.45662  -0.44353  -0.42739  -0.41201
 Alpha  occ. eigenvalues --   -0.39792  -0.37806  -0.36890  -0.35993  -0.33484
 Alpha  occ. eigenvalues --   -0.31968  -0.28387  -0.26376  -0.24115
 Alpha virt. eigenvalues --   -0.02299   0.08253   0.09396   0.11419   0.12172
 Alpha virt. eigenvalues --    0.13535   0.14358   0.15100   0.15339   0.15860
 Alpha virt. eigenvalues --    0.17815   0.19246   0.19610   0.20350   0.22987

 Mulliken charges:
               1
     1  O   -0.275681
     2  C    0.099202
     3  C    0.286897
     4  C   -0.316877
     5  C   -0.061939
     6  C   -0.229351
     7  C   -0.217214
     8  C   -0.075339
     9  O   -0.303458
    10  H    0.084209
    11  H    0.135159
    12  H    0.123849
    13  H    0.115937
    14  H    0.108311
    15  H    0.109275
    16  H    0.103119
    17  H    0.110803
    18  H    0.091525
    19  H    0.111571
 Sum of Mulliken charges =   0.00000

 Dipole moment (field-independent basis, Debye):
    X=             -3.2375    Y=             -0.2034    Z=             -0.1687  Tot=              3.2483
 Quadrupole moment (field-independent basis, Debye-Ang):
   XX=            -58.8118   YY=            -52.6545   ZZ=            -52.4078
   XY=              0.9912   XZ=              2.5852   YZ=             -1.7582

  Exact polarizability:  87.974   0.257  76.054  -0.529  -2.601  64.794
 Approx polarizability: 120.326  -2.150 113.052  -3.430  -1.295 101.642

                      1                      2                      3
                      A                      A                      A
 Frequencies --     99.0522               145.4160               191.6228
 Red. masses --      4.3756                 3.0705                 2.2522
 Frc consts  --      0.0253                 0.0383                 0.0487
 IR Inten    --      2.5444                 5.1753                 3.7447

                      4                      5                      6
                      A                      A                      A
 Frequencies --    234.1913               295.0576               363.6838
 Red. masses --      3.7291                 2.0974                 2.2155
 Frc consts  --      0.1205                 0.1076                 0.1727
 IR Inten    --      6.8682                 0.7553                 3.6280

                      7                      8                      9
                      A                      A                      A
 Frequencies --    396.2222               454.8820               496.7612
 Red. masses --      3.5578                 3.5403                 3.6045
 Frc consts  --      0.3291                 0.4316                 0.5241
 IR Inten    --      3.1113                 2.1591                 3.4452

                     10                     11                     12
                      A                      A                      A
 Frequencies --    565.2174               658.3408               717.6272
 Red. masses --      2.8382                 2.5239                 3.7554
 Frc consts  --      0.5342                 0.6445                 1.1395
 IR Inten    --      1.8756                10.5707                 5.4595

                     13                     14                     15
                      A                      A                      A
 Frequencies --    751.9999               838.2939               870.0823
 Red. masses --      3.6083                 2.6306                 1.3581
 Frc consts  --      1.2022                 1.0892                 0.6058
 IR Inten    --      5.6692                 2.8605                 8.0196

                     16                     17                     18
                      A                      A                      A
 Frequencies --    894.4374               911.5042               953.2582
 Red. masses --      2.3778                 1.9938                 1.5848
 Frc consts  --      1.1208                 0.9760                 0.8485
 IR Inten    --     15.7138                17.8227                 0.2069

                     19                     20                     21
                      A                      A                      A
 Frequencies --    996.1364              1014.0408              1049.0384
 Red. masses --      2.4927                 1.6191                 1.5929
 Frc consts  --      1.4573                 0.9809                 1.0328
 IR Inten    --     28.2873                 8.0511                 3.4750

                     22                     23                     24
                      A                      A                      A
 Frequencies --   1072.5237              1096.3924              1106.1095
 Red. masses --      1.5400                 3.2726                 1.7266
 Frc consts  --      1.0437                 2.3178                 1.2446
 IR Inten    --     13.3936                51.6320                33.4139

                     25                     26                     27
                      A                      A                      A
 Frequencies --   1132.8531              1143.4113              1222.6350
 Red. masses --      1.6152                 1.9772                 1.4276
 Frc consts  --      1.2213                 1.5230                 1.2573
 IR Inten    --     26.1444                 3.0308                 7.6932

                     28                     29                     30
                      A                      A                      A
 Frequencies --   1238.2330              1267.6815              1273.2703
 Red. masses --      1.5471                 2.0796                 1.7820
 Frc consts  --      1.3976                 1.9690                 1.7022
 IR Inten    --      7.0452                65.3753                16.4878

                     31                     32                     33
                      A                      A                      A
 Frequencies --   1308.0635              1366.9987              1371.3974
 Red. masses --      1.1747                 1.4075                 1.4816
 Frc consts  --      1.1842                 1.5496                 1.6418
 IR Inten    --      9.0016                11.2288                 1.4231

                     34                     35                     36
                      A                      A                      A
 Frequencies --   1401.5308              1408.3871              1416.5358
 Red. masses --      1.2970                 1.6956                 1.4109
 Frc consts  --      1.5011                 1.9816                 1.6680
 IR Inten    --     17.8425                 2.4978                 8.8866

                     37                     38                     39
                      A                      A                      A
 Frequencies --   1467.0076              1481.7515              1494.6291
 Red. masses --      1.3962                 1.0823                 1.1156
 Frc consts  --      1.7704                 1.4001                 1.4683
 IR Inten    --     15.9891                 4.8390                 2.1335

                     40                     41                     42
                      A                      A                      A
 Frequencies --   1505.4687              1807.5276              2900.7093
 Red. masses --      1.0972                10.2650                 1.0842
 Frc consts  --      1.4652                19.7595                 5.3747
 IR Inten    --      1.4952               150.4296               104.5816

                     43                     44                     45
                      A                      A                      A
 Frequencies --   2976.5719              3026.6606              3038.4284
 Red. masses --      1.0708                 1.0605                 1.0634
 Frc consts  --      5.5895                 5.7240                 5.7843
 IR Inten    --     52.9578                31.7448                15.0181

                     46                     47                     48
                      A                      A                      A
 Frequencies --   3062.9752              3086.0264              3096.1659
 Red. masses --      1.0990                 1.1029                 1.0934
 Frc consts  --      6.0750                 6.1883                 6.1755
 IR Inten    --     26.9594                39.5770                35.4758

                     49                     50                     51
                      A                      A                      A
 Frequencies --   3137.7000              3155.8065              3235.5572
 Red. masses --      1.0531                 1.0881                 1.1180
 Frc consts  --      6.1084                 6.3844                 6.8962
 IR Inten    --      6.1839                 4.9720                 2.2290

 - Thermochemistry -
 -------------------
 Temperature   298.150 Kelvin.  Pressure   1.00000 Atm.
 Atom     1 has atomic number  8 and mass  15.99491

 Molecular mass:   126.06808 amu.
 Principal axes and moments of inertia in atomic units:
                           1         2         3
     Eigenvalues --   580.179561331.703231591.00097
           X            0.99990   0.00258   0.01359
           Y           -0.00217   0.99954  -0.03020
           Z           -0.01366   0.03017   0.99945
 This molecule is an asymmetric top.
 Rotational symmetry number  1.
 Warning -- assumption of classical behavior for rotation
           may cause significant error
 Rotational temperatures (Kelvin)      0.14929     0.06504     0.05444
 Rotational constants (GHZ):           3.11066     1.35521     1.13434
 Zero-point vibrational energy     419864.6 (Joules/Mol)
                                  100.35004 (Kcal/Mol)
 Warning -- explicit consideration of  10 degrees of freedom as
           vibrations may cause significant error
 Vibrational temperatures:    142.51   209.22   275.70   336.95   424.52
          (Kelvin)            523.26   570.07   654.47   714.73   813.22
                              947.20  1032.50  1081.96  1206.12  1251.85
                             1286.89  1311.45  1371.52  1433.22  1458.98
                             1509.33  1543.12  1577.46  1591.44  1629.92
                             1645.11  1759.10  1781.54  1823.91  1831.95
                             1882.01  1966.80  1973.13  2016.49  2026.35
                             2038.08  2110.69  2131.91  2150.44  2166.03
                             2600.63  4173.47  4282.62  4354.68  4371.62
                             4406.93  4440.10  4454.69  4514.44  4540.50
                             4655.24

 Zero-point correction=                           0.159918 (Hartree/Particle)
 Thermal correction to Energy=                    0.167932
 Thermal correction to Enthalpy=                  0.168876
 Thermal correction to Gibbs Free Energy=         0.127423
 Sum of electronic and zero-point Energies=           -423.033353
 Sum of electronic and thermal Energies=              -423.025339
 Sum of electronic and thermal Enthalpies=            -423.024394
 Sum of electronic and thermal Free Energies=         -423.065848

                     E (Thermal)             CV                S
                      KCal/Mol        Cal/Mol-Kelvin    Cal/Mol-Kelvin
 Total                  105.379             31.032             87.247
 Electronic               0.000              0.000              0.000
 Translational            0.889              2.981             40.409
 Rotational               0.889              2.981             28.599
 Vibrational            103.601             25.070             18.239
 Vibration     1          0.604              1.950              3.473
 Vibration     2          0.617              1.908              2.731
 Vibration     3          0.634              1.851              2.212
 Vibration     4          0.654              1.789              1.847
 Vibration     5          0.689              1.683              1.445
 Vibration     6          0.737              1.547              1.106
 Vibration     7          0.763              1.478              0.977
 Vibration     8          0.813              1.350              0.781
 Vibration     9          0.852              1.257              0.666
 Vibration    10          0.921              1.107              0.514

 Normal termination of Gaussian 09 at Mon Jan 27 13:59:29 2020.
