 Gaussian 09, Revision D.01,
 Gaussian 09:  ES64L-G09RevD.01 24-Apr-2013

 -----------------------------
 # b3lyp 6-31G(2df,p) opt Freq
 -----------------------------

 -----
 titel
 -----
 Symbolic Z-matrix:
 Charge =  0 Multiplicity = 1

 SCF Done:  E(RB3LYP) =  -423.166510123     A.U. after   14 cycles
 Optimization completed.
    -- Stationary point found.
 Normal termination of Gaussian 09 at Tue Jan 28 00:05:22 2020.

 ----------------------------------------------------------------------
 #N Geom=AllCheck Guess=TCheck SCRF=Check GenChk RB3LYP/6-31G(2df,p) Fr
 eq
 ----------------------------------------------------------------------

 Structure from the checkpoint file:  "/scratch/puck/g09_939ae604-f5be-490c-84bb-dc1cbcdc9434/Gau-84036.chk"
 -----
 titel
 -----
 Charge =  0 Multiplicity = 1

                         Standard orientation:
 ---------------------------------------------------------------------
 Center     Atomic      Atomic             Coordinates (Angstroms)
 Number     Number       Type             X           Y           Z
 ---------------------------------------------------------------------
      1          6           0       -2.644301   -0.665360   -0.399249
      2          6           0       -1.151939   -0.519257   -0.590315
      3          6           0       -0.184231   -0.780565    0.545979
      4          8           0        1.012679   -1.438900    0.234234
      5          6           0        2.171732   -0.618246    0.236140
      6          6           0        1.987662    0.686578   -0.501874
      7          6           0        0.784936    1.246791   -0.617030
      8          6           0       -0.389783    0.627307    0.046518
      9          8           0       -1.178849    1.507486    0.806243
     10          1           0       -3.195204   -0.081950   -1.144416
     11          1           0       -2.944581   -1.713659   -0.502353
     12          1           0       -2.951793   -0.311724    0.586807
     13          1           0       -0.764570   -0.825029   -1.558166
     14          1           0       -0.601200   -1.036588    1.519613
     15          1           0        2.508289   -0.417156    1.269348
     16          1           0        2.955457   -1.217458   -0.238737
     17          1           0        2.873941    1.143535   -0.933050
     18          1           0        0.627410    2.180373   -1.150482
     19          1           0       -0.622844    1.867484    1.506607
 ---------------------------------------------------------------------

 SCF Done:  E(RB3LYP) =  -423.166510123     A.U. after    1 cycles

 The electronic state is 1-A.
 Alpha  occ. eigenvalues --  -19.14631 -19.14130 -10.23756 -10.23511 -10.22487
 Alpha  occ. eigenvalues --  -10.18969 -10.18662 -10.18613 -10.17175  -1.04182
 Alpha  occ. eigenvalues --   -1.02570  -0.84533  -0.79200  -0.71579  -0.67005
 Alpha  occ. eigenvalues --   -0.62315  -0.56905  -0.53856  -0.51289  -0.50269
 Alpha  occ. eigenvalues --   -0.46502  -0.44188  -0.42915  -0.40671  -0.40228
 Alpha  occ. eigenvalues --   -0.39778  -0.38000  -0.35523  -0.34667  -0.32479
 Alpha  occ. eigenvalues --   -0.30373  -0.26816  -0.24312  -0.22852
 Alpha virt. eigenvalues --    0.00423   0.08501   0.09956   0.11680   0.12585
 Alpha virt. eigenvalues --    0.13197   0.14883   0.16213   0.16794   0.17161
 Alpha virt. eigenvalues --    0.17885   0.18738   0.19562   0.21647   0.22933

 Mulliken charges:
               1
     1  C   -0.417342
     2  C   -0.069949
     3  C   -0.011961
     4  O   -0.258536
     5  C   -0.120436
     6  C   -0.076522
     7  C   -0.156974
     8  C    0.325383
     9  O   -0.461155
    10  H    0.120552
    11  H    0.116678
    12  H    0.131184
    13  H    0.096207
    14  H    0.088509
    15  H    0.099077
    16  H    0.118407
    17  H    0.098870
    18  H    0.097642
    19  H    0.280367
 Sum of Mulliken charges =   0.00000

 Dipole moment (field-independent basis, Debye):
    X=              1.2844    Y=              1.0048    Z=              0.5313  Tot=              1.7151
 Quadrupole moment (field-independent basis, Debye-Ang):
   XX=            -50.9265   YY=            -55.3202   ZZ=            -50.2544
   XY=              3.3368   XZ=              0.3599   YZ=              1.0960

  Exact polarizability:  99.210  -0.157  71.061   1.003  -2.261  63.464
 Approx polarizability: 136.421  -7.946 107.437   2.561  -2.270  96.872

                      1                      2                      3
                      A                      A                      A
 Frequencies --    125.8386               164.7127               173.0773
 Red. masses --      3.0124                 1.2413                 1.9840
 Frc consts  --      0.0281                 0.0198                 0.0350
 IR Inten    --      1.0018                 0.9253                 0.3495

                      4                      5                      6
                      A                      A                      A
 Frequencies --    222.4982               284.6700               296.8864
 Red. masses --      2.8275                 2.2300                 3.0124
 Frc consts  --      0.0825                 0.1065                 0.1564
 IR Inten    --      2.4563                 4.7623                 5.1044

                      7                      8                      9
                      A                      A                      A
 Frequencies --    324.3966               383.8316               441.4172
 Red. masses --      1.2960                 4.1687                 4.1950
 Frc consts  --      0.0804                 0.3618                 0.4816
 IR Inten    --     72.1496                25.6577                 0.4858

                     10                     11                     12
                      A                      A                      A
 Frequencies --    472.1237               533.6414               590.8000
 Red. masses --      2.7280                 5.2993                 4.2040
 Frc consts  --      0.3583                 0.8891                 0.8646
 IR Inten    --      0.9576                 2.4058                 5.5253

                     13                     14                     15
                      A                      A                      A
 Frequencies --    691.9488               718.5711               841.4860
 Red. masses --      3.7346                 1.6200                 2.5301
 Frc consts  --      1.0535                 0.4928                 1.0556
 IR Inten    --      8.5352                12.3177                 3.0826

                     16                     17                     18
                      A                      A                      A
 Frequencies --    856.7470               898.9516               915.3355
 Red. masses --      2.6934                 2.3308                 2.9594
 Frc consts  --      1.1648                 1.1098                 1.4609
 IR Inten    --     23.3309                 4.7161                 5.7024

                     19                     20                     21
                      A                      A                      A
 Frequencies --    981.2351               993.8442              1016.2586
 Red. masses --      1.8510                 1.3697                 2.0926
 Frc consts  --      1.0501                 0.7971                 1.2733
 IR Inten    --      8.9561                 1.7755                32.8388

                     22                     23                     24
                      A                      A                      A
 Frequencies --   1023.6428              1056.7238              1097.3003
 Red. masses --      1.3513                 2.0074                 2.2733
 Frc consts  --      0.8343                 1.3207                 1.6127
 IR Inten    --     12.3100                 6.4341                 4.3255

                     25                     26                     27
                      A                      A                      A
 Frequencies --   1122.0260              1132.2292              1169.8609
 Red. masses --      1.7646                 2.4661                 1.9375
 Frc consts  --      1.3089                 1.8627                 1.5623
 IR Inten    --     12.8440                24.8490                58.9285

                     28                     29                     30
                      A                      A                      A
 Frequencies --   1190.2322              1232.9519              1260.0975
 Red. masses --      1.8692                 2.7720                 1.2537
 Frc consts  --      1.5602                 2.4828                 1.1729
 IR Inten    --     81.5511                33.4261                12.3313

                     31                     32                     33
                      A                      A                      A
 Frequencies --   1278.7744              1315.1004              1327.3576
 Red. masses --      1.4451                 1.2155                 1.3186
 Frc consts  --      1.3923                 1.2386                 1.3688
 IR Inten    --     16.5645                16.4628                12.8352

                     34                     35                     36
                      A                      A                      A
 Frequencies --   1394.8384              1407.6739              1416.4777
 Red. masses --      1.4123                 1.4159                 1.5229
 Frc consts  --      1.6189                 1.6531                 1.8003
 IR Inten    --      2.4790                 5.5789                 3.7728

                     37                     38                     39
                      A                      A                      A
 Frequencies --   1457.2073              1491.0558              1493.7109
 Red. masses --      2.4169                 1.0639                 1.1076
 Frc consts  --      3.0237                 1.3935                 1.4561
 IR Inten    --     11.2156                 0.6554                 4.9139

                     40                     41                     42
                      A                      A                      A
 Frequencies --   1502.5173              1709.9070              2940.9978
 Red. masses --      1.0992                 6.9999                 1.0727
 Frc consts  --      1.4621                12.0583                 5.4668
 IR Inten    --      4.1797                 2.2021                67.0956

                     43                     44                     45
                      A                      A                      A
 Frequencies --   3036.8062              3068.1528              3094.5951
 Red. masses --      1.0375                 1.0876                 1.1014
 Frc consts  --      5.6371                 6.0320                 6.2142
 IR Inten    --     38.2173                31.0876                22.7208

                     46                     47                     48
                      A                      A                      A
 Frequencies --   3107.7665              3128.7909              3156.1969
 Red. masses --      1.0886                 1.0970                 1.0884
 Frc consts  --      6.1946                 6.3270                 6.3878
 IR Inten    --     25.6645                 7.8638                13.3744

                     49                     50                     51
                      A                      A                      A
 Frequencies --   3156.6592              3179.1854              3791.5287
 Red. masses --      1.0843                 1.0986                 1.0661
 Frc consts  --      6.3657                 6.5420                 9.0302
 IR Inten    --      4.9751                22.8179                15.5711

 - Thermochemistry -
 -------------------
 Temperature   298.150 Kelvin.  Pressure   1.00000 Atm.
 Atom     1 has atomic number  6 and mass  12.00000

 Molecular mass:   126.06808 amu.
 Principal axes and moments of inertia in atomic units:
                           1         2         3
     Eigenvalues --   631.830251240.623941571.83893
           X            0.99930   0.03685   0.00677
           Y           -0.03682   0.99931  -0.00501
           Z           -0.00695   0.00476   0.99996
 This molecule is an asymmetric top.
 Rotational symmetry number  1.
 Warning -- assumption of classical behavior for rotation
           may cause significant error
 Rotational temperatures (Kelvin)      0.13708     0.06981     0.05510
 Rotational constants (GHZ):           2.85637     1.45470     1.14817
 Zero-point vibrational energy     416711.0 (Joules/Mol)
                                   99.59632 (Kcal/Mol)
 Warning -- explicit consideration of  12 degrees of freedom as
           vibrations may cause significant error
 Vibrational temperatures:    181.05   236.98   249.02   320.12   409.58
          (Kelvin)            427.15   466.73   552.25   635.10   679.28
                              767.79   850.03   995.56  1033.86  1210.71
                             1232.67  1293.39  1316.96  1411.78  1429.92
                             1462.17  1472.79  1520.39  1578.77  1614.34
                             1629.02  1683.17  1712.48  1773.94  1813.00
                             1839.87  1892.13  1909.77  2006.86  2025.33
                             2037.99  2096.59  2145.29  2149.11  2161.78
                             2460.17  4231.43  4369.28  4414.38  4452.43
                             4471.38  4501.63  4541.06  4541.72  4574.13
                             5455.16

 Zero-point correction=                           0.158717 (Hartree/Particle)
 Thermal correction to Energy=                    0.167290
 Thermal correction to Enthalpy=                  0.168234
 Thermal correction to Gibbs Free Energy=         0.126004
 Sum of electronic and zero-point Energies=           -423.007793
 Sum of electronic and thermal Energies=              -422.999220
 Sum of electronic and thermal Enthalpies=            -422.998276
 Sum of electronic and thermal Free Energies=         -423.040506

                     E (Thermal)             CV                S
                      KCal/Mol        Cal/Mol-Kelvin    Cal/Mol-Kelvin
 Total                  104.976             33.153             88.882
 Electronic               0.000              0.000              0.000
 Translational            0.889              2.981             40.409
 Rotational               0.889              2.981             28.601
 Vibrational            103.199             27.191             19.872
 Vibration     1          0.611              1.927              3.009
 Vibration     2          0.623              1.886              2.495
 Vibration     3          0.627              1.876              2.402
 Vibration     4          0.648              1.807              1.939
 Vibration     5          0.683              1.702              1.505
 Vibration     6          0.691              1.680              1.434
 Vibration     7          0.709              1.627              1.288
 Vibration     8          0.753              1.505              1.024
 Vibration     9          0.801              1.380              0.822
 Vibration    10          0.829              1.312              0.732
 Vibration    11          0.889              1.176              0.579
 Vibration    12          0.948              1.051              0.466

 Normal termination of Gaussian 09 at Tue Jan 28 00:52:04 2020.
