 Gaussian 09, Revision D.01,
 Gaussian 09:  ES64L-G09RevD.01 24-Apr-2013

 -----------------------------
 # b3lyp 6-31G(2df,p) opt Freq
 -----------------------------

 -----
 titel
 -----
 Symbolic Z-matrix:
 Charge =  0 Multiplicity = 1

 SCF Done:  E(RB3LYP) =  -423.203207900     A.U. after   14 cycles
 Optimization completed.
    -- Stationary point found.
 Normal termination of Gaussian 09 at Tue Jan 28 14:02:50 2020.

 ----------------------------------------------------------------------
 #N Geom=AllCheck Guess=TCheck SCRF=Check GenChk RB3LYP/6-31G(2df,p) Fr
 eq
 ----------------------------------------------------------------------

 Structure from the checkpoint file:  "/scratch/puck/g09_9c74c51b-8433-4b9f-93df-759d676edbf8/Gau-28483.chk"
 -----
 titel
 -----
 Charge =  0 Multiplicity = 1

                         Standard orientation:
 ---------------------------------------------------------------------
 Center     Atomic      Atomic             Coordinates (Angstroms)
 Number     Number       Type             X           Y           Z
 ---------------------------------------------------------------------
      1          6           0        2.973678   -0.490504    0.041355
      2          6           0        1.774642    0.381539    0.425542
      3          6           0        0.497375    0.059599   -0.373746
      4          6           0       -0.184973   -1.238746    0.004385
      5          8           0       -1.348887   -1.511615   -0.786315
      6          6           0       -1.539918   -0.983168    0.531150
      7          6           0       -1.827282    0.497597    0.531084
      8          6           0       -0.590080    1.131497   -0.130647
      9          8           0       -0.463266    2.299936   -0.383828
     10          1           0        3.858914   -0.210314    0.620281
     11          1           0        2.784492   -1.553517    0.223639
     12          1           0        3.217568   -0.375280   -1.020160
     13          1           0        1.568999    0.280906    1.499444
     14          1           0        2.011198    1.436589    0.253558
     15          1           0        0.737373    0.067572   -1.444137
     16          1           0        0.394596   -2.110973    0.294792
     17          1           0       -2.028651   -1.649467    1.236864
     18          1           0       -2.732005    0.762209   -0.024019
     19          1           0       -1.935910    0.898834    1.546145
 ---------------------------------------------------------------------

 SCF Done:  E(RB3LYP) =  -423.203207900     A.U. after    1 cycles

 The electronic state is 1-A.
 Alpha  occ. eigenvalues --  -19.15821 -19.13564 -10.27361 -10.24628 -10.24348
 Alpha  occ. eigenvalues --  -10.19998 -10.19926 -10.19579 -10.18414  -1.08161
 Alpha  occ. eigenvalues --   -1.04636  -0.82064  -0.77624  -0.72009  -0.65189
 Alpha  occ. eigenvalues --   -0.62464  -0.58378  -0.54641  -0.51038  -0.47568
 Alpha  occ. eigenvalues --   -0.46138  -0.44617  -0.43240  -0.42795  -0.41782
 Alpha  occ. eigenvalues --   -0.40009  -0.38270  -0.36905  -0.35805  -0.34581
 Alpha  occ. eigenvalues --   -0.34197  -0.30069  -0.27505  -0.24586
 Alpha virt. eigenvalues --   -0.02151   0.07996   0.08961   0.10907   0.11283
 Alpha virt. eigenvalues --    0.12735   0.13598   0.14617   0.15668   0.16417
 Alpha virt. eigenvalues --    0.17404   0.17640   0.18596   0.20578   0.22162

 Mulliken charges:
               1
     1  C   -0.392583
     2  C   -0.191622
     3  C   -0.125089
     4  C    0.035157
     5  O   -0.263058
     6  C    0.035813
     7  C   -0.353993
     8  C    0.383156
     9  O   -0.310472
    10  H    0.119987
    11  H    0.118633
    12  H    0.123602
    13  H    0.096782
    14  H    0.127208
    15  H    0.114670
    16  H    0.101412
    17  H    0.101660
    18  H    0.145934
    19  H    0.132804
 Sum of Mulliken charges =   0.00000

 Dipole moment (field-independent basis, Debye):
    X=              0.7283    Y=             -1.6518    Z=              2.0395  Tot=              2.7237
 Quadrupole moment (field-independent basis, Debye-Ang):
   XX=            -50.0390   YY=            -61.3723   ZZ=            -52.6115
   XY=             -1.0484   XZ=             -3.2040   YZ=             -1.0051

  Exact polarizability:  87.423  -1.772  75.174  -4.334  -1.388  61.938
 Approx polarizability: 113.314  -0.478 114.232  -4.253  -1.332 100.377

                      1                      2                      3
                      A                      A                      A
 Frequencies --     51.9655                97.9504               162.0185
 Red. masses --      3.5269                 2.0393                 3.4385
 Frc consts  --      0.0056                 0.0115                 0.0532
 IR Inten    --      5.3079                 0.9706                 1.3090

                      4                      5                      6
                      A                      A                      A
 Frequencies --    181.5438               259.0017               304.5913
 Red. masses --      2.0277                 1.4152                 3.5353
 Frc consts  --      0.0394                 0.0559                 0.1932
 IR Inten    --      2.5272                 0.7516                 2.6957

                      7                      8                      9
                      A                      A                      A
 Frequencies --    361.2574               450.1329               487.9051
 Red. masses --      2.6072                 4.7353                 3.5596
 Frc consts  --      0.2005                 0.5653                 0.4993
 IR Inten    --      3.7014                 5.7834                 9.5776

                     10                     11                     12
                      A                      A                      A
 Frequencies --    566.4694               633.0318               701.4063
 Red. masses --      3.1109                 4.9735                 3.9114
 Frc consts  --      0.5881                 1.1743                 1.1338
 IR Inten    --      0.3641                 6.5878                 6.9603

                     13                     14                     15
                      A                      A                      A
 Frequencies --    762.0990               791.6820               826.5001
 Red. masses --      2.4054                 1.4648                 3.8761
 Frc consts  --      0.8231                 0.5409                 1.5600
 IR Inten    --      2.7487                 8.3051                 1.1897

                     16                     17                     18
                      A                      A                      A
 Frequencies --    856.1937               898.8062               940.7645
 Red. masses --      2.3605                 2.9195                 1.9797
 Frc consts  --      1.0195                 1.3896                 1.0323
 IR Inten    --     30.7441                 0.6232                10.4118

                     19                     20                     21
                      A                      A                      A
 Frequencies --    978.6530               996.0373              1041.0337
 Red. masses --      1.7417                 1.9749                 1.3743
 Frc consts  --      0.9828                 1.1544                 0.8775
 IR Inten    --      4.1799                 5.6105                 5.1046

                     22                     23                     24
                      A                      A                      A
 Frequencies --   1063.8736              1078.2116              1117.9303
 Red. masses --      2.7453                 1.3230                 2.3681
 Frc consts  --      1.8307                 0.9062                 1.7438
 IR Inten    --      5.1076                10.0037                 8.2828

                     25                     26                     27
                      A                      A                      A
 Frequencies --   1136.8282              1156.5879              1184.6548
 Red. masses --      3.0848                 1.6062                 1.4577
 Frc consts  --      2.3489                 1.2660                 1.2054
 IR Inten    --     67.8328                 0.4248                 3.9900

                     28                     29                     30
                      A                      A                      A
 Frequencies --   1245.3428              1253.6787              1271.1896
 Red. masses --      1.5419                 1.3297                 1.3926
 Frc consts  --      1.4089                 1.2313                 1.3259
 IR Inten    --      4.7722                 2.8848                 1.9627

                     31                     32                     33
                      A                      A                      A
 Frequencies --   1284.9594              1331.5738              1362.1328
 Red. masses --      1.7203                 1.3035                 1.5627
 Frc consts  --      1.6736                 1.3617                 1.7083
 IR Inten    --      5.8653                 6.7245                 3.1778

                     34                     35                     36
                      A                      A                      A
 Frequencies --   1366.4742              1415.0801              1426.4707
 Red. masses --      1.4283                 1.2425                 2.6912
 Frc consts  --      1.5713                 1.4659                 3.2264
 IR Inten    --     13.9101                 2.5165                13.0794

                     37                     38                     39
                      A                      A                      A
 Frequencies --   1440.1202              1489.7800              1499.6339
 Red. masses --      1.1740                 1.0601                 1.0415
 Frc consts  --      1.4346                 1.3863                 1.3800
 IR Inten    --      8.4736                 0.6929                 5.7557

                     40                     41                     42
                      A                      A                      A
 Frequencies --   1505.1056              1845.9949              3021.7011
 Red. masses --      1.0685                12.8620                 1.0672
 Frc consts  --      1.4262                25.8239                 5.7409
 IR Inten    --      4.2759               181.8632                12.3670

                     43                     44                     45
                      A                      A                      A
 Frequencies --   3034.0200              3042.4202              3046.7980
 Red. masses --      1.0365                 1.0792                 1.0633
 Frc consts  --      5.6215                 5.8857                 5.8154
 IR Inten    --     21.1502                16.2676                 7.4744

                     46                     47                     48
                      A                      A                      A
 Frequencies --   3075.3808              3098.1257              3104.0348
 Red. masses --      1.0966                 1.0986                 1.1017
 Frc consts  --      6.1109                 6.2126                 6.2541
 IR Inten    --      1.6187                 3.4705                39.8409

                     49                     50                     51
                      A                      A                      A
 Frequencies --   3106.5885              3145.2801              3157.0389
 Red. masses --      1.1012                 1.0871                 1.0949
 Frc consts  --      6.2616                 6.3361                 6.4294
 IR Inten    --     30.5051                15.2363                30.7891

 - Thermochemistry -
 -------------------
 Temperature   298.150 Kelvin.  Pressure   1.00000 Atm.
 Atom     1 has atomic number  6 and mass  12.00000

 Molecular mass:   126.06808 amu.
 Principal axes and moments of inertia in atomic units:
                           1         2         3
     Eigenvalues --   786.757221218.202241769.82947
           X            0.99925  -0.03646  -0.01286
           Y            0.03641   0.99933  -0.00450
           Z            0.01301   0.00403   0.99991
 This molecule is an asymmetric top.
 Rotational symmetry number  1.
 Warning -- assumption of classical behavior for rotation
           may cause significant error
 Rotational temperatures (Kelvin)      0.11009     0.07110     0.04894
 Rotational constants (GHZ):           2.29390     1.48148     1.01973
 Zero-point vibrational energy     416635.7 (Joules/Mol)
                                   99.57833 (Kcal/Mol)
 Warning -- explicit consideration of  10 degrees of freedom as
           vibrations may cause significant error
 Vibrational temperatures:     74.77   140.93   233.11   261.20   372.65
          (Kelvin)            438.24   519.77   647.64   701.99   815.02
                              910.79  1009.17  1096.49  1139.05  1189.15
                             1231.87  1293.18  1353.55  1408.06  1433.07
                             1497.81  1530.67  1551.30  1608.45  1635.64
                             1664.07  1704.45  1791.77  1803.76  1828.96
                             1848.77  1915.84  1959.80  1966.05  2035.98
                             2052.37  2072.01  2143.46  2157.64  2165.51
                             2655.97  4347.55  4365.27  4377.36  4383.66
                             4424.78  4457.51  4466.01  4469.68  4525.35
                             4542.27

 Zero-point correction=                           0.158688 (Hartree/Particle)
 Thermal correction to Energy=                    0.167240
 Thermal correction to Enthalpy=                  0.168184
 Thermal correction to Gibbs Free Energy=         0.124832
 Sum of electronic and zero-point Energies=           -423.044520
 Sum of electronic and thermal Energies=              -423.035968
 Sum of electronic and thermal Enthalpies=            -423.035024
 Sum of electronic and thermal Free Energies=         -423.078376

                     E (Thermal)             CV                S
                      KCal/Mol        Cal/Mol-Kelvin    Cal/Mol-Kelvin
 Total                  104.945             31.909             91.242
 Electronic               0.000              0.000              0.000
 Translational            0.889              2.981             40.409
 Rotational               0.889              2.981             28.919
 Vibrational            103.167             25.947             21.915
 Vibration     1          0.596              1.977              4.741
 Vibration     2          0.603              1.951              3.495
 Vibration     3          0.622              1.889              2.526
 Vibration     4          0.630              1.865              2.312
 Vibration     5          0.668              1.748              1.668
 Vibration     6          0.696              1.665              1.392
 Vibration     7          0.735              1.552              1.117
 Vibration     8          0.809              1.361              0.795
 Vibration     9          0.844              1.277              0.689
 Vibration    10          0.922              1.104              0.511

 Optimization completed.
    -- Stationary point found.
 Normal termination of Gaussian 09 at Tue Jan 28 14:47:47 2020.
