 Gaussian 09, Revision D.01,
 Gaussian 09:  ES64L-G09RevD.01 24-Apr-2013

 -----------------------------
 # b3lyp 6-31G(2df,p) opt Freq
 -----------------------------

 -----
 titel
 -----
 Symbolic Z-matrix:
 Charge =  0 Multiplicity = 1

 SCF Done:  E(RB3LYP) =  -423.181997143     A.U. after   14 cycles
 Optimization completed.
    -- Stationary point found.
 Normal termination of Gaussian 09 at Mon Jan 27 22:03:50 2020.

 ----------------------------------------------------------------------
 #N Geom=AllCheck Guess=TCheck SCRF=Check GenChk RB3LYP/6-31G(2df,p) Fr
 eq
 ----------------------------------------------------------------------

 Structure from the checkpoint file:  "/scratch/puck/g09_5f9b6f2b-abfb-4613-9159-8e9d54b7d785/Gau-72865.chk"
 -----
 titel
 -----
 Charge =  0 Multiplicity = 1

                         Standard orientation:
 ---------------------------------------------------------------------
 Center     Atomic      Atomic             Coordinates (Angstroms)
 Number     Number       Type             X           Y           Z
 ---------------------------------------------------------------------
      1          6           0        2.384498   -1.106745   -0.544629
      2          6           0        1.328550   -0.024935   -0.554527
      3          6           0        0.980947    0.725007    0.683738
      4          8           0        0.654140    2.071212    0.680710
      5          6           0       -0.019815   -0.290741    0.123023
      6          6           0       -0.674429   -1.560125    0.695994
      7          6           0       -2.054356   -1.060525    0.140400
      8          6           0       -1.328692    0.192795   -0.377309
      9          8           0       -1.666538    1.227206   -0.903863
     10          1           0        2.184119   -1.870510   -1.303532
     11          1           0        3.372607   -0.681180   -0.748251
     12          1           0        2.431273   -1.608507    0.427265
     13          1           0        1.239560    0.542083   -1.479647
     14          1           0        1.492833    0.445584    1.601371
     15          1           0       -0.041946    2.213791    0.019847
     16          1           0       -0.325297   -2.496433    0.254606
     17          1           0       -0.637779   -1.647688    1.784077
     18          1           0       -2.485994   -1.676348   -0.653615
     19          1           0       -2.830412   -0.856530    0.882963
 ---------------------------------------------------------------------

 SCF Done:  E(RB3LYP) =  -423.181997143     A.U. after    1 cycles

 The electronic state is 1-A.
 Alpha  occ. eigenvalues --  -19.13953 -19.13931 -10.26953 -10.24962 -10.20561
 Alpha  occ. eigenvalues --  -10.20123 -10.20009 -10.19848 -10.19205  -1.04839
 Alpha  occ. eigenvalues --   -1.02667  -0.87832  -0.81452  -0.71775  -0.64525
 Alpha  occ. eigenvalues --   -0.63216  -0.59871  -0.53606  -0.48639  -0.48022
 Alpha  occ. eigenvalues --   -0.47039  -0.44394  -0.43367  -0.41405  -0.39892
 Alpha  occ. eigenvalues --   -0.39425  -0.38193  -0.37303  -0.35783  -0.35369
 Alpha  occ. eigenvalues --   -0.34911  -0.28041  -0.26011  -0.23474
 Alpha virt. eigenvalues --   -0.02562   0.08098   0.09838   0.10189   0.11824
 Alpha virt. eigenvalues --    0.12985   0.14271   0.15016   0.15461   0.15895
 Alpha virt. eigenvalues --    0.17552   0.17880   0.18583   0.22011   0.22543

 Mulliken charges:
               1
     1  C   -0.412770
     2  C   -0.127013
     3  C    0.083924
     4  O   -0.430772
     5  C    0.157443
     6  C   -0.340280
     7  C   -0.337888
     8  C    0.368573
     9  O   -0.355833
    10  H    0.124344
    11  H    0.131436
    12  H    0.121120
    13  H    0.104806
    14  H    0.111512
    15  H    0.304354
    16  H    0.112269
    17  H    0.114877
    18  H    0.134658
    19  H    0.135240
 Sum of Mulliken charges =   0.00000

 Dipole moment (field-independent basis, Debye):
    X=              0.7451    Y=             -3.2334    Z=              0.3152  Tot=              3.3330
 Quadrupole moment (field-independent basis, Debye-Ang):
   XX=            -52.9549   YY=            -57.0607   ZZ=            -52.9877
   XY=              1.3835   XZ=             -2.7729   YZ=             -0.5485

  Exact polarizability:  90.652   1.066  78.738   0.328  -2.381  64.728
 Approx polarizability: 123.611  -0.722 118.952   5.557  -5.405 101.834

                      1                      2                      3
                      A                      A                      A
 Frequencies --     87.9840               110.1028               165.2097
 Red. masses --      2.6478                 4.4677                 3.3266
 Frc consts  --      0.0121                 0.0319                 0.0535
 IR Inten    --      2.0860                 1.2928                 2.5999

                      4                      5                      6
                      A                      A                      A
 Frequencies --    187.9830               222.2461               249.5468
 Red. masses --      1.2173                 2.5765                 3.1673
 Frc consts  --      0.0253                 0.0750                 0.1162
 IR Inten    --      0.0355                 2.7902                 0.7288

                      7                      8                      9
                      A                      A                      A
 Frequencies --    294.3245               406.6021               460.1639
 Red. masses --      2.7370                 4.6342                 1.5827
 Frc consts  --      0.1397                 0.4514                 0.1975
 IR Inten    --      2.5200                 3.5102                34.8824

                     10                     11                     12
                      A                      A                      A
 Frequencies --    473.7208               512.1134               548.9841
 Red. masses --      1.7995                 3.1412                 2.1229
 Frc consts  --      0.2379                 0.4854                 0.3770
 IR Inten    --     65.5318                 6.9705                 7.0582

                     13                     14                     15
                      A                      A                      A
 Frequencies --    629.4251               723.4699               753.4893
 Red. masses --      3.8011                 4.7668                 4.0352
 Frc consts  --      0.8873                 1.4700                 1.3498
 IR Inten    --      1.6710                10.6642                 3.8141

                     16                     17                     18
                      A                      A                      A
 Frequencies --    765.3084               878.4366               919.0056
 Red. masses --      1.2801                 2.1119                 2.9753
 Frc consts  --      0.4417                 0.9602                 1.4805
 IR Inten    --      3.0851                26.3898                 1.9716

                     19                     20                     21
                      A                      A                      A
 Frequencies --    947.5839              1008.8618              1023.3428
 Red. masses --      1.9202                 1.3595                 2.4881
 Frc consts  --      1.0159                 0.8152                 1.5352
 IR Inten    --     16.7291                10.5696                13.9824

                     22                     23                     24
                      A                      A                      A
 Frequencies --   1055.0178              1086.1864              1096.9834
 Red. masses --      2.0875                 2.6376                 1.3886
 Frc consts  --      1.3690                 1.8334                 0.9845
 IR Inten    --      2.6755               119.2698                 8.6201

                     25                     26                     27
                      A                      A                      A
 Frequencies --   1119.5757              1129.2757              1160.6130
 Red. masses --      1.7533                 2.1977                 2.6325
 Frc consts  --      1.2948                 1.6512                 2.0893
 IR Inten    --     11.4686                 2.5494               117.6548

                     28                     29                     30
                      A                      A                      A
 Frequencies --   1179.9526              1206.1486              1227.5260
 Red. masses --      1.7299                 1.1379                 1.6453
 Frc consts  --      1.4190                 0.9753                 1.4607
 IR Inten    --     25.1867                 0.6283                 4.8402

                     31                     32                     33
                      A                      A                      A
 Frequencies --   1251.9370              1296.8741              1319.2880
 Red. masses --      1.7608                 1.6905                 1.6768
 Frc consts  --      1.6260                 1.6752                 1.7195
 IR Inten    --      7.5022                23.0484                38.3012

                     34                     35                     36
                      A                      A                      A
 Frequencies --   1408.9066              1416.9091              1438.3076
 Red. masses --      1.3762                 1.5187                 1.0979
 Frc consts  --      1.6095                 1.7965                 1.3382
 IR Inten    --     13.2047                11.7330                 8.5473

                     37                     38                     39
                      A                      A                      A
 Frequencies --   1469.4811              1491.6451              1492.7403
 Red. masses --      1.5182                 1.1102                 1.0792
 Frc consts  --      1.9316                 1.4555                 1.4169
 IR Inten    --     93.4414                11.9307                 7.0299

                     40                     41                     42
                      A                      A                      A
 Frequencies --   1501.5084              1831.0800              3031.5891
 Red. masses --      1.1043                12.2608                 1.0349
 Frc consts  --      1.4669                24.2204                 5.6040
 IR Inten    --     13.2048               260.3676                25.3241

                     43                     44                     45
                      A                      A                      A
 Frequencies --   3063.0584              3069.0117              3096.1515
 Red. masses --      1.0573                 1.0597                 1.1012
 Frc consts  --      5.8447                 5.8806                 6.2193
 IR Inten    --     19.0932                21.7962                18.2519

                     46                     47                     48
                      A                      A                      A
 Frequencies --   3101.2424              3109.0199              3124.9204
 Red. masses --      1.1000                 1.1081                 1.1065
 Frc consts  --      6.2334                 6.3105                 6.3661
 IR Inten    --     14.5404                 2.2339                19.2640

                     49                     50                     51
                      A                      A                      A
 Frequencies --   3129.8247              3148.0294              3687.8660
 Red. masses --      1.0893                 1.0882                 1.0664
 Frc consts  --      6.2871                 6.3536                 8.5451
 IR Inten    --      9.3128                18.0909                63.9736

 - Thermochemistry -
 -------------------
 Temperature   298.150 Kelvin.  Pressure   1.00000 Atm.
 Atom     1 has atomic number  6 and mass  12.00000

 Molecular mass:   126.06808 amu.
 Principal axes and moments of inertia in atomic units:
                           1         2         3
     Eigenvalues --   838.871311154.260891615.65646
           X            0.99959  -0.01020  -0.02659
           Y            0.00999   0.99992  -0.00800
           Z            0.02667   0.00773   0.99961
 This molecule is an asymmetric top.
 Rotational symmetry number  1.
 Warning -- assumption of classical behavior for rotation
           may cause significant error
 Rotational temperatures (Kelvin)      0.10325     0.07504     0.05361
 Rotational constants (GHZ):           2.15139     1.56355     1.11703
 Zero-point vibrational energy     413361.1 (Joules/Mol)
                                   98.79567 (Kcal/Mol)
 Warning -- explicit consideration of  12 degrees of freedom as
           vibrations may cause significant error
 Vibrational temperatures:    126.59   158.41   237.70   270.47   319.76
          (Kelvin)            359.04   423.47   585.01   662.07   681.58
                              736.82   789.86   905.60  1040.91  1084.10
                             1101.11  1263.87  1322.24  1363.36  1451.53
                             1472.36  1517.93  1562.78  1578.31  1610.82
                             1624.77  1669.86  1697.69  1735.38  1766.13
                             1801.26  1865.91  1898.16  2027.10  2038.61
                             2069.40  2114.25  2146.14  2147.72  2160.33
                             2634.51  4361.78  4407.05  4415.62  4454.67
                             4461.99  4473.18  4496.06  4503.11  4529.31
                             5306.01

 Zero-point correction=                           0.157441 (Hartree/Particle)
 Thermal correction to Energy=                    0.166520
 Thermal correction to Enthalpy=                  0.167464
 Thermal correction to Gibbs Free Energy=         0.123704
 Sum of electronic and zero-point Energies=           -423.024556
 Sum of electronic and thermal Energies=              -423.015477
 Sum of electronic and thermal Enthalpies=            -423.014533
 Sum of electronic and thermal Free Energies=         -423.058293

                     E (Thermal)             CV                S
                      KCal/Mol        Cal/Mol-Kelvin    Cal/Mol-Kelvin
 Total                  104.493             34.029             92.100
 Electronic               0.000              0.000              0.000
 Translational            0.889              2.981             40.409
 Rotational               0.889              2.981             28.838
 Vibrational            102.715             28.067             22.853
 Vibration     1          0.601              1.958              3.704
 Vibration     2          0.606              1.941              3.267
 Vibration     3          0.624              1.885              2.489
 Vibration     4          0.633              1.856              2.248
 Vibration     5          0.648              1.807              1.941
 Vibration     6          0.662              1.764              1.734
 Vibration     7          0.689              1.684              1.449
 Vibration     8          0.771              1.456              0.939
 Vibration     9          0.818              1.338              0.766
 Vibration    10          0.831              1.308              0.727
 Vibration    11          0.867              1.223              0.629
 Vibration    12          0.904              1.142              0.546

 Optimization completed.
    -- Stationary point found.
 Normal termination of Gaussian 09 at Mon Jan 27 22:47:57 2020.
