 Gaussian 09, Revision D.01,
 Gaussian 09:  ES64L-G09RevD.01 24-Apr-2013

 -----------------------------
 # b3lyp 6-31G(2df,p) opt Freq
 -----------------------------

 -----
 titel
 -----
 Symbolic Z-matrix:
 Charge =  0 Multiplicity = 1

 SCF Done:  E(RB3LYP) =  -423.155182023     A.U. after   13 cycles
 Optimization completed.
    -- Stationary point found.
 Normal termination of Gaussian 09 at Mon Jan 27 18:19:02 2020.

 ----------------------------------------------------------------------
 #N Geom=AllCheck Guess=TCheck SCRF=Check GenChk RB3LYP/6-31G(2df,p) Fr
 eq
 ----------------------------------------------------------------------

 Structure from the checkpoint file:  "/scratch/puck/g09_153f0f80-ceff-4ca5-89fe-f116494fbd31/Gau-4317.chk"
 -----
 titel
 -----
 Charge =  0 Multiplicity = 1

                         Standard orientation:
 ---------------------------------------------------------------------
 Center     Atomic      Atomic             Coordinates (Angstroms)
 Number     Number       Type             X           Y           Z
 ---------------------------------------------------------------------
      1          6           0        2.316378   -0.708867   -0.250437
      2          6           0        0.832188   -0.550413   -0.097168
      3          6           0       -0.219693   -1.593870   -0.490267
      4          6           0       -1.194222   -0.932957    0.535671
      5          8           0       -2.051220    0.020651   -0.091101
      6          6           0       -1.203260    1.013305   -0.667089
      7          6           0        0.163968    0.811228   -0.007950
      8          8           0        1.033602    1.893132    0.070188
      9          6           0       -0.002379   -0.159854    1.134541
     10          1           0        2.661591   -1.634274    0.224140
     11          1           0        2.596009   -0.755012   -1.309778
     12          1           0        2.849098    0.133374    0.196682
     13          1           0       -0.563580   -1.642189   -1.529379
     14          1           0        0.088881   -2.592050   -0.164097
     15          1           0       -1.805127   -1.583645    1.158795
     16          1           0       -1.168533    0.911222   -1.760420
     17          1           0       -1.601359    2.009739   -0.432438
     18          1           0        0.655426    2.541132    0.675423
     19          1           0        0.270653    0.030016    2.164566
 ---------------------------------------------------------------------

 SCF Done:  E(RB3LYP) =  -423.155182022     A.U. after    1 cycles

 The electronic state is 1-A.
 Alpha  occ. eigenvalues --  -19.15440 -19.13289 -10.24059 -10.23325 -10.22376
 Alpha  occ. eigenvalues --  -10.19984 -10.18256 -10.17998 -10.17457  -1.04772
 Alpha  occ. eigenvalues --   -1.02757  -0.88304  -0.74135  -0.72118  -0.67788
 Alpha  occ. eigenvalues --   -0.60634  -0.58876  -0.53659  -0.51061  -0.47380
 Alpha  occ. eigenvalues --   -0.46921  -0.45006  -0.42151  -0.40732  -0.40417
 Alpha  occ. eigenvalues --   -0.38972  -0.37979  -0.37097  -0.35263  -0.32213
 Alpha  occ. eigenvalues --   -0.29054  -0.26717  -0.25216  -0.23435
 Alpha virt. eigenvalues --    0.06611   0.09405   0.10097   0.12408   0.13520
 Alpha virt. eigenvalues --    0.14460   0.14834   0.15332   0.15787   0.17691
 Alpha virt. eigenvalues --    0.18468   0.19150   0.19712   0.21146   0.22471

 Mulliken charges:
               1
     1  C   -0.501209
     2  C    0.291111
     3  C   -0.304153
     4  C    0.082086
     5  O   -0.265134
     6  C   -0.150556
     7  C    0.327028
     8  O   -0.474738
     9  C   -0.219496
    10  H    0.113375
    11  H    0.120570
    12  H    0.135503
    13  H    0.094810
    14  H    0.100263
    15  H    0.084876
    16  H    0.101525
    17  H    0.091454
    18  H    0.286791
    19  H    0.085894
 Sum of Mulliken charges =   0.00000

 Dipole moment (field-independent basis, Debye):
    X=              0.6705    Y=              0.2123    Z=              0.9829  Tot=              1.2086
 Quadrupole moment (field-independent basis, Debye-Ang):
   XX=            -59.3767   YY=            -48.4540   ZZ=            -50.9404
   XY=             -1.6346   XZ=              0.2635   YZ=              1.7641

  Exact polarizability:  76.448  -2.382  79.551  -0.653   0.155  67.451
 Approx polarizability: 106.465  -1.607 113.911  -2.798  -0.676 105.821

                      1                      2                      3
                      A                      A                      A
 Frequencies --    180.4739               198.8935               223.1540
 Red. masses --      1.1646                 2.2914                 2.5367
 Frc consts  --      0.0223                 0.0534                 0.0744
 IR Inten    --      0.6874                 0.3910                 4.8422

                      4                      5                      6
                      A                      A                      A
 Frequencies --    260.8527               291.8356               353.0209
 Red. masses --      2.8118                 1.2035                 2.2666
 Frc consts  --      0.1127                 0.0604                 0.1664
 IR Inten    --      5.1407                59.1026                22.5320

                      7                      8                      9
                      A                      A                      A
 Frequencies --    386.9432               416.2849               461.2006
 Red. masses --      4.8008                 3.0517                 2.0323
 Frc consts  --      0.4235                 0.3116                 0.2547
 IR Inten    --     11.2675                 1.8856                 0.1855

                     10                     11                     12
                      A                      A                      A
 Frequencies --    594.7747               614.6582               694.2283
 Red. masses --      4.2466                 5.2753                 3.7197
 Frc consts  --      0.8851                 1.1743                 1.0562
 IR Inten    --      2.2581                10.1013                 5.0644

                     13                     14                     15
                      A                      A                      A
 Frequencies --    727.6972               777.6246               849.5972
 Red. masses --      3.1961                 4.0873                 2.4903
 Frc consts  --      0.9972                 1.4562                 1.0591
 IR Inten    --      0.2885                 4.1262                11.2582

                     16                     17                     18
                      A                      A                      A
 Frequencies --    890.3135               907.7433               937.4922
 Red. masses --      1.5933                 1.7953                 1.8458
 Frc consts  --      0.7441                 0.8716                 0.9558
 IR Inten    --     11.5934                 0.2639                 3.6106

                     19                     20                     21
                      A                      A                      A
 Frequencies --    956.6887               963.1794              1008.9619
 Red. masses --      2.5851                 2.8750                 1.6752
 Frc consts  --      1.3940                 1.5715                 1.0048
 IR Inten    --     30.6879                15.8148                 9.3301

                     22                     23                     24
                      A                      A                      A
 Frequencies --   1040.4151              1055.0216              1107.7058
 Red. masses --      2.6733                 1.7309                 2.4800
 Frc consts  --      1.7049                 1.1351                 1.7929
 IR Inten    --     37.4455                 1.4153                24.0450

                     25                     26                     27
                      A                      A                      A
 Frequencies --   1124.9453              1162.2622              1181.7601
 Red. masses --      1.7662                 2.2992                 1.5496
 Frc consts  --      1.3169                 1.8299                 1.2751
 IR Inten    --     17.9293                35.6742                 2.5062

                     28                     29                     30
                      A                      A                      A
 Frequencies --   1203.3291              1213.9943              1224.3735
 Red. masses --      1.5163                 1.3757                 2.6114
 Frc consts  --      1.2936                 1.1945                 2.3065
 IR Inten    --      1.3099                 2.6915                42.5982

                     31                     32                     33
                      A                      A                      A
 Frequencies --   1254.5249              1298.4145              1311.8719
 Red. masses --      1.8098                 1.7858                 1.5456
 Frc consts  --      1.6782                 1.7738                 1.5672
 IR Inten    --     60.9625                 3.9205                44.2767

                     34                     35                     36
                      A                      A                      A
 Frequencies --   1346.9390              1376.8397              1414.9791
 Red. masses --      1.7935                 1.6574                 1.3800
 Frc consts  --      1.9171                 1.8512                 1.6279
 IR Inten    --      5.3677                 8.0102                 1.2355

                     37                     38                     39
                      A                      A                      A
 Frequencies --   1443.4306              1488.3722              1488.8899
 Red. masses --      2.5686                 1.1374                 1.0487
 Frc consts  --      3.1531                 1.4845                 1.3697
 IR Inten    --      2.2567                 1.3234                 4.6510

                     40                     41                     42
                      A                      A                      A
 Frequencies --   1500.0031              1524.1739              3000.6448
 Red. masses --      1.1383                 1.1004                 1.0560
 Frc consts  --      1.5090                 1.5061                 5.6022
 IR Inten    --      4.5696                 1.4577                72.8908

                     43                     44                     45
                      A                      A                      A
 Frequencies --   3026.7972              3032.3279              3037.1326
 Red. masses --      1.0389                 1.0968                 1.0679
 Frc consts  --      5.6075                 5.9420                 5.8037
 IR Inten    --     33.2896                 7.7630                79.9015

                     46                     47                     48
                      A                      A                      A
 Frequencies --   3081.5816              3089.9588              3125.5946
 Red. masses --      1.1003                 1.1071                 1.0978
 Frc consts  --      6.1562                 6.2281                 6.3187
 IR Inten    --     21.0677                26.0154                10.1073

                     49                     50                     51
                      A                      A                      A
 Frequencies --   3133.9192              3198.1010              3788.8076
 Red. masses --      1.0908                 1.0950                 1.0661
 Frc consts  --      6.3121                 6.5985                 9.0166
 IR Inten    --     35.7473                 8.8103                19.4761

 - Thermochemistry -
 -------------------
 Temperature   298.150 Kelvin.  Pressure   1.00000 Atm.
 Atom     1 has atomic number  6 and mass  12.00000

 Molecular mass:   126.06808 amu.
 Principal axes and moments of inertia in atomic units:
                           1         2         3
     Eigenvalues --   703.44020 946.836651348.68597
           X            0.99727  -0.07384   0.00121
           Y            0.07382   0.99723   0.00939
           Z           -0.00190  -0.00928   0.99996
 This molecule is an asymmetric top.
 Rotational symmetry number  1.
 Warning -- assumption of classical behavior for rotation
           may cause significant error
 Rotational temperatures (Kelvin)      0.12313     0.09148     0.06422
 Rotational constants (GHZ):           2.56559     1.90607     1.33815
 Zero-point vibrational energy     418529.9 (Joules/Mol)
                                  100.03104 (Kcal/Mol)
 Warning -- explicit consideration of  11 degrees of freedom as
           vibrations may cause significant error
 Vibrational temperatures:    259.66   286.16   321.07   375.31   419.89
          (Kelvin)            507.92   556.72   598.94   663.56   855.75
                              884.35   998.84  1046.99  1118.83  1222.38
                             1280.96  1306.04  1348.84  1376.46  1385.80
                             1451.67  1496.92  1517.94  1593.74  1618.54
                             1672.23  1700.29  1731.32  1746.66  1761.60
                             1804.98  1868.13  1887.49  1937.94  1980.96
                             2035.84  2076.77  2141.43  2142.18  2158.17
                             2192.94  4317.25  4354.88  4362.84  4369.75
                             4433.70  4445.76  4497.03  4509.01  4601.35
                             5451.24

 Zero-point correction=                           0.159410 (Hartree/Particle)
 Thermal correction to Energy=                    0.167290
 Thermal correction to Enthalpy=                  0.168234
 Thermal correction to Gibbs Free Energy=         0.127698
 Sum of electronic and zero-point Energies=           -422.995772
 Sum of electronic and thermal Energies=              -422.987892
 Sum of electronic and thermal Enthalpies=            -422.986948
 Sum of electronic and thermal Free Energies=         -423.027484

                     E (Thermal)             CV                S
                      KCal/Mol        Cal/Mol-Kelvin    Cal/Mol-Kelvin
 Total                  104.976             31.758             85.315
 Electronic               0.000              0.000              0.000
 Translational            0.889              2.981             40.409
 Rotational               0.889              2.981             28.287
 Vibrational            103.199             25.796             16.620
 Vibration     1          0.629              1.866              2.324
 Vibration     2          0.637              1.841              2.143
 Vibration     3          0.649              1.806              1.933
 Vibration     4          0.669              1.744              1.656
 Vibration     5          0.687              1.689              1.463
 Vibration     6          0.729              1.569              1.153
 Vibration     7          0.755              1.498              1.012
 Vibration     8          0.780              1.435              0.905
 Vibration     9          0.819              1.336              0.763
 Vibration    10          0.952              1.043              0.459
 Vibration    11          0.974              1.001              0.425

 Optimization completed.
    -- Stationary point found.
 Normal termination of Gaussian 09 at Mon Jan 27 19:08:27 2020.
