 Gaussian 09, Revision D.01,
 Gaussian 09:  ES64L-G09RevD.01 24-Apr-2013

 -----------------------------
 # b3lyp 6-31G(2df,p) opt Freq
 -----------------------------

 -----
 titel
 -----
 Symbolic Z-matrix:
 Charge =  0 Multiplicity = 1

 SCF Done:  E(RB3LYP) =  -423.127854278     A.U. after   13 cycles
 SCF Done:  E(RB3LYP) =  -423.127854219     A.U. after    7 cycles
 SCF Done:  E(RB3LYP) =  -423.127854294     A.U. after    7 cycles
 SCF Done:  E(RB3LYP) =  -423.127854293     A.U. after    6 cycles
 Optimization completed.
    -- Stationary point found.
 Normal termination of Gaussian 09 at Tue Jan 28 13:38:00 2020.

 ----------------------------------------------------------------------
 #N Geom=AllCheck Guess=TCheck SCRF=Check GenChk RB3LYP/6-31G(2df,p) Fr
 eq
 ----------------------------------------------------------------------

 Structure from the checkpoint file:  "/scratch/puck/g09_6b1411bd-3f23-4674-a26b-41202c46ca4c/Gau-108880.chk"
 -----
 titel
 -----
 Charge =  0 Multiplicity = 1

                         Standard orientation:
 ---------------------------------------------------------------------
 Center     Atomic      Atomic             Coordinates (Angstroms)
 Number     Number       Type             X           Y           Z
 ---------------------------------------------------------------------
      1          8           0        3.255381   -0.564888   -0.455877
      2          6           0        2.392276    0.098386    0.454731
      3          6           0        0.941828   -0.330995    0.313377
      4          6           0       -0.120789    0.398590    1.178475
      5          6           0       -1.076609    0.413055   -0.064455
      6          8           0       -1.690984    1.645143   -0.391350
      7          6           0        0.164254    0.122531   -0.955563
      8          6           0       -2.048494   -0.675850   -0.037042
      9          6           0       -2.874577   -1.548781    0.010739
     10          1           0        2.979920   -0.325919   -1.346864
     11          1           0        2.764242   -0.154537    1.454143
     12          1           0        2.463721    1.194340    0.349305
     13          1           0        0.873794   -1.415568    0.437699
     14          1           0       -0.476579   -0.089996    2.086898
     15          1           0        0.176410    1.427956    1.401745
     16          1           0       -2.534801    1.691702    0.071304
     17          1           0        0.031999   -0.582876   -1.777040
     18          1           0        0.537654    1.076382   -1.343258
     19          1           0       -3.598871   -2.325140    0.042307
 ---------------------------------------------------------------------

 SCF Done:  E(RB3LYP) =  -423.127854293     A.U. after    1 cycles

 The electronic state is 1-A.
 Alpha  occ. eigenvalues --  -19.14629 -19.13317 -10.26397 -10.22506 -10.19033
 Alpha  occ. eigenvalues --  -10.18857 -10.18744 -10.18653 -10.18331  -1.03188
 Alpha  occ. eigenvalues --   -1.01395  -0.85301  -0.75743  -0.70886  -0.67173
 Alpha  occ. eigenvalues --   -0.63359  -0.57937  -0.53865  -0.51834  -0.50202
 Alpha  occ. eigenvalues --   -0.49164  -0.44711  -0.42424  -0.40933  -0.39965
 Alpha  occ. eigenvalues --   -0.38821  -0.35021  -0.34213  -0.32206  -0.31514
 Alpha  occ. eigenvalues --   -0.28760  -0.27743  -0.26618  -0.25836
 Alpha virt. eigenvalues --    0.02796   0.04300   0.07654   0.09026   0.10655
 Alpha virt. eigenvalues --    0.11569   0.12251   0.13556   0.15082   0.16591
 Alpha virt. eigenvalues --    0.17225   0.17999   0.19348   0.19800   0.22503

 Mulliken charges:
               1
     1  O   -0.420123
     2  C   -0.082733
     3  C    0.029036
     4  C   -0.310766
     5  C    0.255786
     6  O   -0.462350
     7  C   -0.296959
     8  C    0.297364
     9  C   -0.502304
    10  H    0.285262
    11  H    0.110877
    12  H    0.082163
    13  H    0.088673
    14  H    0.107080
    15  H    0.108647
    16  H    0.282926
    17  H    0.113367
    18  H    0.111261
    19  H    0.202793
 Sum of Mulliken charges =   0.00000

 Dipole moment (field-independent basis, Debye):
    X=             -1.5579    Y=              0.0711    Z=              0.4423  Tot=              1.6210
 Quadrupole moment (field-independent basis, Debye-Ang):
   XX=            -55.1818   YY=            -53.4329   ZZ=            -51.1258
   XY=              4.9107   XZ=             -3.3077   YZ=              1.3793

  Exact polarizability:  93.206  10.702  75.253  -0.847   0.432  65.445
 Approx polarizability: 122.123  19.622 120.966  -2.706  -1.594  96.905

                      1                      2                      3
                      A                      A                      A
 Frequencies --     58.7238               101.0806               142.3473
 Red. masses --      4.7938                 3.4868                 2.7857
 Frc consts  --      0.0097                 0.0210                 0.0333
 IR Inten    --      0.4348                 3.1659                 1.1583

                      4                      5                      6
                      A                      A                      A
 Frequencies --    174.2068               228.3972               263.7680
 Red. masses --      3.1207                 2.4649                 1.1709
 Frc consts  --      0.0558                 0.0758                 0.0480
 IR Inten    --      1.1076                 3.2247               116.0457

                      7                      8                      9
                      A                      A                      A
 Frequencies --    304.1909               347.4436               359.4840
 Red. masses --      1.3093                 3.5555                 2.9290
 Frc consts  --      0.0714                 0.2529                 0.2230
 IR Inten    --     67.4233                 9.4165                22.3974

                     10                     11                     12
                      A                      A                      A
 Frequencies --    410.4067               431.0966               522.8446
 Red. masses --      4.2998                 1.9241                 4.3152
 Frc consts  --      0.4267                 0.2107                 0.6950
 IR Inten    --      9.3644                 1.1025                18.8715

                     13                     14                     15
                      A                      A                      A
 Frequencies --    567.7773               619.8595               643.5946
 Red. masses --      4.1939                 1.2107                 5.3368
 Frc consts  --      0.7966                 0.2741                 1.3024
 IR Inten    --      2.3217                44.6254                 2.4728

                     16                     17                     18
                      A                      A                      A
 Frequencies --    670.7328               723.2452               834.8117
 Red. masses --      1.2515                 2.7691                 1.4248
 Frc consts  --      0.3317                 0.8534                 0.5850
 IR Inten    --     34.5161                 4.4114                 1.4256

                     19                     20                     21
                      A                      A                      A
 Frequencies --    852.7375               916.2440               947.3810
 Red. masses --      2.1832                 1.6234                 2.6129
 Frc consts  --      0.9353                 0.8030                 1.3817
 IR Inten    --      2.6844                 7.4799                 5.2343

                     22                     23                     24
                      A                      A                      A
 Frequencies --    996.8713              1023.8162              1043.7366
 Red. masses --      3.4104                 1.9565                 2.5268
 Frc consts  --      1.9968                 1.2083                 1.6218
 IR Inten    --     13.4941                31.5536                88.1793

                     25                     26                     27
                      A                      A                      A
 Frequencies --   1072.4335              1087.3159              1133.9912
 Red. masses --      1.5485                 3.3532                 2.8352
 Frc consts  --      1.0493                 2.3357                 2.1481
 IR Inten    --     28.5483                22.9654                70.3386

                     28                     29                     30
                      A                      A                      A
 Frequencies --   1156.7014              1222.2917              1233.2981
 Red. masses --      1.5974                 1.4193                 1.5914
 Frc consts  --      1.2592                 1.2493                 1.4262
 IR Inten    --     25.2719                 0.9433                 5.6584

                     31                     32                     33
                      A                      A                      A
 Frequencies --   1262.1816              1270.2532              1290.4535
 Red. masses --      1.4023                 1.5316                 1.4682
 Frc consts  --      1.3162                 1.4561                 1.4406
 IR Inten    --      2.5963                34.6368                21.3651

                     34                     35                     36
                      A                      A                      A
 Frequencies --   1349.1058              1371.4299              1391.7937
 Red. masses --      1.4615                 1.5834                 1.2315
 Frc consts  --      1.5672                 1.7546                 1.4055
 IR Inten    --     12.7986                56.0635                 7.9262

                     37                     38                     39
                      A                      A                      A
 Frequencies --   1423.0404              1464.8018              1487.1403
 Red. masses --      1.3405                 1.0888                 1.1248
 Frc consts  --      1.5994                 1.3764                 1.4657
 IR Inten    --     60.2306                 2.7480                 1.4940

                     40                     41                     42
                      A                      A                      A
 Frequencies --   1505.1529              2228.0913              2960.9013
 Red. masses --      1.0933                 5.9371                 1.0707
 Frc consts  --      1.4593                17.3656                 5.5308
 IR Inten    --      1.9943                 1.3827                49.8997

                     43                     44                     45
                      A                      A                      A
 Frequencies --   3051.7132              3057.6569              3061.3074
 Red. masses --      1.0602                 1.0694                 1.0787
 Frc consts  --      5.8172                 5.8908                 5.9563
 IR Inten    --     22.5367                 3.7737                27.9407

                     46                     47                     48
                      A                      A                      A
 Frequencies --   3074.6227              3126.2155              3128.6813
 Red. masses --      1.0877                 1.1062                 1.1063
 Frc consts  --      6.0580                 6.3700                 6.3801
 IR Inten    --     29.0884                17.7988                22.7240

                     49                     50                     51
                      A                      A                      A
 Frequencies --   3499.9203              3809.4645              3813.3678
 Red. masses --      1.1616                 1.0662                 1.0661
 Frc consts  --      8.3833                 9.1159                 9.1338
 IR Inten    --     69.7099                27.1018                12.9116

 - Thermochemistry -
 -------------------
 Temperature   298.150 Kelvin.  Pressure   1.00000 Atm.
 Atom     1 has atomic number  8 and mass  15.99491

 Molecular mass:   126.06808 amu.
 Principal axes and moments of inertia in atomic units:
                           1         2         3
     Eigenvalues --   558.554641981.270752163.27937
           X            0.99991   0.01306  -0.00096
           Y           -0.01303   0.99952   0.02793
           Z            0.00132  -0.02792   0.99961
 This molecule is an asymmetric top.
 Rotational symmetry number  1.
 Warning -- assumption of classical behavior for rotation
           may cause significant error
 Rotational temperatures (Kelvin)      0.15507     0.04372     0.04004
 Rotational constants (GHZ):           3.23109     0.91090     0.83426
 Zero-point vibrational energy     411025.7 (Joules/Mol)
                                   98.23749 (Kcal/Mol)
 Warning -- explicit consideration of  14 degrees of freedom as
           vibrations may cause significant error
 Vibrational temperatures:     84.49   145.43   204.81   250.64   328.61
          (Kelvin)            379.50   437.66   499.89   517.22   590.48
                              620.25   752.26   816.90   891.84   925.99
                              965.03  1040.59  1201.11  1226.90  1318.27
                             1363.07  1434.27  1473.04  1501.70  1542.99
                             1564.40  1631.56  1664.23  1758.60  1774.44
                             1816.00  1827.61  1856.67  1941.06  1973.18
                             2002.48  2047.44  2107.52  2139.66  2165.58
                             3205.72  4260.07  4390.73  4399.28  4404.53
                             4423.69  4497.92  4501.47  5035.60  5480.96
                             5486.58

 Zero-point correction=                           0.156551 (Hartree/Particle)
 Thermal correction to Energy=                    0.166331
 Thermal correction to Enthalpy=                  0.167275
 Thermal correction to Gibbs Free Energy=         0.121818
 Sum of electronic and zero-point Energies=           -422.971303
 Sum of electronic and thermal Energies=              -422.961523
 Sum of electronic and thermal Enthalpies=            -422.960579
 Sum of electronic and thermal Free Energies=         -423.006037

                     E (Thermal)             CV                S
                      KCal/Mol        Cal/Mol-Kelvin    Cal/Mol-Kelvin
 Total                  104.374             36.537             95.674
 Electronic               0.000              0.000              0.000
 Translational            0.889              2.981             40.409
 Rotational               0.889              2.981             29.261
 Vibrational            102.597             30.576             26.004
 Vibration     1          0.596              1.974              4.500
 Vibration     2          0.604              1.948              3.433
 Vibration     3          0.616              1.911              2.772
 Vibration     4          0.627              1.874              2.390
 Vibration     5          0.651              1.798              1.892
 Vibration     6          0.670              1.739              1.637
 Vibration     7          0.695              1.666              1.394
 Vibration     8          0.725              1.580              1.178
 Vibration     9          0.734              1.556              1.124
 Vibration    10          0.775              1.448              0.925
 Vibration    11          0.792              1.403              0.855
 Vibration    12          0.878              1.199              0.603
 Vibration    13          0.924              1.101              0.509
 Vibration    14          0.980              0.990              0.417

 Optimization completed.
    -- Stationary point found.
 Normal termination of Gaussian 09 at Tue Jan 28 14:17:22 2020.
