 Gaussian 09, Revision D.01,
 Gaussian 09:  ES64L-G09RevD.01 24-Apr-2013

 -----------------------------
 # b3lyp 6-31G(2df,p) opt Freq
 -----------------------------

 -----
 titel
 -----
 Symbolic Z-matrix:
 Charge =  0 Multiplicity = 1

 SCF Done:  E(RB3LYP) =  -423.122144478     A.U. after   14 cycles
 Optimization completed.
    -- Stationary point found.
 Normal termination of Gaussian 09 at Tue Jan 28 10:03:49 2020.

 ----------------------------------------------------------------------
 #N Geom=AllCheck Guess=TCheck SCRF=Check GenChk RB3LYP/6-31G(2df,p) Fr
 eq
 ----------------------------------------------------------------------

 Structure from the checkpoint file:  "/scratch/puck/g09_abc9a6a1-683c-49b5-a9a5-663bf93110db/Gau-19430.chk"
 -----
 titel
 -----
 Charge =  0 Multiplicity = 1

                         Standard orientation:
 ---------------------------------------------------------------------
 Center     Atomic      Atomic             Coordinates (Angstroms)
 Number     Number       Type             X           Y           Z
 ---------------------------------------------------------------------
      1          6           0        2.604099   -1.027371   -0.106773
      2          6           0        1.324708   -0.270238   -0.009635
      3          8           0        0.108364   -0.900150   -0.434903
      4          6           0       -0.599473    0.199291    0.234120
      5          6           0       -1.967890   -0.213452    0.688659
      6          8           0       -2.754931   -0.625130   -0.415378
      7          6           0       -0.300361    1.406537   -0.695547
      8          6           0        1.140868    1.246542   -0.214870
      9          6           0        0.691803    0.543322    1.068557
     10          1           0        2.837766   -1.260870   -1.151010
     11          1           0        3.426602   -0.432217    0.300983
     12          1           0        2.547221   -1.967088    0.451426
     13          1           0       -1.876575   -1.010241    1.443471
     14          1           0       -2.483872    0.633826    1.152483
     15          1           0       -2.237855   -1.289950   -0.885732
     16          1           0       -0.531672    1.271506   -1.755700
     17          1           0       -0.751298    2.327249   -0.315497
     18          1           0        1.980001    1.918971   -0.342900
     19          1           0        0.899692    0.703271    2.117657
 ---------------------------------------------------------------------

 SCF Done:  E(RB3LYP) =  -423.122144478     A.U. after    1 cycles

 The electronic state is 1-A.
 Alpha  occ. eigenvalues --  -19.13474 -19.13353 -10.24510 -10.24390 -10.22857
 Alpha  occ. eigenvalues --  -10.19524 -10.19234 -10.18763 -10.18451  -1.06130
 Alpha  occ. eigenvalues --   -1.01378  -0.85613  -0.76911  -0.71443  -0.68517
 Alpha  occ. eigenvalues --   -0.61151  -0.55412  -0.54006  -0.50676  -0.48596
 Alpha  occ. eigenvalues --   -0.47008  -0.44366  -0.42908  -0.42279  -0.40955
 Alpha  occ. eigenvalues --   -0.40143  -0.37812  -0.35533  -0.34026  -0.32597
 Alpha  occ. eigenvalues --   -0.28863  -0.27162  -0.26044  -0.23070
 Alpha virt. eigenvalues --    0.06751   0.09554   0.10859   0.11997   0.12255
 Alpha virt. eigenvalues --    0.13140   0.14891   0.15295   0.15517   0.16095
 Alpha virt. eigenvalues --    0.17478   0.17935   0.18673   0.19431   0.21187

 Mulliken charges:
               1
     1  C   -0.505951
     2  C    0.488005
     3  O   -0.379224
     4  C    0.413624
     5  C   -0.187694
     6  O   -0.417087
     7  C   -0.262691
     8  C   -0.161922
     9  C   -0.278650
    10  H    0.133850
    11  H    0.127337
    12  H    0.131020
    13  H    0.095735
    14  H    0.111506
    15  H    0.298791
    16  H    0.103019
    17  H    0.102764
    18  H    0.089634
    19  H    0.097934
 Sum of Mulliken charges =   0.00000

 Dipole moment (field-independent basis, Debye):
    X=              2.0387    Y=              0.6323    Z=              1.0868  Tot=              2.3953
 Quadrupole moment (field-independent basis, Debye-Ang):
   XX=            -55.7514   YY=            -52.0079   ZZ=            -51.5552
   XY=             -0.2685   XZ=             -1.1692   YZ=              0.6304

  Exact polarizability:  85.392  -2.887  72.105  -0.599  -0.490  67.835
 Approx polarizability: 111.862  -1.859 109.169  -0.112   2.431 106.228

                      1                      2                      3
                      A                      A                      A
 Frequencies --     79.6803               148.4974               203.9647
 Red. masses --      3.9527                 3.8794                 1.1119
 Frc consts  --      0.0148                 0.0504                 0.0273
 IR Inten    --      3.2874                 0.5803                 0.1343

                      4                      5                      6
                      A                      A                      A
 Frequencies --    216.4830               277.2271               340.6002
 Red. masses --      2.1693                 2.4277                 1.9748
 Frc consts  --      0.0599                 0.1099                 0.1350
 IR Inten    --      0.3733                 3.3071                24.1188

                      7                      8                      9
                      A                      A                      A
 Frequencies --    369.4880               416.7767               478.0181
 Red. masses --      2.9971                 1.3429                 2.2167
 Frc consts  --      0.2411                 0.1374                 0.2984
 IR Inten    --      1.2625               108.5315                 1.7567

                     10                     11                     12
                      A                      A                      A
 Frequencies --    549.8222               614.5943               690.0783
 Red. masses --      4.1815                 3.5544                 3.7098
 Frc consts  --      0.7448                 0.7910                 1.0409
 IR Inten    --      3.6423                 1.3394                 9.2483

                     13                     14                     15
                      A                      A                      A
 Frequencies --    763.7551               782.6941               825.7047
 Red. masses --      3.4790                 2.9448                 2.0019
 Frc consts  --      1.1957                 1.0629                 0.8042
 IR Inten    --      5.5587                17.8153                 9.8964

                     16                     17                     18
                      A                      A                      A
 Frequencies --    857.4956               886.3292               906.1118
 Red. masses --      2.5073                 1.8064                 1.9392
 Frc consts  --      1.0862                 0.8361                 0.9381
 IR Inten    --     38.1335                 4.7043                11.7923

                     19                     20                     21
                      A                      A                      A
 Frequencies --    937.7466               964.1056               966.2704
 Red. masses --      1.9832                 1.7186                 1.7206
 Frc consts  --      1.0275                 0.9412                 0.9465
 IR Inten    --     16.3126                 2.1166                 8.6493

                     22                     23                     24
                      A                      A                      A
 Frequencies --   1035.7251              1059.8967              1070.2199
 Red. masses --      2.5815                 2.4952                 2.4449
 Frc consts  --      1.6316                 1.6515                 1.6499
 IR Inten    --     50.8767                51.2185                16.1230

                     25                     26                     27
                      A                      A                      A
 Frequencies --   1083.5179              1100.4347              1115.3734
 Red. masses --      2.4627                 1.7633                 1.7776
 Frc consts  --      1.7035                 1.2580                 1.3030
 IR Inten    --     11.7869                10.9899                 8.7585

                     28                     29                     30
                      A                      A                      A
 Frequencies --   1149.7707              1196.7774              1224.6787
 Red. masses --      1.6368                 1.5663                 1.7946
 Frc consts  --      1.2749                 1.3218                 1.5859
 IR Inten    --      2.8710                 2.0229                10.9940

                     31                     32                     33
                      A                      A                      A
 Frequencies --   1233.1892              1271.2607              1339.6693
 Red. masses --      1.7966                 1.9673                 2.4327
 Frc consts  --      1.6097                 1.8732                 2.5724
 IR Inten    --      9.7941                35.2445                17.5564

                     34                     35                     36
                      A                      A                      A
 Frequencies --   1374.2436              1401.6239              1436.3827
 Red. masses --      1.3766                 1.2931                 1.4954
 Frc consts  --      1.5317                 1.4968                 1.8178
 IR Inten    --     12.4994                 8.9111                39.4491

                     37                     38                     39
                      A                      A                      A
 Frequencies --   1462.0806              1474.5280              1488.8782
 Red. masses --      3.3130                 1.0848                 1.1477
 Frc consts  --      4.1727                 1.3897                 1.4990
 IR Inten    --     16.7836                 3.6349                 0.8792

                     40                     41                     42
                      A                      A                      A
 Frequencies --   1495.4276              1502.1474              2984.3520
 Red. masses --      1.0905                 1.1078                 1.0692
 Frc consts  --      1.4368                 1.4728                 5.6107
 IR Inten    --      0.8285                 5.3805                51.5541

                     43                     44                     45
                      A                      A                      A
 Frequencies --   3035.7155              3054.7585              3076.0665
 Red. masses --      1.0352                 1.0560                 1.0931
 Frc consts  --      5.6208                 5.8062                 6.0937
 IR Inten    --     25.8962                35.1347                23.1505

                     46                     47                     48
                      A                      A                      A
 Frequencies --   3101.5619              3114.7632              3115.2769
 Red. masses --      1.1014                 1.1028                 1.1069
 Frc consts  --      6.2423                 6.3039                 6.3290
 IR Inten    --     15.9637                 5.3786                31.2081

                     49                     50                     51
                      A                      A                      A
 Frequencies --   3193.1993              3208.0410              3794.9334
 Red. masses --      1.0908                 1.0997                 1.0658
 Frc consts  --      6.5529                 6.6681                 9.0436
 IR Inten    --     15.2264                 8.3359                25.4009

 - Thermochemistry -
 -------------------
 Temperature   298.150 Kelvin.  Pressure   1.00000 Atm.
 Atom     1 has atomic number  6 and mass  12.00000

 Molecular mass:   126.06808 amu.
 Principal axes and moments of inertia in atomic units:
                           1         2         3
     Eigenvalues --   520.368011393.263181585.19184
           X            0.99978  -0.01977  -0.00709
           Y            0.01960   0.99955  -0.02291
           Z            0.00754   0.02276   0.99971
 This molecule is an asymmetric top.
 Rotational symmetry number  1.
 Warning -- assumption of classical behavior for rotation
           may cause significant error
 Rotational temperatures (Kelvin)      0.16645     0.06217     0.05464
 Rotational constants (GHZ):           3.46820     1.29533     1.13850
 Zero-point vibrational energy     415522.5 (Joules/Mol)
                                   99.31226 (Kcal/Mol)
 Warning -- explicit consideration of  11 degrees of freedom as
           vibrations may cause significant error
 Vibrational temperatures:    114.64   213.65   293.46   311.47   398.87
          (Kelvin)            490.05   531.61   599.65   687.76   791.07
                              884.26   992.87  1098.87  1126.12  1188.00
                             1233.74  1275.23  1303.69  1349.21  1387.13
                             1390.25  1490.18  1524.95  1539.81  1558.94
                             1583.28  1604.77  1654.26  1721.89  1762.04
                             1774.28  1829.06  1927.48  1977.23  2016.62
                             2066.63  2103.61  2121.51  2142.16  2151.58
                             2161.25  4293.81  4367.71  4395.11  4425.77
                             4462.45  4481.44  4482.18  4594.30  4615.65
                             5460.06

 Zero-point correction=                           0.158264 (Hartree/Particle)
 Thermal correction to Energy=                    0.166612
 Thermal correction to Enthalpy=                  0.167556
 Thermal correction to Gibbs Free Energy=         0.125485
 Sum of electronic and zero-point Energies=           -422.963880
 Sum of electronic and thermal Energies=              -422.955533
 Sum of electronic and thermal Enthalpies=            -422.954589
 Sum of electronic and thermal Free Energies=         -422.996659

                     E (Thermal)             CV                S
                      KCal/Mol        Cal/Mol-Kelvin    Cal/Mol-Kelvin
 Total                  104.550             32.530             88.545
 Electronic               0.000              0.000              0.000
 Translational            0.889              2.981             40.409
 Rotational               0.889              2.981             28.532
 Vibrational            102.773             26.569             19.605
 Vibration     1          0.600              1.963              3.899
 Vibration     2          0.618              1.904              2.691
 Vibration     3          0.640              1.834              2.097
 Vibration     4          0.645              1.816              1.988
 Vibration     5          0.678              1.716              1.551
 Vibration     6          0.720              1.594              1.209
 Vibration     7          0.742              1.535              1.082
 Vibration     8          0.780              1.434              0.903
 Vibration     9          0.835              1.299              0.715
 Vibration    10          0.905              1.140              0.545
 Vibration    11          0.974              1.001              0.425

 Optimization completed.
    -- Stationary point found.
 Normal termination of Gaussian 09 at Tue Jan 28 10:46:44 2020.
