 Gaussian 09, Revision D.01,
 Gaussian 09:  ES64L-G09RevD.01 24-Apr-2013

 -----------------------------
 # b3lyp 6-31G(2df,p) opt Freq
 -----------------------------

 -----
 titel
 -----
 Symbolic Z-matrix:
 Charge =  0 Multiplicity = 1

 SCF Done:  E(RB3LYP) =  -423.179007934     A.U. after   14 cycles
 Optimization completed.
    -- Stationary point found.
 Normal termination of Gaussian 09 at Tue Jan 28 00:33:02 2020.

 ----------------------------------------------------------------------
 #N Geom=AllCheck Guess=TCheck SCRF=Check GenChk RB3LYP/6-31G(2df,p) Fr
 eq
 ----------------------------------------------------------------------

 Structure from the checkpoint file:  "/scratch/puck/g09_247d4dfc-13f9-4238-8863-8a3211538c3d/Gau-80665.chk"
 -----
 titel
 -----
 Charge =  0 Multiplicity = 1

                         Standard orientation:
 ---------------------------------------------------------------------
 Center     Atomic      Atomic             Coordinates (Angstroms)
 Number     Number       Type             X           Y           Z
 ---------------------------------------------------------------------
      1          8           0       -0.170258    2.064326   -0.021808
      2          6           0       -0.672218    0.861345    0.516011
      3          6           0       -2.014077    0.409901   -0.020065
      4          6           0       -2.033959   -0.899074   -0.263120
      5          6           0       -0.705861   -1.551801    0.047244
      6          6           0        0.247587   -0.356356    0.195555
      7          6           0        1.577587   -0.487492    0.964912
      8          6           0        2.241996   -0.095455   -0.365691
      9          8           0        0.966098   -0.085471   -1.049924
     10          1           0        0.196108    1.811736   -0.882427
     11          1           0       -0.725169    1.012666    1.603866
     12          1           0       -2.839959    1.100810   -0.142408
     13          1           0       -2.890719   -1.462910   -0.615469
     14          1           0       -0.750886   -2.129675    0.981472
     15          1           0       -0.354641   -2.233220   -0.734970
     16          1           0        1.709713    0.216571    1.788176
     17          1           0        1.803538   -1.498010    1.310582
     18          1           0        2.713512    0.893362   -0.376871
     19          1           0        2.925455   -0.828576   -0.807169
 ---------------------------------------------------------------------

 SCF Done:  E(RB3LYP) =  -423.179007934     A.U. after    1 cycles

 The electronic state is 1-A.
 Alpha  occ. eigenvalues --  -19.14075 -19.12437 -10.24043 -10.23447 -10.22723
 Alpha  occ. eigenvalues --  -10.19079 -10.18733 -10.18466 -10.17528  -1.04727
 Alpha  occ. eigenvalues --   -1.00436  -0.83321  -0.74860  -0.70619  -0.69080
 Alpha  occ. eigenvalues --   -0.61916  -0.54942  -0.54532  -0.50853  -0.48511
 Alpha  occ. eigenvalues --   -0.47483  -0.45008  -0.43380  -0.41974  -0.39907
 Alpha  occ. eigenvalues --   -0.39024  -0.38179  -0.35953  -0.32737  -0.31821
 Alpha  occ. eigenvalues --   -0.30988  -0.26969  -0.25211  -0.24604
 Alpha virt. eigenvalues --    0.01593   0.07218   0.09848   0.10306   0.11585
 Alpha virt. eigenvalues --    0.12975   0.14306   0.16039   0.16380   0.16944
 Alpha virt. eigenvalues --    0.17443   0.17885   0.20451   0.21114   0.22605

 Mulliken charges:
               1
     1  O   -0.441761
     2  C    0.049284
     3  C   -0.110616
     4  C   -0.068304
     5  C   -0.323649
     6  C    0.405605
     7  C   -0.353802
     8  C   -0.070930
     9  O   -0.331167
    10  H    0.285526
    11  H    0.088439
    12  H    0.100758
    13  H    0.096640
    14  H    0.109281
    15  H    0.117051
    16  H    0.118510
    17  H    0.109479
    18  H    0.111662
    19  H    0.107994
 Sum of Mulliken charges =   0.00000

 Dipole moment (field-independent basis, Debye):
    X=              0.6349    Y=             -1.8809    Z=              0.8658  Tot=              2.1657
 Quadrupole moment (field-independent basis, Debye-Ang):
   XX=            -48.5935   YY=            -55.6489   ZZ=            -53.6068
   XY=              0.5454   XZ=              0.7283   YZ=             -1.3058

  Exact polarizability:  85.097   0.557  80.644   1.126   1.741  60.432
 Approx polarizability: 108.406   0.843 127.987   0.440   4.493  95.966

                      1                      2                      3
                      A                      A                      A
 Frequencies --     66.1546               108.0577               227.6194
 Red. masses --      2.3704                 3.1808                 2.7327
 Frc consts  --      0.0061                 0.0219                 0.0834
 IR Inten    --      0.7292                 3.8232                 3.2052

                      4                      5                      6
                      A                      A                      A
 Frequencies --    271.0216               304.9801               391.4634
 Red. masses --      3.3580                 4.0199                 2.3352
 Frc consts  --      0.1453                 0.2203                 0.2108
 IR Inten    --      1.4886                13.4182                 7.0677

                      7                      8                      9
                      A                      A                      A
 Frequencies --    435.6910               491.3869               522.7657
 Red. masses --      3.2717                 2.3460                 1.5145
 Frc consts  --      0.3659                 0.3338                 0.2439
 IR Inten    --      6.2537                13.3206                88.8522

                     10                     11                     12
                      A                      A                      A
 Frequencies --    584.5004               694.6803               755.4803
 Red. masses --      3.2600                 1.8611                 3.0272
 Frc consts  --      0.6562                 0.5292                 1.0180
 IR Inten    --      5.2657                 6.9228                 5.1923

                     13                     14                     15
                      A                      A                      A
 Frequencies --    776.1533               809.3756               860.5599
 Red. masses --      1.3814                 2.1586                 4.4509
 Frc consts  --      0.4903                 0.8332                 1.9420
 IR Inten    --      3.6920                31.3260                30.3856

                     16                     17                     18
                      A                      A                      A
 Frequencies --    874.9688               923.7958               962.7819
 Red. masses --      2.1330                 1.9413                 2.1749
 Frc consts  --      0.9621                 0.9761                 1.1878
 IR Inten    --      6.7031                 8.3652                 2.6484

                     19                     20                     21
                      A                      A                      A
 Frequencies --    978.0646               983.5924              1007.4442
 Red. masses --      1.2846                 2.7280                 4.1077
 Frc consts  --      0.7240                 1.5550                 2.4563
 IR Inten    --      0.4709                 4.0163                82.8759

                     22                     23                     24
                      A                      A                      A
 Frequencies --   1022.0307              1060.9587              1095.8220
 Red. masses --      3.3788                 2.2053                 1.6713
 Frc consts  --      2.0794                 1.4625                 1.1824
 IR Inten    --     38.8187                11.1696                31.2522

                     25                     26                     27
                      A                      A                      A
 Frequencies --   1140.7481              1152.4207              1173.2769
 Red. masses --      2.0550                 1.6462                 1.4334
 Frc consts  --      1.5756                 1.2881                 1.1625
 IR Inten    --     67.1005                 1.4522                 1.8136

                     28                     29                     30
                      A                      A                      A
 Frequencies --   1187.8056              1209.6689              1240.2636
 Red. masses --      1.6747                 1.3529                 1.5886
 Frc consts  --      1.3921                 1.1664                 1.4398
 IR Inten    --      5.2958                 3.4749                 1.9596

                     31                     32                     33
                      A                      A                      A
 Frequencies --   1265.8746              1269.8008              1297.8865
 Red. masses --      1.5117                 1.5711                 1.3257
 Frc consts  --      1.4272                 1.4925                 1.3157
 IR Inten    --     12.3264                 7.6264                 8.0635

                     34                     35                     36
                      A                      A                      A
 Frequencies --   1336.2146              1358.6633              1367.1009
 Red. masses --      1.7539                 1.5687                 1.7429
 Frc consts  --      1.8450                 1.7061                 1.9192
 IR Inten    --      5.9512                 3.4804                 2.5001

                     37                     38                     39
                      A                      A                      A
 Frequencies --   1444.8447              1468.2869              1483.8997
 Red. masses --      1.2120                 1.0990                 1.1064
 Frc consts  --      1.4907                 1.3960                 1.4354
 IR Inten    --     72.9534                 9.2212                 3.9423

                     40                     41                     42
                      A                      A                      A
 Frequencies --   1523.5709              1681.9121              3002.4070
 Red. masses --      1.1119                 6.3656                 1.0827
 Frc consts  --      1.5207                10.6096                 5.7507
 IR Inten    --      1.2104                 3.1618                30.7798

                     43                     44                     45
                      A                      A                      A
 Frequencies --   3009.4285              3031.2260              3068.5433
 Red. masses --      1.0678                 1.0551                 1.0937
 Frc consts  --      5.6975                 5.7118                 6.0677
 IR Inten    --     28.6286                76.8736                12.6070

                     46                     47                     48
                      A                      A                      A
 Frequencies --   3074.7415              3077.6692              3132.1585
 Red. masses --      1.0862                 1.0835                 1.1089
 Frc consts  --      6.0506                 6.0468                 6.4094
 IR Inten    --     22.8033                29.0600                18.1613

                     49                     50                     51
                      A                      A                      A
 Frequencies --   3185.3286              3213.0690              3720.8336
 Red. masses --      1.0856                 1.1039                 1.0644
 Frc consts  --      6.4899                 6.7148                 8.6824
 IR Inten    --      8.5303                18.5410                46.4869

 - Thermochemistry -
 -------------------
 Temperature   298.150 Kelvin.  Pressure   1.00000 Atm.
 Atom     1 has atomic number  8 and mass  15.99491

 Molecular mass:   126.06808 amu.
 Principal axes and moments of inertia in atomic units:
                           1         2         3
     Eigenvalues --   675.788691078.591031426.48954
           X            0.99991   0.00670   0.01145
           Y           -0.00658   0.99993  -0.00985
           Z           -0.01151   0.00977   0.99989
 This molecule is an asymmetric top.
 Rotational symmetry number  1.
 Warning -- assumption of classical behavior for rotation
           may cause significant error
 Rotational temperatures (Kelvin)      0.12817     0.08030     0.06072
 Rotational constants (GHZ):           2.67057     1.67324     1.26516
 Zero-point vibrational energy     420648.8 (Joules/Mol)
                                  100.53748 (Kcal/Mol)
 Warning -- explicit consideration of  10 degrees of freedom as
           vibrations may cause significant error
 Vibrational temperatures:     95.18   155.47   327.49   389.94   438.80
          (Kelvin)            563.23   626.86   707.00   752.14   840.96
                              999.49  1086.97  1116.71  1164.51  1238.15
                             1258.88  1329.13  1385.23  1407.22  1415.17
                             1449.49  1470.47  1526.48  1576.64  1641.28
                             1658.07  1688.08  1708.99  1740.44  1784.46
                             1821.31  1826.96  1867.37  1922.51  1954.81
                             1966.95  2078.81  2112.53  2135.00  2192.08
                             2419.89  4319.79  4329.89  4361.25  4414.94
                             4423.86  4428.07  4506.47  4582.97  4622.88
                             5353.44

 Zero-point correction=                           0.160217 (Hartree/Particle)
 Thermal correction to Energy=                    0.168143
 Thermal correction to Enthalpy=                  0.169087
 Thermal correction to Gibbs Free Energy=         0.127553
 Sum of electronic and zero-point Energies=           -423.018791
 Sum of electronic and thermal Energies=              -423.010865
 Sum of electronic and thermal Enthalpies=            -423.009921
 Sum of electronic and thermal Free Energies=         -423.051455

                     E (Thermal)             CV                S
                      KCal/Mol        Cal/Mol-Kelvin    Cal/Mol-Kelvin
 Total                  105.511             30.982             87.416
 Electronic               0.000              0.000              0.000
 Translational            0.889              2.981             40.409
 Rotational               0.889              2.981             28.432
 Vibrational            103.734             25.020             18.575
 Vibration     1          0.598              1.970              4.265
 Vibration     2          0.606              1.943              3.304
 Vibration     3          0.651              1.799              1.898
 Vibration     4          0.675              1.727              1.590
 Vibration     5          0.696              1.664              1.389
 Vibration     6          0.759              1.488              0.995
 Vibration     7          0.796              1.392              0.840
 Vibration     8          0.847              1.269              0.680
 Vibration     9          0.878              1.200              0.604
 Vibration    10          0.941              1.065              0.477

 Normal termination of Gaussian 09 at Tue Jan 28 01:16:56 2020.
