 Gaussian 09, Revision D.01,
 Gaussian 09:  ES64L-G09RevD.01 24-Apr-2013

 -----------------------------
 # b3lyp 6-31G(2df,p) opt Freq
 -----------------------------

 -----
 titel
 -----
 Symbolic Z-matrix:
 Charge =  0 Multiplicity = 1

 SCF Done:  E(RB3LYP) =  -423.166258007     A.U. after   13 cycles
 Optimization completed.
    -- Stationary point found.
 Normal termination of Gaussian 09 at Mon Jan 27 11:30:03 2020.

 ----------------------------------------------------------------------
 #N Geom=AllCheck Guess=TCheck SCRF=Check GenChk RB3LYP/6-31G(2df,p) Fr
 eq
 ----------------------------------------------------------------------

 Structure from the checkpoint file:  "/scratch/puck/g09_a45fb7c4-6aa7-40d5-a401-51e285eed000/Gau-61595.chk"
 -----
 titel
 -----
 Charge =  0 Multiplicity = 1

                         Standard orientation:
 ---------------------------------------------------------------------
 Center     Atomic      Atomic             Coordinates (Angstroms)
 Number     Number       Type             X           Y           Z
 ---------------------------------------------------------------------
      1          6           0        2.066594    0.754969    0.082788
      2          6           0        2.066589   -0.754994   -0.082768
      3          6           0        0.782368   -0.000016    0.000053
      4          6           0       -0.278294    0.109600   -1.082665
      5          6           0       -1.092775    1.293648   -0.542282
      6          8           0       -1.063885    1.077374    0.887603
      7          6           0       -0.278373   -0.109604    1.082686
      8          6           0       -1.092854   -1.293628    0.542242
      9          8           0       -1.063860   -1.077355   -0.887639
     10          1           0        2.361499    1.166322    1.042646
     11          1           0        2.366119    1.358526   -0.768541
     12          1           0        2.361407   -1.166385   -1.042635
     13          1           0        2.366194   -1.358519    0.768557
     14          1           0        0.034332    0.169656   -2.124946
     15          1           0       -0.644371    2.266841   -0.780668
     16          1           0       -2.126153    1.268741   -0.903496
     17          1           0        0.034159   -0.169673    2.124994
     18          1           0       -0.644496   -2.266834    0.780660
     19          1           0       -2.126256   -1.268686    0.903387
 ---------------------------------------------------------------------

 SCF Done:  E(RB3LYP) =  -423.166258007     A.U. after    1 cycles

 The electronic state is 1-A.
 Alpha  occ. eigenvalues --  -19.13521 -19.13521 -10.23601 -10.23600 -10.22279
 Alpha  occ. eigenvalues --  -10.22279 -10.19815 -10.19346 -10.19323  -1.05769
 Alpha  occ. eigenvalues --   -1.00259  -0.86590  -0.76233  -0.72453  -0.65965
 Alpha  occ. eigenvalues --   -0.61001  -0.56977  -0.56329  -0.52238  -0.48950
 Alpha  occ. eigenvalues --   -0.48614  -0.47325  -0.41838  -0.40812  -0.40089
 Alpha  occ. eigenvalues --   -0.39142  -0.37300  -0.37263  -0.33864  -0.32047
 Alpha  occ. eigenvalues --   -0.29842  -0.29658  -0.24916  -0.23893
 Alpha virt. eigenvalues --    0.08986   0.09362   0.10688   0.11326   0.12416
 Alpha virt. eigenvalues --    0.12424   0.14706   0.15365   0.15858   0.17163
 Alpha virt. eigenvalues --    0.18229   0.18358   0.18872   0.21120   0.22086

 Mulliken charges:
               1
     1  C   -0.355212
     2  C   -0.355215
     3  C    0.439889
     4  C   -0.021891
     5  C   -0.078875
     6  O   -0.286479
     7  C   -0.021923
     8  C   -0.078874
     9  O   -0.286481
    10  H    0.119395
    11  H    0.115273
    12  H    0.119396
    13  H    0.115273
    14  H    0.082538
    15  H    0.098017
    16  H    0.107306
    17  H    0.082539
    18  H    0.098017
    19  H    0.107306
 Sum of Mulliken charges =   0.00000

 Dipole moment (field-independent basis, Debye):
    X=              1.5404    Y=              0.0000    Z=              0.0000  Tot=              1.5404
 Quadrupole moment (field-independent basis, Debye-Ang):
   XX=            -54.2259   YY=            -54.2838   ZZ=            -51.3581
   XY=              0.0001   XZ=             -0.0001   YZ=             -5.1524

  Exact polarizability:  79.942   0.000  74.011   0.000  -5.376  68.992
 Approx polarizability: 108.144   0.000 108.952   0.000  -4.198 106.016

                      1                      2                      3
                      A                      A                      A
 Frequencies --    156.8659               208.4910               248.8562
 Red. masses --      3.5998                 2.6615                 2.2310
 Frc consts  --      0.0522                 0.0682                 0.0814
 IR Inten    --      0.1037                 6.2379                 1.5806

                      4                      5                      6
                      A                      A                      A
 Frequencies --    253.3796               386.8521               394.9856
 Red. masses --      2.7083                 3.7100                 2.2986
 Frc consts  --      0.1024                 0.3271                 0.2113
 IR Inten    --      0.4181                 4.3217                 4.1763

                      7                      8                      9
                      A                      A                      A
 Frequencies --    537.8300               587.9470               654.2013
 Red. masses --      3.7949                 4.0587                 5.1412
 Frc consts  --      0.6468                 0.8266                 1.2964
 IR Inten    --      0.2999                 1.2355                 5.5394

                     10                     11                     12
                      A                      A                      A
 Frequencies --    759.7917               784.0641               854.6275
 Red. masses --      2.0844                 1.2548                 2.8240
 Frc consts  --      0.7090                 0.4545                 1.2153
 IR Inten    --      3.7144                 0.7802                17.5197

                     13                     14                     15
                      A                      A                      A
 Frequencies --    863.4721               901.6655               912.5358
 Red. masses --      2.7209                 3.0856                 3.2584
 Frc consts  --      1.1952                 1.4780                 1.5987
 IR Inten    --     19.2653                34.6991                 0.6177

                     16                     17                     18
                      A                      A                      A
 Frequencies --    926.2893               965.0824               977.1378
 Red. masses --      1.8109                 1.5369                 2.1408
 Frc consts  --      0.9155                 0.8434                 1.2043
 IR Inten    --      8.2690                 4.1944                14.6078

                     19                     20                     21
                      A                      A                      A
 Frequencies --    986.6660              1011.2740              1017.9288
 Red. masses --      2.4590                 6.7133                 1.9956
 Frc consts  --      1.4104                 4.0450                 1.2183
 IR Inten    --     12.0144                41.2373                 0.2925

                     22                     23                     24
                      A                      A                      A
 Frequencies --   1047.2493              1053.0558              1082.6396
 Red. masses --      3.2615                 1.4483                 1.4646
 Frc consts  --      2.1075                 0.9463                 1.0115
 IR Inten    --     86.1208                 0.4671                 2.2410

                     25                     26                     27
                      A                      A                      A
 Frequencies --   1087.1430              1090.9025              1179.5394
 Red. masses --      2.7410                 2.8707                 1.2584
 Frc consts  --      1.9087                 2.0128                 1.0315
 IR Inten    --     35.1315                15.6869                 1.0970

                     28                     29                     30
                      A                      A                      A
 Frequencies --   1186.5523              1189.6504              1237.8432
 Red. masses --      1.2152                 1.2752                 1.4231
 Frc consts  --      1.0080                 1.0633                 1.2848
 IR Inten    --      3.8049                 3.0397                 1.1691

                     31                     32                     33
                      A                      A                      A
 Frequencies --   1240.0675              1266.7744              1290.0138
 Red. masses --      1.5314                 2.2842                 1.2284
 Frc consts  --      1.3875                 2.1597                 1.2044
 IR Inten    --      2.7827                 2.5565                 1.4027

                     34                     35                     36
                      A                      A                      A
 Frequencies --   1307.7696              1361.3799              1370.8748
 Red. masses --      1.5026                 1.5721                 1.3595
 Frc consts  --      1.5141                 1.7166                 1.5053
 IR Inten    --      6.9729                 0.5178                 0.4464

                     37                     38                     39
                      A                      A                      A
 Frequencies --   1428.3888              1468.5927              1507.6612
 Red. masses --      1.9004                 1.0867                 1.0955
 Frc consts  --      2.2845                 1.3810                 1.4671
 IR Inten    --      6.2133                 1.4298                 1.0292

                     40                     41                     42
                      A                      A                      A
 Frequencies --   1509.6292              1518.2428              3015.1401
 Red. masses --      1.1818                 1.5854                 1.0612
 Frc consts  --      1.5868                 2.1531                 5.6840
 IR Inten    --      0.5868                 0.5102               119.8735

                     43                     44                     45
                      A                      A                      A
 Frequencies --   3018.0944              3073.1759              3075.2344
 Red. masses --      1.0606                 1.1046                 1.1052
 Frc consts  --      5.6919                 6.1464                 6.1580
 IR Inten    --      4.1659                 9.0685                58.0385

                     46                     47                     48
                      A                      A                      A
 Frequencies --   3123.1040              3125.6869              3126.0381
 Red. masses --      1.0511                 1.0879                 1.0616
 Frc consts  --      6.0406                 6.2623                 6.1122
 IR Inten    --     15.9268                44.7944                10.3282

                     49                     50                     51
                      A                      A                      A
 Frequencies --   3129.7749              3200.0528              3213.8718
 Red. masses --      1.0889                 1.1176                 1.1152
 Frc consts  --      6.2847                 6.7429                 6.7869
 IR Inten    --      6.5544                 0.0564                15.4746

 - Thermochemistry -
 -------------------
 Temperature   298.150 Kelvin.  Pressure   1.00000 Atm.
 Atom     1 has atomic number  6 and mass  12.00000

 Molecular mass:   126.06808 amu.
 Principal axes and moments of inertia in atomic units:
                           1         2         3
     Eigenvalues --   668.861731013.485991147.55364
           X            1.00000   0.00000   0.00000
           Y            0.00000   0.98610  -0.16613
           Z            0.00000   0.16613   0.98610
 This molecule is an asymmetric top.
 Rotational symmetry number  1.
 Warning -- assumption of classical behavior for rotation
           may cause significant error
 Rotational temperatures (Kelvin)      0.12949     0.08546     0.07548
 Rotational constants (GHZ):           2.69823     1.78073     1.57269
 Zero-point vibrational energy     424160.4 (Joules/Mol)
                                  101.37678 (Kcal/Mol)
 Warning -- explicit consideration of   8 degrees of freedom as
           vibrations may cause significant error
 Vibrational temperatures:    225.69   299.97   358.05   364.56   556.59
          (Kelvin)            568.30   773.82   845.92   941.25  1093.17
                             1128.09  1229.62  1242.34  1297.29  1312.93
                             1332.72  1388.54  1405.88  1419.59  1455.00
                             1464.57  1506.76  1515.11  1557.67  1564.15
                             1569.56  1697.09  1707.18  1711.64  1780.98
                             1784.18  1822.60  1856.04  1881.59  1958.72
                             1972.38  2055.13  2112.97  2169.19  2172.02
                             2184.41  4338.11  4342.36  4421.61  4424.57
                             4493.44  4497.16  4497.67  4503.04  4604.16
                             4624.04

 Zero-point correction=                           0.161554 (Hartree/Particle)
 Thermal correction to Energy=                    0.168614
 Thermal correction to Enthalpy=                  0.169558
 Thermal correction to Gibbs Free Energy=         0.130379
 Sum of electronic and zero-point Energies=           -423.004704
 Sum of electronic and thermal Energies=              -422.997644
 Sum of electronic and thermal Enthalpies=            -422.996700
 Sum of electronic and thermal Free Energies=         -423.035879

                     E (Thermal)             CV                S
                      KCal/Mol        Cal/Mol-Kelvin    Cal/Mol-Kelvin
 Total                  105.807             28.850             82.460
 Electronic               0.000              0.000              0.000
 Translational            0.889              2.981             40.409
 Rotational               0.889              2.981             28.144
 Vibrational            104.029             22.889             13.907
 Vibration     1          0.621              1.895              2.587
 Vibration     2          0.642              1.828              2.057
 Vibration     3          0.662              1.765              1.739
 Vibration     4          0.665              1.757              1.707
 Vibration     5          0.755              1.498              1.012
 Vibration     6          0.762              1.481              0.981
 Vibration     7          0.893              1.166              0.570
 Vibration     8          0.945              1.057              0.471

 Optimization completed.
    -- Stationary point found.
 Normal termination of Gaussian 09 at Mon Jan 27 13:56:20 2020.
