 Gaussian 09, Revision D.01,
 Gaussian 09:  ES64L-G09RevD.01 24-Apr-2013

 -----------------------------
 # b3lyp 6-31G(2df,p) opt Freq
 -----------------------------

 -----
 titel
 -----
 Symbolic Z-matrix:
 Charge =  0 Multiplicity = 1

 SCF Done:  E(RB3LYP) =  -423.131137845     A.U. after   13 cycles
 Optimization completed.
    -- Stationary point found.
 Normal termination of Gaussian 09 at Tue Jan 28 12:11:48 2020.

 ----------------------------------------------------------------------
 #N Geom=AllCheck Guess=TCheck SCRF=Check GenChk RB3LYP/6-31G(2df,p) Fr
 eq
 ----------------------------------------------------------------------

 Structure from the checkpoint file:  "/scratch/puck/g09_b0eed261-4da2-4471-a5c9-1cda744941d7/Gau-115451.chk"
 -----
 titel
 -----
 Charge =  0 Multiplicity = 1

                         Standard orientation:
 ---------------------------------------------------------------------
 Center     Atomic      Atomic             Coordinates (Angstroms)
 Number     Number       Type             X           Y           Z
 ---------------------------------------------------------------------
      1          6           0       -2.733569    0.049401    0.139237
      2          8           0       -1.636878   -0.439698   -0.609266
      3          6           0       -0.406340    0.049687   -0.230123
      4          6           0        0.003216    1.532284   -0.132299
      5          6           0        1.270535    0.956802    0.556057
      6          6           0        1.957726    0.225552   -0.617340
      7          6           0        0.821528   -0.802954   -0.750866
      8          8           0        0.912220   -1.490964    0.533319
      9          6           0        0.382339   -0.280166    1.072379
     10          1           0       -2.877045    1.129507   -0.001328
     11          1           0       -3.621267   -0.473946   -0.221865
     12          1           0       -2.613073   -0.152776    1.212784
     13          1           0        0.138692    2.119379   -1.045121
     14          1           0       -0.639608    2.074715    0.567065
     15          1           0        1.868087    1.559049    1.235581
     16          1           0        2.099329    0.870234   -1.488757
     17          1           0        2.896655   -0.270570   -0.364490
     18          1           0        0.747508   -1.469134   -1.608443
     19          1           0        0.025369   -0.324801    2.099891
 ---------------------------------------------------------------------

 SCF Done:  E(RB3LYP) =  -423.131137845     A.U. after    1 cycles

 The electronic state is 1-A.
 Alpha  occ. eigenvalues --  -19.15075 -19.13109 -10.23891 -10.23439 -10.23063
 Alpha  occ. eigenvalues --  -10.22911 -10.19456 -10.18490 -10.18279  -1.06248
 Alpha  occ. eigenvalues --   -1.03296  -0.85297  -0.72727  -0.71605  -0.65373
 Alpha  occ. eigenvalues --   -0.64279  -0.56344  -0.53170  -0.52818  -0.48910
 Alpha  occ. eigenvalues --   -0.46762  -0.45478  -0.43796  -0.43069  -0.39397
 Alpha  occ. eigenvalues --   -0.38893  -0.36005  -0.34592  -0.34238  -0.32976
 Alpha  occ. eigenvalues --   -0.31444  -0.28012  -0.26274  -0.23218
 Alpha virt. eigenvalues --    0.08425   0.09773   0.10910   0.11860   0.12769
 Alpha virt. eigenvalues --    0.13724   0.14555   0.14909   0.16243   0.16764
 Alpha virt. eigenvalues --    0.17431   0.18254   0.18635   0.19466   0.21572

 Mulliken charges:
               1
     1  C   -0.260156
     2  O   -0.298767
     3  C    0.443971
     4  C   -0.323417
     5  C   -0.096343
     6  C   -0.208313
     7  C    0.007387
     8  O   -0.290723
     9  C    0.020595
    10  H    0.113611
    11  H    0.132100
    12  H    0.111916
    13  H    0.098094
    14  H    0.099429
    15  H    0.073992
    16  H    0.097786
    17  H    0.108998
    18  H    0.086020
    19  H    0.083820
 Sum of Mulliken charges =   0.00000

 Dipole moment (field-independent basis, Debye):
    X=             -0.6263    Y=              2.1069    Z=              0.2504  Tot=              2.2122
 Quadrupole moment (field-independent basis, Debye-Ang):
   XX=            -50.0368   YY=            -56.4632   ZZ=            -51.4804
   XY=              0.4702   XZ=             -3.0659   YZ=              1.5373

  Exact polarizability:  84.072   0.144  70.283  -2.882   0.916  68.354
 Approx polarizability: 109.746  -0.383 108.777  -1.732   0.738 107.931

                      1                      2                      3
                      A                      A                      A
 Frequencies --     84.1973               162.2056               210.3130
 Red. masses --      2.5778                 1.1906                 2.4866
 Frc consts  --      0.0108                 0.0185                 0.0648
 IR Inten    --      2.6845                 0.5498                 0.7247

                      4                      5                      6
                      A                      A                      A
 Frequencies --    304.0843               352.3493               457.8084
 Red. masses --      3.8738                 3.5018                 1.9392
 Frc consts  --      0.2110                 0.2561                 0.2395
 IR Inten    --      3.3277                 2.0918                 0.3736

                      7                      8                      9
                      A                      A                      A
 Frequencies --    475.6602               535.0691               631.9880
 Red. masses --      2.3534                 4.1760                 4.3762
 Frc consts  --      0.3137                 0.7044                 1.0298
 IR Inten    --      0.7773                 1.0778                13.5689

                     10                     11                     12
                      A                      A                      A
 Frequencies --    688.5910               717.9293               788.4256
 Red. masses --      4.0048                 4.0199                 2.7865
 Frc consts  --      1.1188                 1.2208                 1.0205
 IR Inten    --      3.2809                 0.2100                 2.0951

                     13                     14                     15
                      A                      A                      A
 Frequencies --    850.8944               875.4719               913.2453
 Red. masses --      3.2080                 2.5397                 1.9540
 Frc consts  --      1.3685                 1.1469                 0.9602
 IR Inten    --     19.4864                 5.9460                 5.0947

                     16                     17                     18
                      A                      A                      A
 Frequencies --    923.3192               936.7198               965.2815
 Red. masses --      2.2015                 3.2297                 1.9942
 Frc consts  --      1.1058                 1.6697                 1.0948
 IR Inten    --      6.3351                19.0736                10.3860

                     19                     20                     21
                      A                      A                      A
 Frequencies --    999.9826              1007.0966              1036.2248
 Red. masses --      1.7703                 2.6440                 1.7235
 Frc consts  --      1.0430                 1.5800                 1.0904
 IR Inten    --      5.8453                22.4412                 4.1030

                     22                     23                     24
                      A                      A                      A
 Frequencies --   1050.3389              1074.2367              1110.8344
 Red. masses --      2.0747                 2.0595                 1.9123
 Frc consts  --      1.3486                 1.4002                 1.3903
 IR Inten    --      8.6916                14.5542                30.6218

                     25                     26                     27
                      A                      A                      A
 Frequencies --   1136.7944              1166.0187              1179.3565
 Red. masses --      2.3424                 1.4605                 1.2879
 Frc consts  --      1.7835                 1.1700                 1.0554
 IR Inten    --     25.4244                 1.3389                 2.1865

                     28                     29                     30
                      A                      A                      A
 Frequencies --   1186.2432              1193.0601              1223.1461
 Red. masses --      1.8680                 1.7494                 1.3941
 Frc consts  --      1.5487                 1.4671                 1.2288
 IR Inten    --     20.2852                 5.7191                 0.4009

                     31                     32                     33
                      A                      A                      A
 Frequencies --   1226.3289              1241.2552              1258.3587
 Red. masses --      1.6535                 1.6032                 2.0619
 Frc consts  --      1.4651                 1.4553                 1.9237
 IR Inten    --     22.8452                 6.9226                63.1359

                     34                     35                     36
                      A                      A                      A
 Frequencies --   1301.8196              1323.3252              1356.4394
 Red. masses --      1.6608                 1.6603                 2.4702
 Frc consts  --      1.6583                 1.7131                 2.6779
 IR Inten    --      2.8007                16.0078               145.6316

                     37                     38                     39
                      A                      A                      A
 Frequencies --   1477.9514              1483.6528              1489.6487
 Red. masses --      1.1087                 1.1522                 1.0783
 Frc consts  --      1.4269                 1.4944                 1.4098
 IR Inten    --      1.3423                 2.9167                 4.4232

                     40                     41                     42
                      A                      A                      A
 Frequencies --   1503.6678              1508.4472              2994.1326
 Red. masses --      1.0821                 1.1255                 1.0353
 Frc consts  --      1.4415                 1.5089                 5.4686
 IR Inten    --     19.7634                 1.9496                43.4125

                     43                     44                     45
                      A                      A                      A
 Frequencies --   3046.9940              3053.4149              3067.0910
 Red. masses --      1.0926                 1.0671                 1.0590
 Frc consts  --      5.9768                 5.8617                 5.8695
 IR Inten    --     14.4623                59.5264                25.3497

                     46                     47                     48
                      A                      A                      A
 Frequencies --   3106.9968              3124.5600              3124.8223
 Red. masses --      1.1079                 1.1004                 1.1042
 Frc consts  --      6.3014                 6.3297                 6.3525
 IR Inten    --     27.5539                20.4286                24.3885

                     49                     50                     51
                      A                      A                      A
 Frequencies --   3135.5640              3144.4569              3151.5301
 Red. masses --      1.0907                 1.0916                 1.0926
 Frc consts  --      6.3180                 6.3591                 6.3940
 IR Inten    --     27.4956                32.5721                26.1838

 - Thermochemistry -
 -------------------
 Temperature   298.150 Kelvin.  Pressure   1.00000 Atm.
 Atom     1 has atomic number  6 and mass  12.00000

 Molecular mass:   126.06808 amu.
 Principal axes and moments of inertia in atomic units:
                           1         2         3
     Eigenvalues --   560.988991153.988051328.33710
           X            0.99962   0.00450  -0.02712
           Y           -0.00379   0.99965   0.02614
           Z            0.02723  -0.02603   0.99929
 This molecule is an asymmetric top.
 Rotational symmetry number  1.
 Warning -- assumption of classical behavior for rotation
           may cause significant error
 Rotational temperatures (Kelvin)      0.15439     0.07506     0.06520
 Rotational constants (GHZ):           3.21707     1.56392     1.35865
 Zero-point vibrational energy     420830.4 (Joules/Mol)
                                  100.58087 (Kcal/Mol)
 Warning -- explicit consideration of   8 degrees of freedom as
           vibrations may cause significant error
 Vibrational temperatures:    121.14   233.38   302.59   437.51   506.95
          (Kelvin)            658.68   684.37   769.84   909.29   990.73
                             1032.94  1134.37  1224.25  1259.61  1313.95
                             1328.45  1347.73  1388.82  1438.75  1448.99
                             1490.89  1511.20  1545.59  1598.24  1635.59
                             1677.64  1696.83  1706.74  1716.55  1759.83
                             1764.41  1785.89  1810.50  1873.03  1903.97
                             1951.61  2126.44  2134.64  2143.27  2163.44
                             2170.32  4307.88  4383.94  4393.18  4412.85
                             4470.27  4495.54  4495.92  4511.37  4524.17
                             4534.34

 Zero-point correction=                           0.160286 (Hartree/Particle)
 Thermal correction to Energy=                    0.167680
 Thermal correction to Enthalpy=                  0.168624
 Thermal correction to Gibbs Free Energy=         0.128409
 Sum of electronic and zero-point Energies=           -422.970852
 Sum of electronic and thermal Energies=              -422.963458
 Sum of electronic and thermal Enthalpies=            -422.962514
 Sum of electronic and thermal Free Energies=         -423.002729

                     E (Thermal)             CV                S
                      KCal/Mol        Cal/Mol-Kelvin    Cal/Mol-Kelvin
 Total                  105.221             29.524             84.639
 Electronic               0.000              0.000              0.000
 Translational            0.889              2.981             40.409
 Rotational               0.889              2.981             28.244
 Vibrational            103.443             23.562             15.987
 Vibration     1          0.601              1.960              3.791
 Vibration     2          0.622              1.889              2.524
 Vibration     3          0.642              1.825              2.041
 Vibration     4          0.695              1.666              1.394
 Vibration     5          0.729              1.570              1.156
 Vibration     6          0.816              1.344              0.773
 Vibration     7          0.832              1.304              0.722
 Vibration     8          0.890              1.172              0.576

 Optimization completed.
    -- Stationary point found.
 Normal termination of Gaussian 09 at Tue Jan 28 12:55:36 2020.
