 Gaussian 09, Revision D.01,
 Gaussian 09:  ES64L-G09RevD.01 24-Apr-2013

 -----------------------------
 # b3lyp 6-31G(2df,p) opt Freq
 -----------------------------

 -----
 titel
 -----
 Symbolic Z-matrix:
 Charge =  0 Multiplicity = 1

 SCF Done:  E(RB3LYP) =  -423.143190619     A.U. after   14 cycles
 Optimization completed.
    -- Stationary point found.
 Normal termination of Gaussian 09 at Tue Jan 28 12:40:23 2020.

 ----------------------------------------------------------------------
 #N Geom=AllCheck Guess=TCheck SCRF=Check GenChk RB3LYP/6-31G(2df,p) Fr
 eq
 ----------------------------------------------------------------------

 Structure from the checkpoint file:  "/scratch/puck/g09_d3e4fca2-4606-4780-89d6-5c55587b7a81/Gau-116143.chk"
 -----
 titel
 -----
 Charge =  0 Multiplicity = 1

                         Standard orientation:
 ---------------------------------------------------------------------
 Center     Atomic      Atomic             Coordinates (Angstroms)
 Number     Number       Type             X           Y           Z
 ---------------------------------------------------------------------
      1          8           0       -2.960934   -0.697467    0.406611
      2          6           0       -2.235085   -0.094873   -0.663832
      3          6           0       -0.842178    0.265269   -0.277853
      4          6           0       -0.180329    1.430759   -0.350558
      5          6           0        1.217076    1.086466    0.159002
      6          6           0        0.870739    0.184794    1.391464
      7          6           0        0.209093   -0.695838    0.281409
      8          6           0        1.435289   -0.255189   -0.626162
      9          8           0        2.680063   -0.841137   -0.345852
     10          1           0       -2.923403   -0.087371    1.150928
     11          1           0       -2.235876   -0.849082   -1.460809
     12          1           0       -2.754851    0.793081   -1.056135
     13          1           0       -0.515907    2.387936   -0.726485
     14          1           0        1.983807    1.859544    0.187740
     15          1           0        1.750565   -0.280368    1.838413
     16          1           0        0.210511    0.609880    2.151328
     17          1           0       -0.065513   -1.739152    0.436175
     18          1           0        1.234781   -0.216076   -1.705252
     19          1           0        2.715233   -1.697886   -0.782793
 ---------------------------------------------------------------------

 SCF Done:  E(RB3LYP) =  -423.143190619     A.U. after    1 cycles

 The electronic state is 1-A.
 Alpha  occ. eigenvalues --  -19.14231 -19.13326 -10.23669 -10.22982 -10.19243
 Alpha  occ. eigenvalues --  -10.18889 -10.18157 -10.17989 -10.17935  -1.02800
 Alpha  occ. eigenvalues --   -1.01273  -0.88898  -0.74439  -0.68649  -0.65052
 Alpha  occ. eigenvalues --   -0.64981  -0.55204  -0.52242  -0.51271  -0.50041
 Alpha  occ. eigenvalues --   -0.48947  -0.44457  -0.43153  -0.41264  -0.39801
 Alpha  occ. eigenvalues --   -0.36514  -0.35302  -0.34069  -0.32757  -0.31990
 Alpha  occ. eigenvalues --   -0.30287  -0.27004  -0.26616  -0.22680
 Alpha virt. eigenvalues --    0.00694   0.07644   0.09044   0.11819   0.12540
 Alpha virt. eigenvalues --    0.13849   0.15149   0.15360   0.16049   0.17487
 Alpha virt. eigenvalues --    0.17937   0.19148   0.19828   0.20557   0.22569

 Mulliken charges:
               1
     1  O   -0.413142
     2  C   -0.201410
     3  C    0.312519
     4  C   -0.215626
     5  C   -0.082445
     6  C   -0.215535
     7  C   -0.167560
     8  C    0.166831
     9  O   -0.443217
    10  H    0.280393
    11  H    0.112775
    12  H    0.092303
    13  H    0.099661
    14  H    0.066393
    15  H    0.112720
    16  H    0.081762
    17  H    0.066363
    18  H    0.061936
    19  H    0.285280
 Sum of Mulliken charges =   0.00000

 Dipole moment (field-independent basis, Debye):
    X=              0.2260    Y=              0.3480    Z=             -0.6380  Tot=              0.7611
 Quadrupole moment (field-independent basis, Debye-Ang):
   XX=            -60.0591   YY=            -49.7973   ZZ=            -50.6199
   XY=             -6.2794   XZ=             -2.0904   YZ=              2.4899

  Exact polarizability:  88.557   1.123  76.167   2.011  -0.380  68.025
 Approx polarizability: 122.035   8.531 125.384   0.817  -1.164 102.399

                      1                      2                      3
                      A                      A                      A
 Frequencies --     74.5439               120.2442               211.0332
 Red. masses --      3.8054                 4.0700                 2.9806
 Frc consts  --      0.0125                 0.0347                 0.0782
 IR Inten    --      3.6657                 0.2596                 6.5867

                      4                      5                      6
                      A                      A                      A
 Frequencies --    252.7339               307.4262               341.5068
 Red. masses --      1.0828                 2.8017                 1.5213
 Frc consts  --      0.0407                 0.1560                 0.1045
 IR Inten    --     97.0233                25.2834                77.8714

                      7                      8                      9
                      A                      A                      A
 Frequencies --    358.6296               422.6232               485.6577
 Red. masses --      3.2673                 2.5229                 2.1692
 Frc consts  --      0.2476                 0.2655                 0.3014
 IR Inten    --     20.2645                32.1102                 0.4756

                     10                     11                     12
                      A                      A                      A
 Frequencies --    525.3312               596.6571               679.5412
 Red. masses --      3.8836                 3.7711                 3.3053
 Frc consts  --      0.6315                 0.7910                 0.8993
 IR Inten    --     10.2354                 0.7096                12.1131

                     13                     14                     15
                      A                      A                      A
 Frequencies --    781.3072               804.0742               852.4632
 Red. masses --      3.0410                 1.6957                 2.3441
 Frc consts  --      1.0937                 0.6459                 1.0036
 IR Inten    --      5.0630                30.0626                 5.1209

                     16                     17                     18
                      A                      A                      A
 Frequencies --    872.2310               895.1945               929.0354
 Red. masses --      2.4580                 3.0290                 2.9369
 Frc consts  --      1.1018                 1.4302                 1.4935
 IR Inten    --      2.4307                 6.4382                 3.7262

                     19                     20                     21
                      A                      A                      A
 Frequencies --    940.2220               972.7764               994.6314
 Red. masses --      1.8949                 1.6545                 2.3477
 Frc consts  --      0.9869                 0.9224                 1.3684
 IR Inten    --      0.3611                35.5997                 3.3560

                     22                     23                     24
                      A                      A                      A
 Frequencies --   1039.7545              1060.4001              1083.4882
 Red. masses --      2.6161                 2.2108                 1.3350
 Frc consts  --      1.6664                 1.4646                 0.9234
 IR Inten    --     54.6943                18.3800                 0.1043

                     25                     26                     27
                      A                      A                      A
 Frequencies --   1102.5128              1114.9576              1169.1081
 Red. masses --      2.6746                 1.6519                 1.5240
 Frc consts  --      1.9155                 1.2099                 1.2273
 IR Inten    --     59.0333                47.0221                29.5422

                     28                     29                     30
                      A                      A                      A
 Frequencies --   1189.4280              1199.9133              1230.1817
 Red. masses --      1.1818                 1.4103                 1.6473
 Frc consts  --      0.9851                 1.1964                 1.4688
 IR Inten    --     18.5393                 0.9177                29.2028

                     31                     32                     33
                      A                      A                      A
 Frequencies --   1236.9799              1237.7691              1259.1737
 Red. masses --      1.4073                 1.6837                 1.4750
 Frc consts  --      1.2687                 1.5198                 1.3779
 IR Inten    --     34.8523                 7.4353                 1.6501

                     34                     35                     36
                      A                      A                      A
 Frequencies --   1291.6035              1327.8405              1366.6180
 Red. masses --      1.5948                 1.8486                 1.2795
 Frc consts  --      1.5676                 1.9204                 1.4079
 IR Inten    --     23.2136                16.3884                 0.6601

                     37                     38                     39
                      A                      A                      A
 Frequencies --   1410.9511              1416.4630              1488.6516
 Red. masses --      1.3548                 1.2418                 1.1277
 Frc consts  --      1.5891                 1.4679                 1.4725
 IR Inten    --      3.8949                80.7075                 5.9965

                     40                     41                     42
                      A                      A                      A
 Frequencies --   1495.4814              1672.6773              2983.4263
 Red. masses --      1.0900                 7.2829                 1.0666
 Frc consts  --      1.4362                12.0055                 5.5934
 IR Inten    --      0.9091                 2.0991                60.8653

                     43                     44                     45
                      A                      A                      A
 Frequencies --   3014.4766              3044.2339              3066.5323
 Red. masses --      1.0861                 1.0946                 1.0574
 Frc consts  --      5.8147                 5.9769                 5.8585
 IR Inten    --     69.4899                25.8981                41.0486

                     46                     47                     48
                      A                      A                      A
 Frequencies --   3121.3476              3128.4282              3140.2466
 Red. masses --      1.0900                 1.0911                 1.1074
 Frc consts  --      6.2567                 6.2916                 6.4337
 IR Inten    --     34.8329                30.7255                26.3999

                     49                     50                     51
                      A                      A                      A
 Frequencies --   3220.6601              3808.0714              3818.8658
 Red. masses --      1.0971                 1.0662                 1.0661
 Frc consts  --      6.7050                 9.1094                 9.1609
 IR Inten    --      8.1109                13.4812                30.2814

 - Thermochemistry -
 -------------------
 Temperature   298.150 Kelvin.  Pressure   1.00000 Atm.
 Atom     1 has atomic number  8 and mass  15.99491

 Molecular mass:   126.06808 amu.
 Principal axes and moments of inertia in atomic units:
                           1         2         3
     Eigenvalues --   504.279471686.090731773.36173
           X            0.99993  -0.00833   0.00807
           Y            0.00812   0.99964   0.02558
           Z           -0.00828  -0.02552   0.99964
 This molecule is an asymmetric top.
 Rotational symmetry number  1.
 Warning -- assumption of classical behavior for rotation
           may cause significant error
 Rotational temperatures (Kelvin)      0.17176     0.05137     0.04884
 Rotational constants (GHZ):           3.57885     1.07037     1.01769
 Zero-point vibrational energy     419638.7 (Joules/Mol)
                                  100.29605 (Kcal/Mol)
 Warning -- explicit consideration of  11 degrees of freedom as
           vibrations may cause significant error
 Vibrational temperatures:    107.25   173.00   303.63   363.63   442.32
          (Kelvin)            491.35   515.99   608.06   698.75   755.83
                              858.46   977.71  1124.13  1156.88  1226.50
                             1254.94  1287.98  1336.67  1352.77  1399.61
                             1431.05  1495.97  1525.68  1558.90  1586.27
                             1604.17  1682.08  1711.32  1726.41  1769.95
                             1779.74  1780.87  1811.67  1858.33  1910.46
                             1966.26  2030.04  2037.97  2141.83  2151.66
                             2406.61  4292.48  4337.15  4379.97  4412.05
                             4490.92  4501.10  4518.11  4633.81  5478.96
                             5494.49

 Zero-point correction=                           0.159832 (Hartree/Particle)
 Thermal correction to Energy=                    0.168134
 Thermal correction to Enthalpy=                  0.169078
 Thermal correction to Gibbs Free Energy=         0.126867
 Sum of electronic and zero-point Energies=           -422.983359
 Sum of electronic and thermal Energies=              -422.975057
 Sum of electronic and thermal Enthalpies=            -422.974113
 Sum of electronic and thermal Free Energies=         -423.016323

                     E (Thermal)             CV                S
                      KCal/Mol        Cal/Mol-Kelvin    Cal/Mol-Kelvin
 Total                  105.505             32.352             88.840
 Electronic               0.000              0.000              0.000
 Translational            0.889              2.981             40.409
 Rotational               0.889              2.981             28.802
 Vibrational            103.728             26.390             19.630
 Vibration     1          0.599              1.966              4.030
 Vibration     2          0.609              1.932              3.096
 Vibration     3          0.643              1.824              2.035
 Vibration     4          0.664              1.758              1.711
 Vibration     5          0.697              1.660              1.376
 Vibration     6          0.721              1.593              1.205
 Vibration     7          0.733              1.558              1.128
 Vibration     8          0.785              1.421              0.883
 Vibration     9          0.842              1.282              0.695
 Vibration    10          0.880              1.194              0.598
 Vibration    11          0.954              1.039              0.455

 Optimization completed.
    -- Stationary point found.
 Normal termination of Gaussian 09 at Tue Jan 28 13:23:32 2020.
