 Gaussian 09, Revision D.01,
 Gaussian 09:  ES64L-G09RevD.01 24-Apr-2013

 -----------------------------
 # b3lyp 6-31G(2df,p) opt Freq
 -----------------------------

 -----
 titel
 -----
 Symbolic Z-matrix:
 Charge =  0 Multiplicity = 1

 SCF Done:  E(RB3LYP) =  -423.158499004     A.U. after   14 cycles
 Optimization completed.
    -- Stationary point found.
 Normal termination of Gaussian 09 at Tue Jan 28 01:52:56 2020.

 ----------------------------------------------------------------------
 #N Geom=AllCheck Guess=TCheck SCRF=Check GenChk RB3LYP/6-31G(2df,p) Fr
 eq
 ----------------------------------------------------------------------

 Structure from the checkpoint file:  "/scratch/puck/g09_efeb86b5-9a25-4a23-bc07-b5ef13264c4d/Gau-190661.chk"
 -----
 titel
 -----
 Charge =  0 Multiplicity = 1

                         Standard orientation:
 ---------------------------------------------------------------------
 Center     Atomic      Atomic             Coordinates (Angstroms)
 Number     Number       Type             X           Y           Z
 ---------------------------------------------------------------------
      1          6           0        2.360947    1.516918    0.102587
      2          6           0        1.935894    0.148930    0.588911
      3          6           0        2.067804   -1.067205   -0.325539
      4          6           0        0.725137   -0.509072    0.010522
      5          6           0       -0.479591   -1.151400    0.687408
      6          6           0       -1.286956   -0.424729   -0.426144
      7          8           0       -0.082911    0.142920   -0.981123
      8          6           0       -2.238395    0.639026    0.079914
      9          8           0       -3.424165    0.477406    0.202715
     10          1           0        1.891372    2.309363    0.695272
     11          1           0        3.446378    1.642246    0.173581
     12          1           0        2.065293    1.667627   -0.939164
     13          1           0        2.107390   -0.040552    1.646778
     14          1           0        2.427590   -0.889853   -1.334466
     15          1           0        2.361000   -2.021074    0.101674
     16          1           0       -0.531689   -2.240142    0.645896
     17          1           0       -0.682678   -0.815209    1.707124
     18          1           0       -1.805874   -1.081720   -1.131404
     19          1           0       -1.731209    1.591910    0.356016
 ---------------------------------------------------------------------

 SCF Done:  E(RB3LYP) =  -423.158499004     A.U. after    1 cycles

 The electronic state is 1-A.
 Alpha  occ. eigenvalues --  -19.15108 -19.14670 -10.27377 -10.24999 -10.24943
 Alpha  occ. eigenvalues --  -10.20848 -10.19698 -10.18792 -10.18095  -1.06225
 Alpha  occ. eigenvalues --   -1.04942  -0.86129  -0.76519  -0.71811  -0.68470
 Alpha  occ. eigenvalues --   -0.59708  -0.57766  -0.54030  -0.51367  -0.48874
 Alpha  occ. eigenvalues --   -0.47561  -0.46326  -0.42926  -0.41527  -0.41077
 Alpha  occ. eigenvalues --   -0.40112  -0.39371  -0.36952  -0.35950  -0.34397
 Alpha  occ. eigenvalues --   -0.32258  -0.28772  -0.26182  -0.23631
 Alpha virt. eigenvalues --   -0.03434   0.07096   0.09543   0.10489   0.11561
 Alpha virt. eigenvalues --    0.11993   0.12880   0.14668   0.14923   0.16361
 Alpha virt. eigenvalues --    0.17177   0.17519   0.18290   0.20326   0.23483

 Mulliken charges:
               1
     1  C   -0.403377
     2  C   -0.076080
     3  C   -0.364796
     4  C    0.452779
     5  C   -0.386329
     6  C    0.046672
     7  O   -0.314187
     8  C    0.139022
     9  O   -0.239563
    10  H    0.118276
    11  H    0.118936
    12  H    0.134135
    13  H    0.087725
    14  H    0.125064
    15  H    0.114293
    16  H    0.128462
    17  H    0.123216
    18  H    0.107883
    19  H    0.087868
 Sum of Mulliken charges =   0.00000

 Dipole moment (field-independent basis, Debye):
    X=              2.4484    Y=             -1.0318    Z=              0.9575  Tot=              2.8242
 Quadrupole moment (field-independent basis, Debye-Ang):
   XX=            -63.8157   YY=            -50.7923   ZZ=            -52.7737
   XY=              1.3888   XZ=              1.4413   YZ=              0.1357

  Exact polarizability:  94.456   0.678  74.605  -0.052   2.231  62.349
 Approx polarizability: 126.214   0.533 104.430  -0.090   2.452  96.832

                      1                      2                      3
                      A                      A                      A
 Frequencies --     38.8309                61.8274               160.3860
 Red. masses --      5.0248                 3.7583                 1.5426
 Frc consts  --      0.0045                 0.0085                 0.0234
 IR Inten    --      0.4446                 8.1861                 0.7457

                      4                      5                      6
                      A                      A                      A
 Frequencies --    177.4924               186.4296               266.9111
 Red. masses --      1.8464                 2.0295                 2.6114
 Frc consts  --      0.0343                 0.0416                 0.1096
 IR Inten    --      0.8753                 0.7624                 4.9232

                      7                      8                      9
                      A                      A                      A
 Frequencies --    316.1295               374.3773               403.8676
 Red. masses --      3.2035                 2.9052                 2.1734
 Frc consts  --      0.1886                 0.2399                 0.2089
 IR Inten    --      6.2044                 6.7599                 0.4073

                     10                     11                     12
                      A                      A                      A
 Frequencies --    429.6636               523.3050               619.8356
 Red. masses --      4.1356                 3.1453                 4.5611
 Frc consts  --      0.4498                 0.5075                 1.0325
 IR Inten    --      3.0535                 0.8592                 3.7801

                     13                     14                     15
                      A                      A                      A
 Frequencies --    772.5186               835.9998               848.4203
 Red. masses --      2.1717                 1.4159                 2.9538
 Frc consts  --      0.7636                 0.5830                 1.2527
 IR Inten    --      5.9610                 2.0988                26.3707

                     16                     17                     18
                      A                      A                      A
 Frequencies --    883.7134               892.6530               915.6699
 Red. masses --      1.8031                 1.6275                 2.2673
 Frc consts  --      0.8296                 0.7641                 1.1200
 IR Inten    --      4.8951                 3.4960                11.4056

                     19                     20                     21
                      A                      A                      A
 Frequencies --    943.2379               991.4754              1030.9183
 Red. masses --      2.3708                 1.4500                 2.0915
 Frc consts  --      1.2428                 0.8398                 1.3096
 IR Inten    --      4.5603                32.6269                39.3091

                     22                     23                     24
                      A                      A                      A
 Frequencies --   1040.3500              1061.1295              1103.9590
 Red. masses --      2.0077                 2.2188                 2.3031
 Frc consts  --      1.2803                 1.4720                 1.6537
 IR Inten    --     55.7757                37.1313                 3.7363

                     25                     26                     27
                      A                      A                      A
 Frequencies --   1121.8126              1137.7033              1168.6708
 Red. masses --      2.2552                 2.1333                 1.5887
 Frc consts  --      1.6722                 1.6269                 1.2784
 IR Inten    --      0.4198                 3.2430                 5.5629

                     28                     29                     30
                      A                      A                      A
 Frequencies --   1178.4659              1205.5661              1237.0547
 Red. masses --      1.6436                 1.9074                 1.3691
 Frc consts  --      1.3449                 1.6334                 1.2344
 IR Inten    --      5.9368                15.4006                 4.3977

                     31                     32                     33
                      A                      A                      A
 Frequencies --   1275.2006              1300.7944              1324.0604
 Red. masses --      1.6367                 1.4669                 1.4776
 Frc consts  --      1.5681                 1.4624                 1.5262
 IR Inten    --      2.8018                28.8041                 4.5621

                     34                     35                     36
                      A                      A                      A
 Frequencies --   1398.7904              1412.3283              1426.4459
 Red. masses --      1.2542                 1.2542                 1.4531
 Frc consts  --      1.4458                 1.4740                 1.7420
 IR Inten    --      5.8309                 0.4029                 4.7085

                     37                     38                     39
                      A                      A                      A
 Frequencies --   1482.7299              1491.4882              1493.8826
 Red. masses --      1.2327                 1.0524                 1.1906
 Frc consts  --      1.5968                 1.3794                 1.5654
 IR Inten    --     10.4090                 3.8990                 5.3641

                     40                     41                     42
                      A                      A                      A
 Frequencies --   1510.1680              1834.0440              2878.1238
 Red. masses --      1.5177                10.6135                 1.0838
 Frc consts  --      2.0393                21.0343                 5.2897
 IR Inten    --     15.6507               168.6450                78.2263

                     43                     44                     45
                      A                      A                      A
 Frequencies --   3034.6837              3063.2491              3070.9785
 Red. masses --      1.0360                 1.0852                 1.0615
 Frc consts  --      5.6214                 5.9995                 5.8983
 IR Inten    --     32.1385                28.1823                19.1986

                     46                     47                     48
                      A                      A                      A
 Frequencies --   3094.5337              3112.2689              3122.7395
 Red. masses --      1.1014                 1.0941                 1.0551
 Frc consts  --      6.2140                 6.2441                 6.0618
 IR Inten    --     23.9263                 3.0524                 8.5485

                     49                     50                     51
                      A                      A                      A
 Frequencies --   3129.8207              3130.0824              3211.9238
 Red. masses --      1.1051                 1.0945                 1.1164
 Frc consts  --      6.3781                 6.3182                 6.7855
 IR Inten    --      7.9102                28.9301                 6.3456

 - Thermochemistry -
 -------------------
 Temperature   298.150 Kelvin.  Pressure   1.00000 Atm.
 Atom     1 has atomic number  6 and mass  12.00000

 Molecular mass:   126.06808 amu.
 Principal axes and moments of inertia in atomic units:
                           1         2         3
     Eigenvalues --   489.115391865.959782067.73725
           X            0.99982   0.01904   0.00119
           Y           -0.01905   0.99981   0.00354
           Z           -0.00112  -0.00356   0.99999
 This molecule is an asymmetric top.
 Rotational symmetry number  1.
 Warning -- assumption of classical behavior for rotation
           may cause significant error
 Rotational temperatures (Kelvin)      0.17708     0.04642     0.04189
 Rotational constants (GHZ):           3.68981     0.96719     0.87281
 Zero-point vibrational energy     411077.0 (Joules/Mol)
                                   98.24977 (Kcal/Mol)
 Warning -- explicit consideration of  12 degrees of freedom as
           vibrations may cause significant error
 Vibrational temperatures:     55.87    88.96   230.76   255.37   268.23
          (Kelvin)            384.03   454.84   538.64   581.07   618.19
                              752.92   891.80  1111.48  1202.82  1220.69
                             1271.46  1284.33  1317.44  1357.11  1426.51
                             1483.26  1496.83  1526.73  1588.35  1614.04
                             1636.90  1681.45  1695.55  1734.54  1779.84
                             1834.73  1871.55  1905.03  2012.54  2032.02
                             2052.33  2133.31  2145.92  2149.36  2172.79
                             2638.78  4140.97  4366.23  4407.33  4418.45
                             4452.34  4477.86  4492.92  4503.11  4503.48
                             4621.24

 Zero-point correction=                           0.156571 (Hartree/Particle)
 Thermal correction to Energy=                    0.165795
 Thermal correction to Enthalpy=                  0.166739
 Thermal correction to Gibbs Free Energy=         0.121541
 Sum of electronic and zero-point Energies=           -423.001928
 Sum of electronic and thermal Energies=              -422.992704
 Sum of electronic and thermal Enthalpies=            -422.991760
 Sum of electronic and thermal Free Energies=         -423.036958

                     E (Thermal)             CV                S
                      KCal/Mol        Cal/Mol-Kelvin    Cal/Mol-Kelvin
 Total                  104.038             33.389             95.127
 Electronic               0.000              0.000              0.000
 Translational            0.889              2.981             40.409
 Rotational               0.889              2.981             29.025
 Vibrational            102.260             27.427             25.694
 Vibration     1          0.594              1.981              5.318
 Vibration     2          0.597              1.973              4.398
 Vibration     3          0.622              1.891              2.545
 Vibration     4          0.628              1.870              2.355
 Vibration     5          0.632              1.858              2.263
 Vibration     6          0.672              1.734              1.616
 Vibration     7          0.703              1.643              1.330
 Vibration     8          0.745              1.525              1.062
 Vibration     9          0.769              1.462              0.949
 Vibration    10          0.791              1.406              0.860
 Vibration    11          0.878              1.198              0.602
 Vibration    12          0.980              0.990              0.417

 Optimization completed.
    -- Stationary point found.
 Normal termination of Gaussian 09 at Tue Jan 28 02:37:24 2020.
