 Gaussian 09, Revision D.01,
 Gaussian 09:  ES64L-G09RevD.01 24-Apr-2013

 -----------------------------
 # b3lyp 6-31G(2df,p) opt Freq
 -----------------------------

 -----
 titel
 -----
 Symbolic Z-matrix:
 Charge =  0 Multiplicity = 1

 SCF Done:  E(RB3LYP) =  -423.172923313     A.U. after   14 cycles
 Optimization completed.
    -- Stationary point found.
 Normal termination of Gaussian 09 at Tue Jan 28 00:06:32 2020.

 ----------------------------------------------------------------------
 #N Geom=AllCheck Guess=TCheck SCRF=Check GenChk RB3LYP/6-31G(2df,p) Fr
 eq
 ----------------------------------------------------------------------

 Structure from the checkpoint file:  "/scratch/puck/g09_4ebb81a0-146f-4780-9890-5d3bf48bd501/Gau-21335.chk"
 -----
 titel
 -----
 Charge =  0 Multiplicity = 1

                         Standard orientation:
 ---------------------------------------------------------------------
 Center     Atomic      Atomic             Coordinates (Angstroms)
 Number     Number       Type             X           Y           Z
 ---------------------------------------------------------------------
      1          6           0       -2.051516   -0.936265   -0.238361
      2          6           0       -0.622191   -0.488356   -0.064656
      3          6           0        0.176179   -0.889517    1.201783
      4          6           0        1.323914   -1.016380    0.171136
      5          8           0        0.330140   -1.252943   -0.872381
      6          6           0        1.941315    0.347149   -0.054899
      7          6           0        1.086526    1.321430   -0.365199
      8          6           0       -0.394548    1.004546   -0.420174
      9          8           0       -1.154303    1.880679    0.410966
     10          1           0       -2.356069   -0.825451   -1.284990
     11          1           0       -2.167538   -1.985641    0.045243
     12          1           0       -2.713403   -0.319026    0.375160
     13          1           0        0.293567   -0.177163    2.021406
     14          1           0       -0.155111   -1.858717    1.579869
     15          1           0        2.042191   -1.833876    0.254122
     16          1           0        3.011590    0.497915    0.040280
     17          1           0        1.388642    2.346525   -0.558769
     18          1           0       -0.782219    1.173586   -1.432852
     19          1           0       -0.726418    1.904320    1.274077
 ---------------------------------------------------------------------

 SCF Done:  E(RB3LYP) =  -423.172923313     A.U. after    1 cycles

 The electronic state is 1-A.
 Alpha  occ. eigenvalues --  -19.14163 -19.12850 -10.23966 -10.23810 -10.23399
 Alpha  occ. eigenvalues --  -10.18989 -10.18865 -10.18627 -10.17277  -1.04195
 Alpha  occ. eigenvalues --   -1.01900  -0.80162  -0.76548  -0.73221  -0.68025
 Alpha  occ. eigenvalues --   -0.62091  -0.57914  -0.53537  -0.49706  -0.48644
 Alpha  occ. eigenvalues --   -0.46447  -0.44071  -0.43111  -0.42731  -0.40899
 Alpha  occ. eigenvalues --   -0.37819  -0.37684  -0.36252  -0.34488  -0.31962
 Alpha  occ. eigenvalues --   -0.30550  -0.28883  -0.26142  -0.22975
 Alpha virt. eigenvalues --   -0.00529   0.07603   0.09773   0.10727   0.12085
 Alpha virt. eigenvalues --    0.13326   0.14172   0.16320   0.16876   0.17478
 Alpha virt. eigenvalues --    0.17902   0.18355   0.19953   0.20515   0.23722

 Mulliken charges:
               1
     1  C   -0.480703
     2  C    0.372800
     3  C   -0.289629
     4  C    0.042826
     5  O   -0.322536
     6  C   -0.061785
     7  C   -0.115532
     8  C    0.061866
     9  O   -0.436007
    10  H    0.126143
    11  H    0.116605
    12  H    0.134096
    13  H    0.087203
    14  H    0.107309
    15  H    0.077179
    16  H    0.098024
    17  H    0.102500
    18  H    0.099238
    19  H    0.280402
 Sum of Mulliken charges =   0.00000

 Dipole moment (field-independent basis, Debye):
    X=              1.0324    Y=              0.0745    Z=              1.8460  Tot=              2.1164
 Quadrupole moment (field-independent basis, Debye-Ang):
   XX=            -51.6680   YY=            -55.0324   ZZ=            -52.5479
   XY=              2.5881   XZ=              1.2169   YZ=             -1.5441

  Exact polarizability:  84.631  -2.025  78.088   2.462  -4.090  62.254
 Approx polarizability: 120.096 -13.340 118.083   4.784  -3.723  99.757

                      1                      2                      3
                      A                      A                      A
 Frequencies --    133.8933               196.0496               245.0177
 Red. masses --      3.4463                 1.0894                 2.4395
 Frc consts  --      0.0364                 0.0247                 0.0863
 IR Inten    --      2.5815                 0.0237                 1.1472

                      4                      5                      6
                      A                      A                      A
 Frequencies --    279.1483               296.4483               327.1102
 Red. masses --      1.8554                 1.9231                 1.9810
 Frc consts  --      0.0852                 0.0996                 0.1249
 IR Inten    --     28.1875                23.9880                38.4088

                      7                      8                      9
                      A                      A                      A
 Frequencies --    412.6674               440.3277               473.1584
 Red. masses --      2.8003                 3.5606                 4.0832
 Frc consts  --      0.2810                 0.4067                 0.5386
 IR Inten    --      0.5891                 2.6605                 2.1698

                     10                     11                     12
                      A                      A                      A
 Frequencies --    496.5138               608.7886               659.4453
 Red. masses --      3.6149                 3.9106                 2.8094
 Frc consts  --      0.5251                 0.8539                 0.7198
 IR Inten    --      6.9822                 1.6102                 1.3413

                     13                     14                     15
                      A                      A                      A
 Frequencies --    721.6972               749.9422               844.3328
 Red. masses --      3.1299                 1.9241                 2.7002
 Frc consts  --      0.9605                 0.6376                 1.1341
 IR Inten    --      5.7862                20.5902                36.6534

                     16                     17                     18
                      A                      A                      A
 Frequencies --    866.7937               900.0785               920.6616
 Red. masses --      2.1904                 2.4887                 2.7949
 Frc consts  --      0.9696                 1.1879                 1.3958
 IR Inten    --      5.1650                 6.3856                28.3987

                     19                     20                     21
                      A                      A                      A
 Frequencies --    939.0196               980.2641               983.3516
 Red. masses --      4.5131                 1.4540                 2.0296
 Frc consts  --      2.3447                 0.8232                 1.1563
 IR Inten    --     14.5238                 6.2180                11.3186

                     22                     23                     24
                      A                      A                      A
 Frequencies --   1010.6631              1038.0185              1069.7967
 Red. masses --      1.5984                 2.0935                 4.0760
 Frc consts  --      0.9619                 1.3290                 2.7484
 IR Inten    --      8.4107                21.8810                92.7726

                     25                     26                     27
                      A                      A                      A
 Frequencies --   1082.1610              1123.4907              1165.6995
 Red. masses --      1.2656                 1.8334                 1.2234
 Frc consts  --      0.8732                 1.3635                 0.9795
 IR Inten    --     12.2165                 1.4131                 4.3000

                     28                     29                     30
                      A                      A                      A
 Frequencies --   1216.1795              1234.0053              1246.4424
 Red. masses --      1.9454                 2.0775                 1.2908
 Frc consts  --      1.6954                 1.8639                 1.1815
 IR Inten    --      4.7512                20.6446                 7.6039

                     31                     32                     33
                      A                      A                      A
 Frequencies --   1252.4892              1280.8611              1336.6971
 Red. masses --      1.6098                 2.0512                 1.3866
 Frc consts  --      1.4879                 1.9827                 1.4597
 IR Inten    --      9.7164                 4.6202                 5.0165

                     34                     35                     36
                      A                      A                      A
 Frequencies --   1367.5641              1380.2124              1403.4147
 Red. masses --      1.7402                 1.5253                 1.3299
 Frc consts  --      1.9176                 1.7120                 1.5432
 IR Inten    --      1.6645                 1.2963                55.2110

                     37                     38                     39
                      A                      A                      A
 Frequencies --   1411.0245              1482.5932              1485.9286
 Red. masses --      1.3884                 1.0539                 1.0983
 Frc consts  --      1.6287                 1.3649                 1.4288
 IR Inten    --     27.4047                 4.5576                 6.8906

                     40                     41                     42
                      A                      A                      A
 Frequencies --   1491.1837              1691.2594              3032.1238
 Red. masses --      1.0951                 6.5352                 1.0801
 Frc consts  --      1.4347                11.0137                 5.8505
 IR Inten    --      1.8441                 0.9687                17.0119

                     43                     44                     45
                      A                      A                      A
 Frequencies --   3039.0756              3064.1899              3097.3393
 Red. masses --      1.0397                 1.0574                 1.0896
 Frc consts  --      5.6578                 5.8496                 6.1590
 IR Inten    --     22.9786                27.7788                46.0152

                     46                     47                     48
                      A                      A                      A
 Frequencies --   3108.3802              3125.9438              3129.4058
 Red. masses --      1.0994                 1.1072                 1.1036
 Frc consts  --      6.2584                 6.3746                 6.3679
 IR Inten    --     16.3911                 9.0999                30.7906

                     49                     50                     51
                      A                      A                      A
 Frequencies --   3166.8173              3191.9470              3801.8501
 Red. masses --      1.0849                 1.1009                 1.0660
 Frc consts  --      6.4106                 6.6087                 9.0779
 IR Inten    --      7.5213                23.2315                12.5622

 - Thermochemistry -
 -------------------
 Temperature   298.150 Kelvin.  Pressure   1.00000 Atm.
 Atom     1 has atomic number  6 and mass  12.00000

 Molecular mass:   126.06808 amu.
 Principal axes and moments of inertia in atomic units:
                           1         2         3
     Eigenvalues --   792.19890 879.164781318.50208
           X            0.96594   0.25837   0.01438
           Y           -0.25793   0.96579  -0.02690
           Z           -0.02084   0.02228   0.99953
 This molecule is an asymmetric top.
 Rotational symmetry number  1.
 Warning -- assumption of classical behavior for rotation
           may cause significant error
 Rotational temperatures (Kelvin)      0.10933     0.09852     0.06569
 Rotational constants (GHZ):           2.27814     2.05279     1.36878
 Zero-point vibrational energy     418701.8 (Joules/Mol)
                                  100.07212 (Kcal/Mol)
 Warning -- explicit consideration of  11 degrees of freedom as
           vibrations may cause significant error
 Vibrational temperatures:    192.64   282.07   352.53   401.63   426.52
          (Kelvin)            470.64   593.74   633.53   680.77   714.37
                              875.91   948.79  1038.36  1079.00  1214.81
                             1247.12  1295.01  1324.63  1351.04  1410.38
                             1414.82  1454.12  1493.48  1539.20  1556.99
                             1616.45  1677.18  1749.81  1775.46  1793.35
                             1802.05  1842.87  1923.21  1967.62  1985.82
                             2019.20  2030.15  2133.12  2137.92  2145.48
                             2433.34  4362.54  4372.55  4408.68  4456.37
                             4472.26  4497.53  4502.51  4556.34  4592.49
                             5470.01

 Zero-point correction=                           0.159475 (Hartree/Particle)
 Thermal correction to Energy=                    0.167473
 Thermal correction to Enthalpy=                  0.168417
 Thermal correction to Gibbs Free Energy=         0.127601
 Sum of electronic and zero-point Energies=           -423.013448
 Sum of electronic and thermal Energies=              -423.005451
 Sum of electronic and thermal Enthalpies=            -423.004506
 Sum of electronic and thermal Free Energies=         -423.045322

                     E (Thermal)             CV                S
                      KCal/Mol        Cal/Mol-Kelvin    Cal/Mol-Kelvin
 Total                  105.091             32.218             85.904
 Electronic               0.000              0.000              0.000
 Translational            0.889              2.981             40.409
 Rotational               0.889              2.981             28.309
 Vibrational            103.313             26.256             17.187
 Vibration     1          0.613              1.919              2.889
 Vibration     2          0.636              1.845              2.170
 Vibration     3          0.660              1.771              1.766
 Vibration     4          0.679              1.712              1.539
 Vibration     5          0.690              1.680              1.437
 Vibration     6          0.711              1.621              1.274
 Vibration     7          0.776              1.443              0.917
 Vibration     8          0.800              1.382              0.826
 Vibration     9          0.830              1.310              0.729
 Vibration    10          0.852              1.258              0.667
 Vibration    11          0.968              1.013              0.435

 Optimization completed.
    -- Stationary point found.
 Normal termination of Gaussian 09 at Tue Jan 28 00:58:58 2020.
