 Gaussian 09, Revision D.01,
 Gaussian 09:  ES64L-G09RevD.01 24-Apr-2013

 -----------------------------
 # b3lyp 6-31G(2df,p) opt Freq
 -----------------------------

 -----
 titel
 -----
 Symbolic Z-matrix:
 Charge =  0 Multiplicity = 1

 SCF Done:  E(RB3LYP) =  -423.127538884     A.U. after   14 cycles
 Optimization completed.
    -- Stationary point found.
 Normal termination of Gaussian 09 at Tue Jan 28 09:00:56 2020.

 ----------------------------------------------------------------------
 #N Geom=AllCheck Guess=TCheck SCRF=Check GenChk RB3LYP/6-31G(2df,p) Fr
 eq
 ----------------------------------------------------------------------

 Structure from the checkpoint file:  "/scratch/puck/g09_4a88348f-2e5c-4f2b-a860-d2a947e8164e/Gau-93710.chk"
 -----
 titel
 -----
 Charge =  0 Multiplicity = 1

                         Standard orientation:
 ---------------------------------------------------------------------
 Center     Atomic      Atomic             Coordinates (Angstroms)
 Number     Number       Type             X           Y           Z
 ---------------------------------------------------------------------
      1          8           0       -2.621359   -0.593035   -0.226898
      2          6           0       -1.330666   -1.009901   -0.682308
      3          6           0       -0.206427   -0.225432   -0.034894
      4          6           0       -0.257456    1.273569   -0.287495
      5          8           0       -1.357742    1.895003    0.351974
      6          6           0        0.315034   -0.709306    1.291103
      7          6           0        1.147687   -0.926840    0.035617
      8          6           0        2.376496   -0.216007   -0.167145
      9          6           0        3.416290    0.362581   -0.344485
     10          1           0       -2.659617   -0.760443    0.721955
     11          1           0       -1.192277   -2.089087   -0.519145
     12          1           0       -1.341629   -0.837271   -1.763907
     13          1           0        0.646414    1.750387    0.100604
     14          1           0       -0.273565    1.450240   -1.376289
     15          1           0       -2.141887    1.401395    0.077291
     16          1           0        0.665385    0.036224    1.995231
     17          1           0       -0.124818   -1.591655    1.746263
     18          1           0        1.157278   -1.945145   -0.345883
     19          1           0        4.331782    0.877620   -0.499084
 ---------------------------------------------------------------------

 SCF Done:  E(RB3LYP) =  -423.127538884     A.U. after    1 cycles

 The electronic state is 1-A.
 Alpha  occ. eigenvalues --  -19.15946 -19.12044 -10.24493 -10.22453 -10.22446
 Alpha  occ. eigenvalues --  -10.21043 -10.20299 -10.18593 -10.17466  -1.03850
 Alpha  occ. eigenvalues --   -1.00321  -0.88699  -0.75343  -0.71693  -0.68067
 Alpha  occ. eigenvalues --   -0.64133  -0.57898  -0.53951  -0.52233  -0.50648
 Alpha  occ. eigenvalues --   -0.48481  -0.47303  -0.44256  -0.42164  -0.40567
 Alpha  occ. eigenvalues --   -0.39225  -0.36824  -0.35530  -0.33104  -0.31707
 Alpha  occ. eigenvalues --   -0.28492  -0.26476  -0.26061  -0.24816
 Alpha virt. eigenvalues --    0.03865   0.04197   0.06308   0.09737   0.10911
 Alpha virt. eigenvalues --    0.12344   0.13223   0.13585   0.14575   0.15453
 Alpha virt. eigenvalues --    0.17065   0.17254   0.18937   0.20104   0.21721

 Mulliken charges:
               1
     1  O   -0.415177
     2  C   -0.143389
     3  C    0.273300
     4  C   -0.131919
     5  O   -0.430673
     6  C   -0.325323
     7  C   -0.266900
     8  C    0.325621
     9  C   -0.442848
    10  H    0.292435
    11  H    0.094974
    12  H    0.123803
    13  H    0.115895
    14  H    0.087052
    15  H    0.283768
    16  H    0.137858
    17  H    0.111421
    18  H    0.112628
    19  H    0.197474
 Sum of Mulliken charges =   0.00000

 Dipole moment (field-independent basis, Debye):
    X=              0.2365    Y=             -2.1930    Z=              0.2488  Tot=              2.2197
 Quadrupole moment (field-independent basis, Debye-Ang):
   XX=            -53.4229   YY=            -55.3146   ZZ=            -52.1318
   XY=              5.1766   XZ=             -2.5542   YZ=             -2.4619

  Exact polarizability: 102.016   8.528  70.265  -5.004  -2.434  64.100
 Approx polarizability: 146.540  17.312 104.710 -10.357  -3.584  98.075

                      1                      2                      3
                      A                      A                      A
 Frequencies --     91.8018               114.9870               118.3314
 Red. masses --      4.3121                 4.0178                 3.2133
 Frc consts  --      0.0214                 0.0313                 0.0265
 IR Inten    --      1.8132                 1.7473                 1.8103

                      4                      5                      6
                      A                      A                      A
 Frequencies --    166.3643               230.9194               276.3047
 Red. masses --      3.1757                 4.9200                 3.2049
 Frc consts  --      0.0518                 0.1546                 0.1442
 IR Inten    --      1.1700                 2.6923                 2.2816

                      7                      8                      9
                      A                      A                      A
 Frequencies --    300.9736               320.5475               389.9107
 Red. masses --      1.4763                 2.6418                 1.7192
 Frc consts  --      0.0788                 0.1599                 0.1540
 IR Inten    --    103.1228                16.4457                40.6154

                     10                     11                     12
                      A                      A                      A
 Frequencies --    412.8129               440.0615               529.8024
 Red. masses --      6.3327                 3.2311                 3.5451
 Frc consts  --      0.6358                 0.3687                 0.5863
 IR Inten    --      8.3763                31.6870                 5.9030

                     13                     14                     15
                      A                      A                      A
 Frequencies --    589.4486               610.0981               634.0737
 Red. masses --      1.3263                 1.1013                 3.4375
 Frc consts  --      0.2715                 0.2415                 0.8143
 IR Inten    --     36.2997                79.1106                12.1115

                     16                     17                     18
                      A                      A                      A
 Frequencies --    653.7452               749.3567               835.7957
 Red. masses --      1.2526                 2.8201                 2.1691
 Frc consts  --      0.3154                 0.9330                 0.8928
 IR Inten    --     43.6077                 5.1857                 7.9039

                     19                     20                     21
                      A                      A                      A
 Frequencies --    923.7215               934.2122               937.6494
 Red. masses --      2.2936                 3.0183                 1.4761
 Frc consts  --      1.1531                 1.5520                 0.7646
 IR Inten    --     18.9012                 4.8925                 0.4227

                     22                     23                     24
                      A                      A                      A
 Frequencies --    973.9482               994.9006              1032.2514
 Red. masses --      1.8744                 1.7309                 4.1516
 Frc consts  --      1.0476                 1.0094                 2.6064
 IR Inten    --     11.7461                 1.0699                28.8955

                     25                     26                     27
                      A                      A                      A
 Frequencies --   1070.0793              1081.6167              1088.3210
 Red. masses --      1.6436                 2.8713                 2.0236
 Frc consts  --      1.1089                 1.9791                 1.4122
 IR Inten    --     25.1249                87.5847                70.0734

                     28                     29                     30
                      A                      A                      A
 Frequencies --   1136.3342              1197.5316              1203.6464
 Red. masses --      1.5508                 1.2035                 1.3388
 Frc consts  --      1.1799                 1.0169                 1.1428
 IR Inten    --      0.7701                33.5953                10.0981

                     31                     32                     33
                      A                      A                      A
 Frequencies --   1296.0007              1327.8933              1369.7687
 Red. masses --      1.5588                 2.0967                 1.2157
 Frc consts  --      1.5426                 2.1783                 1.3440
 IR Inten    --      5.8467                 4.9645                 0.6258

                     34                     35                     36
                      A                      A                      A
 Frequencies --   1395.1197              1411.0749              1421.7024
 Red. masses --      1.3556                 1.5101                 1.4716
 Frc consts  --      1.5546                 1.7716                 1.7525
 IR Inten    --      9.6243                10.4138                38.8502

                     37                     38                     39
                      A                      A                      A
 Frequencies --   1461.9594              1484.4426              1496.2032
 Red. masses --      1.2078                 1.3123                 1.0787
 Frc consts  --      1.5209                 1.7038                 1.4227
 IR Inten    --     76.3908                 3.7675                 2.9176

                     40                     41                     42
                      A                      A                      A
 Frequencies --   1513.4257              2236.3129              2961.9797
 Red. masses --      1.1099                 6.0203                 1.0720
 Frc consts  --      1.4979                17.7391                 5.5411
 IR Inten    --      1.4951                10.7354                56.6581

                     43                     44                     45
                      A                      A                      A
 Frequencies --   2992.1257              3074.7748              3093.9117
 Red. masses --      1.0684                 1.0955                 1.0904
 Frc consts  --      5.6358                 6.1020                 6.1495
 IR Inten    --     48.2381                25.4100                18.9117

                     46                     47                     48
                      A                      A                      A
 Frequencies --   3127.4023              3131.7353              3223.4520
 Red. masses --      1.0606                 1.0813                 1.1152
 Frc consts  --      6.1117                 6.2484                 6.8270
 IR Inten    --      8.0118                11.5170                 4.6082

                     49                     50                     51
                      A                      A                      A
 Frequencies --   3504.0900              3750.6418              3799.1010
 Red. masses --      1.1604                 1.0657                 1.0659
 Frc consts  --      8.3945                 8.8326                 9.0641
 IR Inten    --     81.7953                94.3587                20.9234

 - Thermochemistry -
 -------------------
 Temperature   298.150 Kelvin.  Pressure   1.00000 Atm.
 Atom     1 has atomic number  8 and mass  15.99491

 Molecular mass:   126.06808 amu.
 Principal axes and moments of inertia in atomic units:
                           1         2         3
     Eigenvalues --   636.561541669.519921988.69506
           X            0.99984   0.01766  -0.00062
           Y           -0.01766   0.99955  -0.02410
           Z            0.00019   0.02411   0.99971
 This molecule is an asymmetric top.
 Rotational symmetry number  1.
 Warning -- assumption of classical behavior for rotation
           may cause significant error
 Rotational temperatures (Kelvin)      0.13607     0.05188     0.04355
 Rotational constants (GHZ):           2.83514     1.08099     0.90750
 Zero-point vibrational energy     413385.5 (Joules/Mol)
                                   98.80151 (Kcal/Mol)
 Warning -- explicit consideration of  14 degrees of freedom as
           vibrations may cause significant error
 Vibrational temperatures:    132.08   165.44   170.25   239.36   332.24
          (Kelvin)            397.54   433.03   461.20   560.99   593.95
                              633.15   762.27   848.08   877.79   912.29
                              940.59  1078.16  1202.52  1329.03  1344.12
                             1349.07  1401.29  1431.44  1485.18  1539.60
                             1556.20  1565.85  1634.93  1722.98  1731.78
                             1864.65  1910.54  1970.79  2007.26  2030.22
                             2045.51  2103.43  2135.78  2152.70  2177.48
                             3217.55  4261.62  4305.00  4423.91  4451.44
                             4499.63  4505.86  4637.82  5041.60  5396.33
                             5466.05

 Zero-point correction=                           0.157450 (Hartree/Particle)
 Thermal correction to Energy=                    0.167146
 Thermal correction to Enthalpy=                  0.168090
 Thermal correction to Gibbs Free Energy=         0.123100
 Sum of electronic and zero-point Energies=           -422.970089
 Sum of electronic and thermal Energies=              -422.960393
 Sum of electronic and thermal Enthalpies=            -422.959449
 Sum of electronic and thermal Free Energies=         -423.004439

                     E (Thermal)             CV                S
                      KCal/Mol        Cal/Mol-Kelvin    Cal/Mol-Kelvin
 Total                  104.886             36.353             94.690
 Electronic               0.000              0.000              0.000
 Translational            0.889              2.981             40.409
 Rotational               0.889              2.981             29.137
 Vibrational            103.108             30.391             25.144
 Vibration     1          0.602              1.955              3.621
 Vibration     2          0.608              1.937              3.183
 Vibration     3          0.608              1.934              3.127
 Vibration     4          0.624              1.884              2.476
 Vibration     5          0.653              1.794              1.872
 Vibration     6          0.678              1.717              1.556
 Vibration     7          0.693              1.672              1.411
 Vibration     8          0.706              1.634              1.307
 Vibration     9          0.758              1.492              1.000
 Vibration    10          0.777              1.442              0.917
 Vibration    11          0.800              1.383              0.826
 Vibration    12          0.885              1.184              0.588
 Vibration    13          0.947              1.054              0.468
 Vibration    14          0.969              1.010              0.433

 Optimization completed.
    -- Stationary point found.
 Normal termination of Gaussian 09 at Tue Jan 28 09:42:11 2020.
