 Gaussian 09, Revision D.01,
 Gaussian 09:  ES64L-G09RevD.01 24-Apr-2013

 -----------------------------
 # b3lyp 6-31G(2df,p) opt Freq
 -----------------------------

 -----
 titel
 -----
 Symbolic Z-matrix:
 Charge =  0 Multiplicity = 1

 SCF Done:  E(RB3LYP) =  -423.093460860     A.U. after   14 cycles
 Optimization completed.
    -- Stationary point found.
 Normal termination of Gaussian 09 at Mon Jan 27 23:04:18 2020.

 ----------------------------------------------------------------------
 #N Geom=AllCheck Guess=TCheck SCRF=Check GenChk RB3LYP/6-31G(2df,p) Fr
 eq
 ----------------------------------------------------------------------

 Structure from the checkpoint file:  "/scratch/puck/g09_72e95b02-933d-45f9-b437-f6d1fe105892/Gau-29549.chk"
 -----
 titel
 -----
 Charge =  0 Multiplicity = 1

                         Standard orientation:
 ---------------------------------------------------------------------
 Center     Atomic      Atomic             Coordinates (Angstroms)
 Number     Number       Type             X           Y           Z
 ---------------------------------------------------------------------
      1          8           0       -1.753613    1.584052   -0.086529
      2          6           0       -1.738677    0.185074   -0.065307
      3          6           0       -0.802330   -0.619072    0.892653
      4          8           0       -0.920912   -1.736015   -0.075397
      5          6           0       -0.660538   -0.535629   -0.904633
      6          6           0        0.438038   -0.125427    0.112519
      7          6           0        1.802348   -0.844821    0.125013
      8          6           0        2.478881    0.517083   -0.206438
      9          6           0        1.154096    1.244446    0.159915
     10          1           0       -2.443345    1.888649    0.510810
     11          1           0       -2.731748   -0.266481   -0.166078
     12          1           0       -0.910614   -0.860121    1.951986
     13          1           0       -0.599251   -0.672831   -1.985361
     14          1           0        2.064112   -1.206451    1.124395
     15          1           0        1.936149   -1.666937   -0.580866
     16          1           0        3.366936    0.782365    0.371292
     17          1           0        2.719998    0.610620   -1.268815
     18          1           0        1.170987    1.658743    1.172702
     19          1           0        0.792073    2.018234   -0.516988
 ---------------------------------------------------------------------

 SCF Done:  E(RB3LYP) =  -423.093460859     A.U. after    1 cycles

 The electronic state is 1-A.
 Alpha  occ. eigenvalues --  -19.14951 -19.13394 -10.24110 -10.23986 -10.23654
 Alpha  occ. eigenvalues --  -10.19505 -10.17589 -10.17381 -10.17345  -1.06097
 Alpha  occ. eigenvalues --   -1.02630  -0.83560  -0.75723  -0.65966  -0.65209
 Alpha  occ. eigenvalues --   -0.64664  -0.57920  -0.53106  -0.51605  -0.50041
 Alpha  occ. eigenvalues --   -0.46432  -0.45116  -0.41865  -0.39040  -0.38389
 Alpha  occ. eigenvalues --   -0.37762  -0.35159  -0.33771  -0.32770  -0.30750
 Alpha  occ. eigenvalues --   -0.29465  -0.29188  -0.27393  -0.23453
 Alpha virt. eigenvalues --    0.05822   0.08919   0.10103   0.10567   0.13143
 Alpha virt. eigenvalues --    0.13610   0.14190   0.15066   0.16429   0.16750
 Alpha virt. eigenvalues --    0.18773   0.19119   0.19924   0.20685   0.21180

 Mulliken charges:
               1
     1  O   -0.427175
     2  C    0.126546
     3  C   -0.104085
     4  O   -0.314375
     5  C   -0.062059
     6  C    0.446183
     7  C   -0.301855
     8  C   -0.219689
     9  C   -0.310685
    10  H    0.291416
    11  H    0.085079
    12  H    0.082547
    13  H    0.090878
    14  H    0.099731
    15  H    0.107408
    16  H    0.095847
    17  H    0.101437
    18  H    0.098042
    19  H    0.114809
 Sum of Mulliken charges =   0.00000

 Dipole moment (field-independent basis, Debye):
    X=             -0.5808    Y=              1.3998    Z=              0.9471  Tot=              1.7871
 Quadrupole moment (field-independent basis, Debye-Ang):
   XX=            -48.9602   YY=            -58.3691   ZZ=            -49.3409
   XY=             -3.4669   XZ=             -2.5220   YZ=              1.7744

  Exact polarizability:  85.098  -0.351  72.687  -0.864   0.615  68.635
 Approx polarizability: 108.441  -0.100 112.006  -1.278   0.594 109.050

                      1                      2                      3
                      A                      A                      A
 Frequencies --     90.8576               178.2491               184.3008
 Red. masses --      1.9572                 4.6302                 2.7308
 Frc consts  --      0.0095                 0.0867                 0.0547
 IR Inten    --      0.2409                 0.9528                 0.6841

                      4                      5                      6
                      A                      A                      A
 Frequencies --    240.3599               306.5910               335.0617
 Red. masses --      1.0965                 4.8497                 2.1793
 Frc consts  --      0.0373                 0.2686                 0.1442
 IR Inten    --     95.5234                16.6911                 5.7075

                      7                      8                      9
                      A                      A                      A
 Frequencies --    387.9715               463.0374               603.7842
 Red. masses --      3.3157                 4.8282                 5.7611
 Frc consts  --      0.2941                 0.6099                 1.2374
 IR Inten    --      4.3959                 1.1013                 3.9124

                     10                     11                     12
                      A                      A                      A
 Frequencies --    648.3393               694.2139               743.5550
 Red. masses --      4.5263                 1.4767                 3.1572
 Frc consts  --      1.1210                 0.4193                 1.0284
 IR Inten    --      9.3604                 1.7970                11.9575

                     13                     14                     15
                      A                      A                      A
 Frequencies --    777.3294               822.1305               872.5598
 Red. masses --      1.3154                 2.5711                 2.6726
 Frc consts  --      0.4683                 1.0239                 1.1989
 IR Inten    --      0.3083                 8.1508                 4.5245

                     16                     17                     18
                      A                      A                      A
 Frequencies --    876.2658               896.5436               900.5853
 Red. masses --      2.5317                 2.6242                 2.4443
 Frc consts  --      1.1453                 1.2428                 1.1680
 IR Inten    --      2.2760                 4.2065                16.2126

                     19                     20                     21
                      A                      A                      A
 Frequencies --    937.8083               956.2506              1038.1630
 Red. masses --      2.5156                 2.7886                 1.1158
 Frc consts  --      1.3036                 1.5024                 0.7086
 IR Inten    --      0.6325                 0.1115                 1.2042

                     22                     23                     24
                      A                      A                      A
 Frequencies --   1072.7014              1090.1375              1122.7072
 Red. masses --      1.4605                 3.4929                 5.2125
 Frc consts  --      0.9901                 2.4457                 3.8711
 IR Inten    --      4.0829                 5.0929                32.7718

                     25                     26                     27
                      A                      A                      A
 Frequencies --   1126.8930              1138.0307              1162.2674
 Red. masses --      2.6326                 1.3372                 2.1516
 Frc consts  --      1.9697                 1.0204                 1.7125
 IR Inten    --     34.0941                 9.4184                 0.2865

                     28                     29                     30
                      A                      A                      A
 Frequencies --   1190.5400              1203.6090              1206.8531
 Red. masses --      1.8215                 1.6638                 1.4184
 Frc consts  --      1.5211                 1.4201                 1.2172
 IR Inten    --     73.1591                 2.9194                 8.0431

                     31                     32                     33
                      A                      A                      A
 Frequencies --   1236.9851              1252.6596              1253.9990
 Red. masses --      1.3657                 1.3525                 1.3077
 Frc consts  --      1.2312                 1.2504                 1.2115
 IR Inten    --     35.3548                 4.2314                 8.3716

                     34                     35                     36
                      A                      A                      A
 Frequencies --   1274.3163              1280.4969              1294.7157
 Red. masses --      1.4395                 1.4846                 1.4197
 Frc consts  --      1.3772                 1.4342                 1.4021
 IR Inten    --      2.6214                15.9240                15.1170

                     37                     38                     39
                      A                      A                      A
 Frequencies --   1345.0215              1427.1877              1472.0063
 Red. masses --      3.0053                 1.5819                 1.0881
 Frc consts  --      3.2033                 1.8984                 1.3891
 IR Inten    --      4.0024                10.3270                 2.0216

                     40                     41                     42
                      A                      A                      A
 Frequencies --   1481.6638              1503.8430              3052.7935
 Red. masses --      1.0829                 1.1370                 1.0801
 Frc consts  --      1.4006                 1.5150                 5.9305
 IR Inten    --      1.2954                 0.1039                50.1108

                     43                     44                     45
                      A                      A                      A
 Frequencies --   3054.4762              3059.6641              3061.9780
 Red. masses --      1.0662                 1.0614                 1.0657
 Frc consts  --      5.8608                 5.8542                 5.8871
 IR Inten    --     40.9802                28.0695                29.5101

                     46                     47                     48
                      A                      A                      A
 Frequencies --   3099.2460              3103.3341              3110.4308
 Red. masses --      1.0908                 1.1034                 1.0949
 Frc consts  --      6.1731                 6.2608                 6.2410
 IR Inten    --     74.1608                 8.9717                15.8455

                     49                     50                     51
                      A                      A                      A
 Frequencies --   3117.5400              3132.4025              3826.8484
 Red. masses --      1.1048                 1.1023                 1.0663
 Frc consts  --      6.3263                 6.3724                 9.2009
 IR Inten    --     34.4834                29.8870                35.2002

 - Thermochemistry -
 -------------------
 Temperature   298.150 Kelvin.  Pressure   1.00000 Atm.
 Atom     1 has atomic number  8 and mass  15.99491

 Molecular mass:   126.06808 amu.
 Principal axes and moments of inertia in atomic units:
                           1         2         3
     Eigenvalues --   636.462361144.180391538.37303
           X            0.99998  -0.00337  -0.00550
           Y            0.00340   0.99997   0.00637
           Z            0.00548  -0.00639   0.99996
 This molecule is an asymmetric top.
 Rotational symmetry number  1.
 Warning -- assumption of classical behavior for rotation
           may cause significant error
 Rotational temperatures (Kelvin)      0.13609     0.07570     0.05630
 Rotational constants (GHZ):           2.83558     1.57732     1.17315
 Zero-point vibrational energy     416954.2 (Joules/Mol)
                                   99.65445 (Kcal/Mol)
 Warning -- explicit consideration of   9 degrees of freedom as
           vibrations may cause significant error
 Vibrational temperatures:    130.72   256.46   265.17   345.82   441.12
          (Kelvin)            482.08   558.20   666.21   868.71   932.81
                              998.82  1069.81  1118.40  1182.86  1255.42
                             1260.75  1289.92  1295.74  1349.30  1375.83
                             1493.68  1543.38  1568.46  1615.32  1621.35
                             1637.37  1672.24  1712.92  1731.72  1736.39
                             1779.74  1802.30  1804.22  1833.45  1842.35
                             1862.80  1935.18  2053.40  2117.89  2131.78
                             2163.69  4392.28  4394.70  4402.17  4405.50
                             4459.12  4465.00  4475.21  4485.44  4506.82
                             5505.97

 Zero-point correction=                           0.158809 (Hartree/Particle)
 Thermal correction to Energy=                    0.166751
 Thermal correction to Enthalpy=                  0.167695
 Thermal correction to Gibbs Free Energy=         0.126446
 Sum of electronic and zero-point Energies=           -422.934651
 Sum of electronic and thermal Energies=              -422.926710
 Sum of electronic and thermal Enthalpies=            -422.925766
 Sum of electronic and thermal Free Energies=         -422.967014

                     E (Thermal)             CV                S
                      KCal/Mol        Cal/Mol-Kelvin    Cal/Mol-Kelvin
 Total                  104.638             31.323             86.815
 Electronic               0.000              0.000              0.000
 Translational            0.889              2.981             40.409
 Rotational               0.889              2.981             28.506
 Vibrational            102.860             25.361             17.900
 Vibration     1          0.602              1.956              3.642
 Vibration     2          0.629              1.869              2.347
 Vibration     3          0.631              1.861              2.284
 Vibration     4          0.657              1.779              1.800
 Vibration     5          0.697              1.661              1.381
 Vibration     6          0.716              1.605              1.236
 Vibration     7          0.756              1.496              1.008
 Vibration     8          0.821              1.332              0.757
 Vibration     9          0.962              1.024              0.443

 Optimization completed.
    -- Stationary point found.
 Normal termination of Gaussian 09 at Mon Jan 27 23:52:08 2020.
