 Gaussian 09, Revision D.01,
 Gaussian 09:  ES64L-G09RevD.01 24-Apr-2013

 -----------------------------
 # b3lyp 6-31G(2df,p) opt Freq
 -----------------------------

 -----
 titel
 -----
 Symbolic Z-matrix:
 Charge =  0 Multiplicity = 1

 SCF Done:  E(RB3LYP) =  -423.206682036     A.U. after   14 cycles
 Optimization completed.
    -- Stationary point found.
 Normal termination of Gaussian 09 at Tue Jan 28 00:44:49 2020.

 ----------------------------------------------------------------------
 #N Geom=AllCheck Guess=TCheck SCRF=Check GenChk RB3LYP/6-31G(2df,p) Fr
 eq
 ----------------------------------------------------------------------

 Structure from the checkpoint file:  "/scratch/puck/g09_584bd9c8-dccf-40a3-96f5-cdf1c361acc9/Gau-81648.chk"
 -----
 titel
 -----
 Charge =  0 Multiplicity = 1

                         Standard orientation:
 ---------------------------------------------------------------------
 Center     Atomic      Atomic             Coordinates (Angstroms)
 Number     Number       Type             X           Y           Z
 ---------------------------------------------------------------------
      1          6           0       -2.205258   -1.444243   -0.258537
      2          6           0       -1.084556   -0.668123    0.433515
      3          8           0        0.185617   -1.249846    0.100651
      4          6           0        1.049614   -0.280223   -0.473498
      5          6           0        2.282381   -0.093591    0.413302
      6          8           0        3.347822    0.294816    0.015244
      7          6           0        0.238391    0.988708   -0.514088
      8          6           0       -0.964598    0.782462    0.017263
      9          6           0       -2.077248    1.762217    0.205641
     10          1           0       -2.123401   -1.352315   -1.345741
     11          1           0       -2.139964   -2.502849    0.006610
     12          1           0       -3.187096   -1.074254    0.054259
     13          1           0       -1.227471   -0.744912    1.524264
     14          1           0        1.393737   -0.603738   -1.466777
     15          1           0        2.087028   -0.331293    1.483895
     16          1           0        0.630195    1.917730   -0.907715
     17          1           0       -2.372222    1.822658    1.260778
     18          1           0       -1.788841    2.762706   -0.125107
     19          1           0       -2.971830    1.463270   -0.353219
 ---------------------------------------------------------------------

 SCF Done:  E(RB3LYP) =  -423.206682036     A.U. after    1 cycles

 The electronic state is 1-A.
 Alpha  occ. eigenvalues --  -19.14642 -19.14074 -10.26758 -10.24404 -10.24277
 Alpha  occ. eigenvalues --  -10.20407 -10.19832 -10.19324 -10.18263  -1.05272
 Alpha  occ. eigenvalues --   -1.04086  -0.81869  -0.78226  -0.72208  -0.68757
 Alpha  occ. eigenvalues --   -0.61695  -0.56922  -0.55794  -0.49983  -0.48186
 Alpha  occ. eigenvalues --   -0.46349  -0.44470  -0.43398  -0.42691  -0.41099
 Alpha  occ. eigenvalues --   -0.40037  -0.39429  -0.38475  -0.37046  -0.34876
 Alpha  occ. eigenvalues --   -0.32365  -0.28184  -0.27275  -0.23057
 Alpha virt. eigenvalues --   -0.02967   0.01993   0.08362   0.10978   0.12069
 Alpha virt. eigenvalues --    0.12694   0.14002   0.14332   0.15514   0.16184
 Alpha virt. eigenvalues --    0.16930   0.17489   0.18500   0.20693   0.22187

 Mulliken charges:
               1
     1  C   -0.395215
     2  C    0.044371
     3  O   -0.289593
     4  C   -0.002950
     5  C    0.137702
     6  O   -0.242820
     7  C   -0.231767
     8  C    0.310713
     9  C   -0.497471
    10  H    0.122273
    11  H    0.131473
    12  H    0.114931
    13  H    0.084765
    14  H    0.107920
    15  H    0.083335
    16  H    0.117508
    17  H    0.133996
    18  H    0.133590
    19  H    0.137238
 Sum of Mulliken charges =   0.00000

 Dipole moment (field-independent basis, Debye):
    X=             -3.5434    Y=              0.8696    Z=              0.2797  Tot=              3.6592
 Quadrupole moment (field-independent basis, Debye-Ang):
   XX=            -61.3849   YY=            -52.9346   ZZ=            -51.7863
   XY=             -1.9187   XZ=             -0.3758   YZ=             -0.2729

  Exact polarizability: 104.244   1.749  71.078  -7.489  -2.598  64.041
 Approx polarizability: 148.374   5.589 100.273 -19.084  -6.135 100.188

                      1                      2                      3
                      A                      A                      A
 Frequencies --     64.6703                72.3661               131.2540
 Red. masses --      5.1345                 4.2868                 2.0573
 Frc consts  --      0.0127                 0.0132                 0.0209
 IR Inten    --      3.7549                 3.9738                 1.1493

                      4                      5                      6
                      A                      A                      A
 Frequencies --    172.9344               219.7113               244.4026
 Red. masses --      1.1598                 1.5578                 1.4093
 Frc consts  --      0.0204                 0.0443                 0.0496
 IR Inten    --      0.8329                 0.4430                 0.2939

                      7                      8                      9
                      A                      A                      A
 Frequencies --    258.5133               315.5173               368.8640
 Red. masses --      2.8375                 2.8708                 3.4931
 Frc consts  --      0.1117                 0.1684                 0.2800
 IR Inten    --      5.6606                 4.2503                 1.7871

                     10                     11                     12
                      A                      A                      A
 Frequencies --    432.2563               483.3450               570.2763
 Red. masses --      3.2040                 4.6176                 3.2644
 Frc consts  --      0.3527                 0.6356                 0.6255
 IR Inten    --     24.0740                 0.8061                 3.6215

                     13                     14                     15
                      A                      A                      A
 Frequencies --    609.9213               789.0117               798.2379
 Red. masses --      3.6980                 3.4559                 3.6056
 Frc consts  --      0.8105                 1.2676                 1.3536
 IR Inten    --      1.0208                 4.5000                 5.4358

                     16                     17                     18
                      A                      A                      A
 Frequencies --    842.4358               888.3186               917.5475
 Red. masses --      1.2333                 2.4580                 2.3132
 Frc consts  --      0.5157                 1.1428                 1.1474
 IR Inten    --     18.2858                13.4898                 1.9609

                     19                     20                     21
                      A                      A                      A
 Frequencies --   1006.5849              1022.7618              1033.4740
 Red. masses --      1.5620                 2.0241                 1.4548
 Frc consts  --      0.9325                 1.2475                 0.9155
 IR Inten    --      6.7457                 2.3244                 3.1430

                     22                     23                     24
                      A                      A                      A
 Frequencies --   1061.6825              1066.3782              1093.6550
 Red. masses --      3.1700                 2.4317                 1.6995
 Frc consts  --      2.1052                 1.6293                 1.1977
 IR Inten    --     14.3917                16.3136                 9.6621

                     25                     26                     27
                      A                      A                      A
 Frequencies --   1115.6326              1120.6401              1205.6743
 Red. masses --      5.0949                 2.2268                 2.0477
 Frc consts  --      3.7362                 1.6477                 1.7538
 IR Inten    --    105.8034                 9.3000                 3.2216

                     28                     29                     30
                      A                      A                      A
 Frequencies --   1258.5590              1289.0279              1303.8867
 Red. masses --      1.3477                 1.4192                 1.5627
 Frc consts  --      1.2577                 1.3894                 1.5654
 IR Inten    --      4.5798                 3.6268                15.3892

                     31                     32                     33
                      A                      A                      A
 Frequencies --   1359.3956              1372.2111              1390.9850
 Red. masses --      1.9163                 1.2760                 1.2301
 Frc consts  --      2.0865                 1.4156                 1.4023
 IR Inten    --      5.3402                 9.7615                 3.9637

                     34                     35                     36
                      A                      A                      A
 Frequencies --   1400.0131              1414.9461              1478.1172
 Red. masses --      1.2601                 1.2742                 1.0472
 Frc consts  --      1.4552                 1.5030                 1.3480
 IR Inten    --      6.6857                 1.6398                 9.9977

                     37                     38                     39
                      A                      A                      A
 Frequencies --   1484.8168              1490.8733              1494.9252
 Red. masses --      1.0505                 1.0666                 1.0483
 Frc consts  --      1.3646                 1.3968                 1.3803
 IR Inten    --      6.6391                 0.6390                 2.0510

                     40                     41                     42
                      A                      A                      A
 Frequencies --   1721.9803              1835.6452              2879.3897
 Red. masses --      7.5448                10.8079                 1.0844
 Frc consts  --     13.1811                21.4570                 5.2970
 IR Inten    --      5.8173               205.3511                81.3018

                     43                     44                     45
                      A                      A                      A
 Frequencies --   2961.3730              3001.6588              3024.7800
 Red. masses --      1.0825                 1.0835                 1.0385
 Frc consts  --      5.5931                 5.7520                 5.5983
 IR Inten    --     51.7260                38.5926                22.5850

                     46                     47                     48
                      A                      A                      A
 Frequencies --   3039.1081              3073.5070              3112.9021
 Red. masses --      1.0347                 1.0979                 1.1013
 Frc consts  --      5.6307                 6.1108                 6.2873
 IR Inten    --     15.8083                15.3874                22.0477

                     49                     50                     51
                      A                      A                      A
 Frequencies --   3121.0439              3122.9923              3220.3833
 Red. masses --      1.0993                 1.1025                 1.0956
 Frc consts  --      6.3093                 6.3354                 6.6947
 IR Inten    --     17.3289                15.4834                 3.8807

 - Thermochemistry -
 -------------------
 Temperature   298.150 Kelvin.  Pressure   1.00000 Atm.
 Atom     1 has atomic number  6 and mass  12.00000

 Molecular mass:   126.06808 amu.
 Principal axes and moments of inertia in atomic units:
                           1         2         3
     Eigenvalues --   586.256501638.499502062.11398
           X            0.99999  -0.00502  -0.00110
           Y            0.00503   0.99997   0.00586
           Z            0.00107  -0.00587   0.99998
 This molecule is an asymmetric top.
 Rotational symmetry number  1.
 Warning -- assumption of classical behavior for rotation
           may cause significant error
 Rotational temperatures (Kelvin)      0.14774     0.05286     0.04200
 Rotational constants (GHZ):           3.07842     1.10146     0.87519
 Zero-point vibrational energy     411267.7 (Joules/Mol)
                                   98.29533 (Kcal/Mol)
 Warning -- explicit consideration of  13 degrees of freedom as
           vibrations may cause significant error
 Vibrational temperatures:     93.05   104.12   188.84   248.81   316.12
          (Kelvin)            351.64   371.94   453.96   530.71   621.92
                              695.42   820.50   877.54  1135.21  1148.48
                             1212.08  1278.09  1320.14  1448.25  1471.52
                             1486.94  1527.52  1534.28  1573.52  1605.14
                             1612.35  1734.69  1810.78  1854.62  1876.00
                             1955.86  1974.30  2001.31  2014.30  2035.79
                             2126.68  2136.32  2145.03  2150.86  2477.54
                             2641.08  4142.79  4260.75  4318.71  4351.98
                             4372.59  4422.09  4478.77  4490.48  4493.28
                             4633.41

 Zero-point correction=                           0.156644 (Hartree/Particle)
 Thermal correction to Energy=                    0.166121
 Thermal correction to Enthalpy=                  0.167065
 Thermal correction to Gibbs Free Energy=         0.121804
 Sum of electronic and zero-point Energies=           -423.050038
 Sum of electronic and thermal Energies=              -423.040561
 Sum of electronic and thermal Enthalpies=            -423.039617
 Sum of electronic and thermal Free Energies=         -423.084878

                     E (Thermal)             CV                S
                      KCal/Mol        Cal/Mol-Kelvin    Cal/Mol-Kelvin
 Total                  104.243             34.001             95.260
 Electronic               0.000              0.000              0.000
 Translational            0.889              2.981             40.409
 Rotational               0.889              2.981             29.073
 Vibrational            102.465             28.039             25.779
 Vibration     1          0.597              1.971              4.309
 Vibration     2          0.598              1.967              4.088
 Vibration     3          0.612              1.922              2.928
 Vibration     4          0.626              1.876              2.403
 Vibration     5          0.647              1.811              1.961
 Vibration     6          0.660              1.772              1.771
 Vibration     7          0.667              1.748              1.672
 Vibration     8          0.703              1.644              1.333
 Vibration     9          0.741              1.536              1.085
 Vibration    10          0.793              1.400              0.851
 Vibration    11          0.840              1.287              0.701
 Vibration    12          0.926              1.096              0.504
 Vibration    13          0.969              1.011              0.433

 Optimization completed.
    -- Stationary point found.
 Normal termination of Gaussian 09 at Tue Jan 28 01:24:58 2020.
