 Gaussian 09, Revision D.01,
 Gaussian 09:  ES64L-G09RevD.01 24-Apr-2013

 -----------------------------
 # b3lyp 6-31G(2df,p) opt Freq
 -----------------------------

 -----
 titel
 -----
 Symbolic Z-matrix:
 Charge =  0 Multiplicity = 1

 SCF Done:  E(RB3LYP) =  -423.185795278     A.U. after   13 cycles
 Optimization completed.
    -- Stationary point found.
 Normal termination of Gaussian 09 at Tue Jan 28 02:55:56 2020.

 ----------------------------------------------------------------------
 #N Geom=AllCheck Guess=TCheck SCRF=Check GenChk RB3LYP/6-31G(2df,p) Fr
 eq
 ----------------------------------------------------------------------

 Structure from the checkpoint file:  "/scratch/puck/g09_f5456c01-9a74-4649-bec7-1233a84a6fcb/Gau-65406.chk"
 -----
 titel
 -----
 Charge =  0 Multiplicity = 1

                         Standard orientation:
 ---------------------------------------------------------------------
 Center     Atomic      Atomic             Coordinates (Angstroms)
 Number     Number       Type             X           Y           Z
 ---------------------------------------------------------------------
      1          6           0        2.510190   -0.087291    0.286119
      2          6           0        1.226325    0.088280   -0.528000
      3          6           0        0.515168    1.447499   -0.242924
      4          6           0       -0.942681    1.246978    0.144521
      5          6           0       -1.286808    0.039525    0.996005
      6          8           0       -0.265510   -0.932485    1.086392
      7          6           0        0.225614   -1.038685   -0.246124
      8          8           0       -0.903250   -0.891052   -1.099904
      9          6           0       -1.699695    0.070476   -0.444632
     10          1           0        2.285507   -0.087965    1.357142
     11          1           0        3.011235   -1.031558    0.044601
     12          1           0        3.214854    0.725374    0.083739
     13          1           0        1.465767    0.019990   -1.595126
     14          1           0        1.029912    1.970178    0.571612
     15          1           0        0.577826    2.100865   -1.119134
     16          1           0       -1.524956    2.144979    0.329724
     17          1           0       -1.937974    0.058398    1.859519
     18          1           0        0.649331   -2.036616   -0.386879
     19          1           0       -2.710102    0.123961   -0.826890
 ---------------------------------------------------------------------

 SCF Done:  E(RB3LYP) =  -423.185795278     A.U. after    1 cycles

 The electronic state is 1-A.
 Alpha  occ. eigenvalues --  -19.14983 -19.14872 -10.27385 -10.23352 -10.23298
 Alpha  occ. eigenvalues --  -10.19239 -10.18861 -10.18747 -10.17390  -1.09709
 Alpha  occ. eigenvalues --   -0.99617  -0.84598  -0.80290  -0.69775  -0.66523
 Alpha  occ. eigenvalues --   -0.61145  -0.60220  -0.54659  -0.52719  -0.48249
 Alpha  occ. eigenvalues --   -0.45672  -0.44002  -0.43130  -0.42598  -0.39549
 Alpha  occ. eigenvalues --   -0.39181  -0.37857  -0.37018  -0.34846  -0.32582
 Alpha  occ. eigenvalues --   -0.32001  -0.31572  -0.24919  -0.22339
 Alpha virt. eigenvalues --    0.08317   0.10635   0.12233   0.12561   0.12875
 Alpha virt. eigenvalues --    0.14014   0.15163   0.15741   0.16588   0.16844
 Alpha virt. eigenvalues --    0.17588   0.18271   0.19883   0.21007   0.22339

 Mulliken charges:
               1
     1  C   -0.412413
     2  C    0.025537
     3  C   -0.247997
     4  C   -0.127518
     5  C    0.043813
     6  O   -0.265086
     7  C    0.158538
     8  O   -0.265089
     9  C    0.043148
    10  H    0.131845
    11  H    0.110889
    12  H    0.114157
    13  H    0.081341
    14  H    0.105016
    15  H    0.107821
    16  H    0.088721
    17  H    0.108075
    18  H    0.090583
    19  H    0.108619
 Sum of Mulliken charges =   0.00000

 Dipole moment (field-independent basis, Debye):
    X=              0.0173    Y=              1.4966    Z=              0.0303  Tot=              1.4970
 Quadrupole moment (field-independent basis, Debye-Ang):
   XX=            -49.2827   YY=            -52.9710   ZZ=            -55.5753
   XY=             -2.5895   XZ=             -2.3013   YZ=              0.5693

  Exact polarizability:  81.261  -3.281  71.455  -1.434   0.755  64.409
 Approx polarizability: 106.157  -3.986 106.896   0.044   1.385 104.827

                      1                      2                      3
                      A                      A                      A
 Frequencies --     90.6835               235.3135               258.0868
 Red. masses --      2.5416                 1.3889                 1.7774
 Frc consts  --      0.0123                 0.0453                 0.0698
 IR Inten    --      0.1389                 0.4020                 0.2933

                      4                      5                      6
                      A                      A                      A
 Frequencies --    331.9570               393.7665               457.4231
 Red. masses --      2.4241                 5.1308                 3.6614
 Frc consts  --      0.1574                 0.4687                 0.4514
 IR Inten    --      0.9898                 7.2406                 5.9349

                      7                      8                      9
                      A                      A                      A
 Frequencies --    509.2737               599.3155               705.4947
 Red. masses --      3.8629                 3.9481                 6.8623
 Frc consts  --      0.5903                 0.8355                 2.0124
 IR Inten    --      2.5459                 0.5153                 0.7915

                     10                     11                     12
                      A                      A                      A
 Frequencies --    725.4915               757.5900               784.0990
 Red. masses --      5.7488                 2.2889                 2.0580
 Frc consts  --      1.7828                 0.7740                 0.7455
 IR Inten    --     11.5056                14.7642                17.8634

                     13                     14                     15
                      A                      A                      A
 Frequencies --    785.1200               860.7467               906.4962
 Red. masses --      3.0296                 2.1183                 2.7999
 Frc consts  --      1.1003                 0.9247                 1.3556
 IR Inten    --      2.6570                 4.1879                38.6357

                     16                     17                     18
                      A                      A                      A
 Frequencies --    915.6148               941.4236               956.3681
 Red. masses --      1.6951                 3.0451                 1.9771
 Frc consts  --      0.8373                 1.5901                 1.0655
 IR Inten    --      9.7265                24.6133                 5.9932

                     19                     20                     21
                      A                      A                      A
 Frequencies --   1019.4767              1031.8467              1037.5263
 Red. masses --      1.9020                 2.3048                 2.7441
 Frc consts  --      1.1647                 1.4458                 1.7404
 IR Inten    --     10.3567                 8.1529                 2.9606

                     22                     23                     24
                      A                      A                      A
 Frequencies --   1073.5200              1074.7738              1113.4294
 Red. masses --      1.9610                 1.4358                 1.9796
 Frc consts  --      1.3315                 0.9772                 1.4460
 IR Inten    --     51.8212                 4.5223                 8.6030

                     25                     26                     27
                      A                      A                      A
 Frequencies --   1116.8044              1139.2175              1151.5847
 Red. masses --      2.1164                 2.4887                 2.1074
 Frc consts  --      1.5552                 1.9030                 1.6466
 IR Inten    --      2.5813                 1.8718                43.3116

                     28                     29                     30
                      A                      A                      A
 Frequencies --   1179.7972              1256.4101              1271.8718
 Red. masses --      2.0303                 1.3093                 1.1893
 Frc consts  --      1.6650                 1.2177                 1.1335
 IR Inten    --     63.7004                 1.3470                 0.3482

                     31                     32                     33
                      A                      A                      A
 Frequencies --   1295.3002              1313.1381              1330.0129
 Red. masses --      1.6256                 1.3265                 1.3049
 Frc consts  --      1.6069                 1.3477                 1.3600
 IR Inten    --      0.3137                 4.2545                 5.4634

                     34                     35                     36
                      A                      A                      A
 Frequencies --   1347.5807              1380.3954              1386.3954
 Red. masses --      1.6673                 1.5605                 1.4690
 Frc consts  --      1.7840                 1.7519                 1.6636
 IR Inten    --      8.7619                 7.0885                 7.6702

                     37                     38                     39
                      A                      A                      A
 Frequencies --   1406.2227              1424.7480              1494.0709
 Red. masses --      1.2914                 2.1884                 1.0908
 Frc consts  --      1.5046                 2.6173                 1.4346
 IR Inten    --      6.5706                 9.2228                 3.2657

                     40                     41                     42
                      A                      A                      A
 Frequencies --   1495.0183              1503.7023              3029.7834
 Red. masses --      1.0444                 1.0567                 1.0411
 Frc consts  --      1.3753                 1.4078                 5.6305
 IR Inten    --      4.1583                 4.3019                19.2538

                     43                     44                     45
                      A                      A                      A
 Frequencies --   3032.0357              3038.9524              3072.1985
 Red. masses --      1.0573                 1.0836                 1.1014
 Frc consts  --      5.7270                 5.8963                 6.1250
 IR Inten    --     37.4388                10.5164                28.8062

                     46                     47                     48
                      A                      A                      A
 Frequencies --   3084.5481              3096.9824              3113.0283
 Red. masses --      1.0906                 1.1003                 1.1015
 Frc consts  --      6.1136                 6.2177                 6.2896
 IR Inten    --     35.0988                37.1914                24.8233

                     49                     50                     51
                      A                      A                      A
 Frequencies --   3150.5671              3202.2258              3211.6170
 Red. masses --      1.0887                 1.0902                 1.0974
 Frc consts  --      6.3668                 6.5866                 6.6689
 IR Inten    --     13.8627                 8.4365                20.0931

 - Thermochemistry -
 -------------------
 Temperature   298.150 Kelvin.  Pressure   1.00000 Atm.
 Atom     1 has atomic number  6 and mass  12.00000

 Molecular mass:   126.06808 amu.
 Principal axes and moments of inertia in atomic units:
                           1         2         3
     Eigenvalues --   611.421571028.183131147.03943
           X            0.99974  -0.02165  -0.00663
           Y            0.02168   0.99975   0.00495
           Z            0.00652  -0.00510   0.99997
 This molecule is an asymmetric top.
 Rotational symmetry number  1.
 Warning -- assumption of classical behavior for rotation
           may cause significant error
 Rotational temperatures (Kelvin)      0.14166     0.08424     0.07551
 Rotational constants (GHZ):           2.95171     1.75527     1.57339
 Zero-point vibrational energy     425206.9 (Joules/Mol)
                                  101.62689 (Kcal/Mol)
 Warning -- explicit consideration of   8 degrees of freedom as
           vibrations may cause significant error
 Vibrational temperatures:    130.47   338.56   371.33   477.61   566.54
          (Kelvin)            658.13   732.73   862.28  1015.05  1043.82
                             1090.00  1128.14  1129.61  1238.42  1304.24
                             1317.36  1354.50  1376.00  1466.80  1484.60
                             1492.77  1544.55  1546.36  1601.97  1606.83
                             1639.08  1656.87  1697.46  1807.69  1829.94
                             1863.65  1889.31  1913.59  1938.87  1986.08
                             1994.71  2023.24  2049.89  2149.63  2151.00
                             2163.49  4359.18  4362.42  4372.37  4420.20
                             4437.97  4455.86  4478.95  4532.96  4607.28
                             4620.79

 Zero-point correction=                           0.161953 (Hartree/Particle)
 Thermal correction to Energy=                    0.168952
 Thermal correction to Enthalpy=                  0.169896
 Thermal correction to Gibbs Free Energy=         0.130660
 Sum of electronic and zero-point Energies=           -423.023843
 Sum of electronic and thermal Energies=              -423.016843
 Sum of electronic and thermal Enthalpies=            -423.015899
 Sum of electronic and thermal Free Energies=         -423.055135

                     E (Thermal)             CV                S
                      KCal/Mol        Cal/Mol-Kelvin    Cal/Mol-Kelvin
 Total                  106.019             28.653             82.579
 Electronic               0.000              0.000              0.000
 Translational            0.889              2.981             40.409
 Rotational               0.889              2.981             28.069
 Vibrational            104.242             22.691             14.102
 Vibration     1          0.602              1.956              3.645
 Vibration     2          0.655              1.787              1.838
 Vibration     3          0.667              1.749              1.675
 Vibration     4          0.714              1.612              1.251
 Vibration     5          0.761              1.484              0.986
 Vibration     6          0.816              1.344              0.774
 Vibration     7          0.864              1.229              0.635
 Vibration     8          0.957              1.033              0.451

 Normal termination of Gaussian 09 at Tue Jan 28 03:57:06 2020.
