 Gaussian 09, Revision D.01,
 Gaussian 09:  ES64L-G09RevD.01 24-Apr-2013

 -----------------------------
 # b3lyp 6-31G(2df,p) opt Freq
 -----------------------------

 -----
 titel
 -----
 Symbolic Z-matrix:
 Charge =  0 Multiplicity = 1

 SCF Done:  E(RB3LYP) =  -423.127209810     A.U. after   14 cycles
 Optimization completed.
    -- Stationary point found.
 Normal termination of Gaussian 09 at Tue Jan 28 04:02:40 2020.

 ----------------------------------------------------------------------
 #N Geom=AllCheck Guess=TCheck SCRF=Check GenChk RB3LYP/6-31G(2df,p) Fr
 eq
 ----------------------------------------------------------------------

 Structure from the checkpoint file:  "/scratch/puck/g09_dd2171e4-be85-4cd1-a2d2-b7b7513a02fb/Gau-91222.chk"
 -----
 titel
 -----
 Charge =  0 Multiplicity = 1

                         Standard orientation:
 ---------------------------------------------------------------------
 Center     Atomic      Atomic             Coordinates (Angstroms)
 Number     Number       Type             X           Y           Z
 ---------------------------------------------------------------------
      1          8           0       -2.208683   -1.310733   -0.117383
      2          6           0       -1.588396   -0.197520    0.468628
      3          6           0       -1.778611    1.195727   -0.181182
      4          8           0       -0.350309    1.377912   -0.307936
      5          6           0       -0.104505    0.055138    0.188127
      6          6           0        1.064623   -0.347468    1.004083
      7          6           0        2.325217    0.370075    0.502302
      8          6           0        2.085411   -0.212084   -0.928840
      9          6           0        0.829337   -0.932060   -0.421976
     10          1           0       -1.952397   -1.337707   -1.046237
     11          1           0       -1.846408   -0.235024    1.529432
     12          1           0       -2.282273    1.157751   -1.156604
     13          1           0       -2.238251    1.974622    0.436205
     14          1           0        0.947418   -0.819981    1.973946
     15          1           0        2.312939    1.459160    0.597074
     16          1           0        3.239647   -0.015890    0.956796
     17          1           0        1.916558    0.514144   -1.728676
     18          1           0        2.875469   -0.900532   -1.234400
     19          1           0        0.500793   -1.924825   -0.711837
 ---------------------------------------------------------------------

 SCF Done:  E(RB3LYP) =  -423.127209810     A.U. after    1 cycles

 The electronic state is 1-A.
 Alpha  occ. eigenvalues --  -19.14818 -19.13629 -10.24173 -10.23515 -10.23021
 Alpha  occ. eigenvalues --  -10.19143 -10.19063 -10.18399 -10.18347  -1.05168
 Alpha  occ. eigenvalues --   -1.02133  -0.88851  -0.73811  -0.71314  -0.65527
 Alpha  occ. eigenvalues --   -0.63622  -0.56339  -0.53697  -0.52583  -0.48400
 Alpha  occ. eigenvalues --   -0.48020  -0.45422  -0.42910  -0.40894  -0.39712
 Alpha  occ. eigenvalues --   -0.38933  -0.37979  -0.34571  -0.32723  -0.32132
 Alpha  occ. eigenvalues --   -0.29996  -0.28107  -0.25467  -0.23295
 Alpha virt. eigenvalues --    0.06956   0.07709   0.09196   0.10822   0.12586
 Alpha virt. eigenvalues --    0.13291   0.14004   0.14949   0.16590   0.16678
 Alpha virt. eigenvalues --    0.17158   0.18801   0.19551   0.20432   0.24053

 Mulliken charges:
               1
     1  O   -0.422152
     2  C   -0.016499
     3  C   -0.111800
     4  O   -0.318605
     5  C    0.436634
     6  C   -0.151785
     7  C   -0.232526
     8  C   -0.232362
     9  C   -0.152253
    10  H    0.283984
    11  H    0.105751
    12  H    0.096155
    13  H    0.110300
    14  H    0.085906
    15  H    0.112890
    16  H    0.104021
    17  H    0.110391
    18  H    0.104095
    19  H    0.087853
 Sum of Mulliken charges =   0.00000

 Dipole moment (field-independent basis, Debye):
    X=              0.1665    Y=             -0.4334    Z=             -0.2520  Tot=              0.5282
 Quadrupole moment (field-independent basis, Debye-Ang):
   XX=            -52.7780   YY=            -56.0923   ZZ=            -50.0738
   XY=             -3.9740   XZ=              1.5911   YZ=              2.2481

  Exact polarizability:  88.003  -3.538  69.064   0.680   1.799  69.411
 Approx polarizability: 111.944  -2.268 104.425   1.491   3.172 106.858

                      1                      2                      3
                      A                      A                      A
 Frequencies --     71.6515               143.7142               157.5814
 Red. masses --      2.7931                 4.0495                 3.6789
 Frc consts  --      0.0084                 0.0493                 0.0538
 IR Inten    --      3.9075                 0.1723                 0.2239

                      4                      5                      6
                      A                      A                      A
 Frequencies --    200.6178               283.2058               348.9931
 Red. masses --      2.1234                 2.5477                 1.3304
 Frc consts  --      0.0504                 0.1204                 0.0955
 IR Inten    --      1.3409                 5.9005                95.2644

                      7                      8                      9
                      A                      A                      A
 Frequencies --    424.2362               485.4187               548.5498
 Red. masses --      2.8389                 2.8102                 4.0535
 Frc consts  --      0.3010                 0.3901                 0.7186
 IR Inten    --      8.9049                 9.3890                 2.7801

                     10                     11                     12
                      A                      A                      A
 Frequencies --    585.4634               751.3230               760.7739
 Red. masses --      3.4970                 5.0672                 3.2342
 Frc consts  --      0.7062                 1.6853                 1.1029
 IR Inten    --     10.6393                 2.6341                 8.4916

                     13                     14                     15
                      A                      A                      A
 Frequencies --    781.4337               840.9003               861.8632
 Red. masses --      1.2419                 1.6279                 2.2017
 Frc consts  --      0.4468                 0.6782                 0.9636
 IR Inten    --      6.3383                11.6017                 3.5704

                     16                     17                     18
                      A                      A                      A
 Frequencies --    920.2745               936.9890               981.6459
 Red. masses --      2.4776                 2.1086                 2.0387
 Frc consts  --      1.2363                 1.0907                 1.1575
 IR Inten    --      7.4532                 9.6734                34.4819

                     19                     20                     21
                      A                      A                      A
 Frequencies --    984.3806              1004.9091              1014.9476
 Red. masses --      1.4395                 3.9187                 2.4746
 Frc consts  --      0.8218                 2.3315                 1.5019
 IR Inten    --     12.8671                61.8257                46.5577

                     22                     23                     24
                      A                      A                      A
 Frequencies --   1023.6566              1054.5303              1066.5496
 Red. masses --      2.5111                 1.9200                 2.6406
 Frc consts  --      1.5503                 1.2580                 1.7698
 IR Inten    --      6.3323                 0.8617                24.1496

                     25                     26                     27
                      A                      A                      A
 Frequencies --   1110.5639              1135.7013              1153.6111
 Red. masses --      2.1303                 2.0826                 1.2200
 Frc consts  --      1.5480                 1.5827                 0.9566
 IR Inten    --      0.5373                87.2312                26.1315

                     28                     29                     30
                      A                      A                      A
 Frequencies --   1196.9224              1212.6540              1225.3081
 Red. masses --      1.5811                 2.0178                 1.2782
 Frc consts  --      1.3346                 1.7483                 1.1307
 IR Inten    --     23.3911                24.8839                 0.3148

                     31                     32                     33
                      A                      A                      A
 Frequencies --   1243.8736              1251.7048              1268.7881
 Red. masses --      1.4224                 1.4437                 1.5914
 Frc consts  --      1.2966                 1.3327                 1.5094
 IR Inten    --      3.4409                 0.7717                 4.1685

                     34                     35                     36
                      A                      A                      A
 Frequencies --   1283.7592              1305.7398              1337.6894
 Red. masses --      1.5111                 1.5131                 1.5228
 Frc consts  --      1.4673                 1.5199                 1.6054
 IR Inten    --      3.5170                 2.5584                 0.9840

                     37                     38                     39
                      A                      A                      A
 Frequencies --   1434.8704              1446.3689              1476.2408
 Red. masses --      1.9549                 1.9079                 1.0831
 Frc consts  --      2.3713                 2.3516                 1.3907
 IR Inten    --     32.7508                51.6531                 0.3440

                     40                     41                     42
                      A                      A                      A
 Frequencies --   1497.8494              1518.6324              3009.1936
 Red. masses --      1.1200                 1.1735                 1.0608
 Frc consts  --      1.4805                 1.5946                 5.6598
 IR Inten    --      1.7587                 2.9645                70.3931

                     43                     44                     45
                      A                      A                      A
 Frequencies --   3059.4569              3065.9598              3069.8562
 Red. masses --      1.0575                 1.0602                 1.1025
 Frc consts  --      5.8319                 5.8718                 6.1218
 IR Inten    --     36.6988                49.9248                22.2200

                     46                     47                     48
                      A                      A                      A
 Frequencies --   3092.7750              3106.9313              3124.9310
 Red. masses --      1.0898                 1.1080                 1.1065
 Frc consts  --      6.1419                 6.3018                 6.3664
 IR Inten    --     41.3942                 0.0397                35.5012

                     49                     50                     51
                      A                      A                      A
 Frequencies --   3156.9427              3166.2851              3798.8912
 Red. masses --      1.0878                 1.0953                 1.0657
 Frc consts  --      6.3875                 6.4695                 9.0612
 IR Inten    --     20.6451                16.9050                14.0062

 - Thermochemistry -
 -------------------
 Temperature   298.150 Kelvin.  Pressure   1.00000 Atm.
 Atom     1 has atomic number  8 and mass  15.99491

 Molecular mass:   126.06808 amu.
 Principal axes and moments of inertia in atomic units:
                           1         2         3
     Eigenvalues --   544.055871364.265161565.21960
           X            0.99985  -0.01740  -0.00033
           Y            0.01740   0.99955   0.02454
           Z           -0.00010  -0.02454   0.99970
 This molecule is an asymmetric top.
 Rotational symmetry number  1.
 Warning -- assumption of classical behavior for rotation
           may cause significant error
 Rotational temperatures (Kelvin)      0.15920     0.06349     0.05534
 Rotational constants (GHZ):           3.31720     1.32287     1.15303
 Zero-point vibrational energy     418603.9 (Joules/Mol)
                                  100.04874 (Kcal/Mol)
 Warning -- explicit consideration of  10 degrees of freedom as
           vibrations may cause significant error
 Vibrational temperatures:    103.09   206.77   226.72   288.64   407.47
          (Kelvin)            502.12   610.38   698.41   789.24   842.35
                             1080.98  1094.58  1124.31  1209.87  1240.03
                             1324.07  1348.12  1412.37  1416.30  1445.84
                             1460.28  1472.81  1517.23  1534.53  1597.85
                             1634.02  1659.79  1722.10  1744.74  1762.94
                             1789.65  1800.92  1825.50  1847.04  1878.67
                             1924.63  2064.46  2081.00  2123.98  2155.07
                             2184.97  4329.55  4401.87  4411.23  4416.83
                             4449.81  4470.18  4496.07  4542.13  4555.57
                             5465.75

 Zero-point correction=                           0.159438 (Hartree/Particle)
 Thermal correction to Energy=                    0.167540
 Thermal correction to Enthalpy=                  0.168484
 Thermal correction to Gibbs Free Energy=         0.126558
 Sum of electronic and zero-point Energies=           -422.967772
 Sum of electronic and thermal Energies=              -422.959670
 Sum of electronic and thermal Enthalpies=            -422.958726
 Sum of electronic and thermal Free Energies=         -423.000652

                     E (Thermal)             CV                S
                      KCal/Mol        Cal/Mol-Kelvin    Cal/Mol-Kelvin
 Total                  105.133             31.177             88.241
 Electronic               0.000              0.000              0.000
 Translational            0.889              2.981             40.409
 Rotational               0.889              2.981             28.543
 Vibrational            103.355             25.216             19.290
 Vibration     1          0.598              1.968              4.107
 Vibration     2          0.616              1.909              2.754
 Vibration     3          0.621              1.894              2.579
 Vibration     4          0.638              1.839              2.127
 Vibration     5          0.682              1.705              1.514
 Vibration     6          0.726              1.577              1.171
 Vibration     7          0.786              1.418              0.878
 Vibration     8          0.841              1.282              0.696
 Vibration     9          0.904              1.143              0.547
 Vibration    10          0.942              1.063              0.475

 Optimization completed.
    -- Stationary point found.
 Normal termination of Gaussian 09 at Tue Jan 28 04:44:11 2020.
