 Gaussian 09, Revision D.01,
 Gaussian 09:  ES64L-G09RevD.01 24-Apr-2013

 -----------------------------
 # b3lyp 6-31G(2df,p) opt Freq
 -----------------------------

 -----
 titel
 -----
 Symbolic Z-matrix:
 Charge =  0 Multiplicity = 1

 SCF Done:  E(RB3LYP) =  -423.153520427     A.U. after   14 cycles
 Optimization completed.
    -- Stationary point found.
 Normal termination of Gaussian 09 at Mon Jan 27 13:25:57 2020.

 ----------------------------------------------------------------------
 #N Geom=AllCheck Guess=TCheck SCRF=Check GenChk RB3LYP/6-31G(2df,p) Fr
 eq
 ----------------------------------------------------------------------

 Structure from the checkpoint file:  "/scratch/puck/g09_74f61ef0-432b-4c98-a0bc-452dc9d1152b/Gau-55461.chk"
 -----
 titel
 -----
 Charge =  0 Multiplicity = 1

                         Standard orientation:
 ---------------------------------------------------------------------
 Center     Atomic      Atomic             Coordinates (Angstroms)
 Number     Number       Type             X           Y           Z
 ---------------------------------------------------------------------
      1          8           0       -1.599364    2.064768   -0.383785
      2          6           0       -2.004444    0.992562   -0.012842
      3          6           0       -1.107735   -0.103519    0.518962
      4          8           0       -1.657444   -1.413167    0.281695
      5          6           0       -0.445597   -1.841558   -0.385652
      6          6           0        0.173488   -0.425322   -0.290602
      7          6           0        1.500712   -0.250106    0.388754
      8          6           0        2.750429   -0.030394   -0.430203
      9          6           0        2.162774    1.106875    0.364788
     10          1           0       -3.083082    0.718942   -0.044248
     11          1           0       -0.927210    0.081906    1.590327
     12          1           0        0.084690   -2.606467    0.195513
     13          1           0       -0.649793   -2.228386   -1.389894
     14          1           0        0.173555    0.103295   -1.247711
     15          1           0        1.618619   -0.827531    1.302976
     16          1           0        3.675121   -0.477655   -0.083120
     17          1           0        2.649736   -0.003047   -1.510296
     18          1           0        2.686805    1.437082    1.254510
     19          1           0        1.648264    1.897829   -0.170570
 ---------------------------------------------------------------------

 SCF Done:  E(RB3LYP) =  -423.153520427     A.U. after    1 cycles

 The electronic state is 1-A.
 Alpha  occ. eigenvalues --  -19.14793 -19.14430 -10.27433 -10.24434 -10.23767
 Alpha  occ. eigenvalues --  -10.20541 -10.19931 -10.19108 -10.18837  -1.05809
 Alpha  occ. eigenvalues --   -1.04466  -0.86501  -0.75866  -0.72749  -0.62566
 Alpha  occ. eigenvalues --   -0.60356  -0.58728  -0.56053  -0.51242  -0.50166
 Alpha  occ. eigenvalues --   -0.47371  -0.46862  -0.43794  -0.43226  -0.42222
 Alpha  occ. eigenvalues --   -0.39629  -0.36948  -0.35808  -0.35076  -0.33056
 Alpha  occ. eigenvalues --   -0.29208  -0.28929  -0.27384  -0.24423
 Alpha virt. eigenvalues --   -0.03105   0.07384   0.08803   0.09244   0.11130
 Alpha virt. eigenvalues --    0.11931   0.13390   0.14170   0.14927   0.16364
 Alpha virt. eigenvalues --    0.16977   0.18151   0.19561   0.20804   0.22243

 Mulliken charges:
               1
     1  O   -0.243230
     2  C    0.121101
     3  C    0.048348
     4  O   -0.297958
     5  C   -0.093640
     6  C   -0.051984
     7  C    0.000953
     8  C   -0.277466
     9  C   -0.268205
    10  H    0.093703
    11  H    0.101882
    12  H    0.104415
    13  H    0.110321
    14  H    0.091533
    15  H    0.083214
    16  H    0.114946
    17  H    0.114651
    18  H    0.114527
    19  H    0.132888
 Sum of Mulliken charges =   0.00000

 Dipole moment (field-independent basis, Debye):
    X=              1.4954    Y=             -1.4055    Z=              0.3478  Tot=              2.0815
 Quadrupole moment (field-independent basis, Debye-Ang):
   XX=            -53.8199   YY=            -59.4593   ZZ=            -50.8050
   XY=             -0.8063   XZ=              0.3350   YZ=              2.6260

  Exact polarizability:  85.511  -0.209  78.651  -0.177   1.237  63.389
 Approx polarizability: 110.024   2.662 117.895  -2.508  -2.113  98.221

                      1                      2                      3
                      A                      A                      A
 Frequencies --     44.7047                59.1317                82.7739
 Red. masses --      3.8697                 3.4075                 3.1234
 Frc consts  --      0.0046                 0.0070                 0.0126
 IR Inten    --      1.9758                 5.0463                 6.5390

                      4                      5                      6
                      A                      A                      A
 Frequencies --    159.2568               182.1089               265.6679
 Red. masses --      2.6477                 3.1090                 2.8723
 Frc consts  --      0.0396                 0.0607                 0.1194
 IR Inten    --      2.3482                 4.0087                 5.3855

                      7                      8                      9
                      A                      A                      A
 Frequencies --    323.8119               418.6826               445.2230
 Red. masses --      3.5633                 3.1655                 2.8401
 Frc consts  --      0.2201                 0.3269                 0.3317
 IR Inten    --      0.2629                 1.9944                 9.1484

                     10                     11                     12
                      A                      A                      A
 Frequencies --    550.6023               732.7883               781.9684
 Red. masses --      4.5368                 2.0941                 1.6967
 Frc consts  --      0.8104                 0.6625                 0.6113
 IR Inten    --      5.6557                 8.9425                 9.4116

                     13                     14                     15
                      A                      A                      A
 Frequencies --    810.4219               832.9713               891.3676
 Red. masses --      1.4052                 1.3788                 2.3916
 Frc consts  --      0.5438                 0.5637                 1.1196
 IR Inten    --      4.3635                 3.9597                 0.1355

                     16                     17                     18
                      A                      A                      A
 Frequencies --    914.9948               925.9441               992.9354
 Red. masses --      2.1900                 3.2835                 2.9970
 Frc consts  --      1.0803                 1.6587                 1.7409
 IR Inten    --     18.7613                 3.2903                22.2548

                     19                     20                     21
                      A                      A                      A
 Frequencies --   1000.4570              1044.8136              1050.5097
 Red. masses --      1.6376                 5.0772                 2.9436
 Frc consts  --      0.9657                 3.2655                 1.9139
 IR Inten    --      9.1568                87.3503                 6.6673

                     22                     23                     24
                      A                      A                      A
 Frequencies --   1059.8901              1077.3508              1082.2257
 Red. masses --      1.3430                 2.5319                 1.3671
 Frc consts  --      0.8889                 1.7315                 0.9434
 IR Inten    --      6.2826                 4.3834                 2.9576

                     25                     26                     27
                      A                      A                      A
 Frequencies --   1103.9279              1135.9094              1157.2093
 Red. masses --      2.6631                 1.1257                 1.2110
 Frc consts  --      1.9121                 0.8557                 0.9554
 IR Inten    --     16.6020                 0.3124                 0.8634

                     28                     29                     30
                      A                      A                      A
 Frequencies --   1194.1277              1198.6465              1225.3740
 Red. masses --      1.6283                 1.4235                 1.9257
 Frc consts  --      1.3680                 1.2050                 1.7036
 IR Inten    --      3.7006                 1.8878                 1.1083

                     31                     32                     33
                      A                      A                      A
 Frequencies --   1246.1865              1250.6864              1302.8587
 Red. masses --      1.3099                 1.6038                 1.2993
 Frc consts  --      1.1985                 1.4780                 1.2994
 IR Inten    --      5.4916                 6.7659                 4.1785

                     34                     35                     36
                      A                      A                      A
 Frequencies --   1342.0310              1354.1539              1397.9620
 Red. masses --      1.3604                 1.5158                 1.2599
 Frc consts  --      1.4436                 1.6377                 1.4507
 IR Inten    --      4.0660                 5.6234                11.2117

                     37                     38                     39
                      A                      A                      A
 Frequencies --   1444.5800              1472.7353              1507.9904
 Red. masses --      1.6848                 1.0869                 1.3976
 Frc consts  --      2.0715                 1.3889                 1.8725
 IR Inten    --      1.2639                 1.4238                 1.4118

                     40                     41                     42
                      A                      A                      A
 Frequencies --   1523.3861              1825.2849              2888.5250
 Red. masses --      1.1015                10.8321                 1.0840
 Frc consts  --      1.5061                21.2630                 5.3286
 IR Inten    --      1.5774               113.3136               112.4913

                     43                     44                     45
                      A                      A                      A
 Frequencies --   2975.9570              3019.1867              3064.5918
 Red. masses --      1.0813                 1.0577                 1.1004
 Frc consts  --      5.6422                 5.6804                 6.0888
 IR Inten    --     36.1584                54.9813                14.3742

                     46                     47                     48
                      A                      A                      A
 Frequencies --   3079.6455              3130.7620              3132.3652
 Red. masses --      1.0939                 1.0793                 1.0561
 Frc consts  --      6.1128                 6.2331                 6.1050
 IR Inten    --     29.1984                21.4666                14.9180

                     49                     50                     51
                      A                      A                      A
 Frequencies --   3138.5072              3211.6272              3227.1299
 Red. masses --      1.0621                 1.1179                 1.1157
 Frc consts  --      6.1640                 6.7934                 6.8461
 IR Inten    --      5.9745                 1.8045                15.1178

 - Thermochemistry -
 -------------------
 Temperature   298.150 Kelvin.  Pressure   1.00000 Atm.
 Atom     1 has atomic number  8 and mass  15.99491

 Molecular mass:   126.06808 amu.
 Principal axes and moments of inertia in atomic units:
                           1         2         3
     Eigenvalues --   772.752221411.473301991.59390
           X            0.99989   0.01504   0.00087
           Y           -0.01506   0.99972   0.01832
           Z           -0.00060  -0.01833   0.99983
 This molecule is an asymmetric top.
 Rotational symmetry number  1.
 Warning -- assumption of classical behavior for rotation
           may cause significant error
 Rotational temperatures (Kelvin)      0.11208     0.06136     0.04349
 Rotational constants (GHZ):           2.33547     1.27862     0.90618
 Zero-point vibrational energy     414398.1 (Joules/Mol)
                                   99.04352 (Kcal/Mol)
 Warning -- explicit consideration of  10 degrees of freedom as
           vibrations may cause significant error
 Vibrational temperatures:     64.32    85.08   119.09   229.13   262.01
          (Kelvin)            382.24   465.89   602.39   640.58   792.19
                             1054.32  1125.08  1166.01  1198.46  1282.48
                             1316.47  1332.23  1428.61  1439.43  1503.25
                             1511.45  1524.94  1550.07  1557.08  1588.30
                             1634.32  1664.96  1718.08  1724.58  1763.04
                             1792.98  1799.46  1874.52  1930.88  1948.32
                             2011.35  2078.43  2118.93  2169.66  2191.81
                             2626.17  4155.94  4281.73  4343.93  4409.26
                             4430.92  4504.46  4506.77  4515.61  4620.81
                             4643.11

 Zero-point correction=                           0.157836 (Hartree/Particle)
 Thermal correction to Energy=                    0.166826
 Thermal correction to Enthalpy=                  0.167770
 Thermal correction to Gibbs Free Energy=         0.122501
 Sum of electronic and zero-point Energies=           -422.995685
 Sum of electronic and thermal Energies=              -422.986695
 Sum of electronic and thermal Enthalpies=            -422.985751
 Sum of electronic and thermal Free Energies=         -423.031019

                     E (Thermal)             CV                S
                      KCal/Mol        Cal/Mol-Kelvin    Cal/Mol-Kelvin
 Total                  104.685             31.963             95.276
 Electronic               0.000              0.000              0.000
 Translational            0.889              2.981             40.409
 Rotational               0.889              2.981             29.164
 Vibrational            102.907             26.002             25.703
 Vibration     1          0.595              1.980              5.039
 Vibration     2          0.597              1.974              4.486
 Vibration     3          0.600              1.961              3.824
 Vibration     4          0.621              1.892              2.559
 Vibration     5          0.630              1.864              2.307
 Vibration     6          0.671              1.736              1.624
 Vibration     7          0.708              1.628              1.291
 Vibration     8          0.782              1.430              0.896
 Vibration     9          0.805              1.371              0.810
 Vibration    10          0.906              1.138              0.543

 Optimization completed.
    -- Stationary point found.
 Normal termination of Gaussian 09 at Mon Jan 27 14:08:32 2020.
