 Gaussian 09, Revision D.01,
 Gaussian 09:  ES64L-G09RevD.01 24-Apr-2013

 -----------------------------
 # b3lyp 6-31G(2df,p) opt Freq
 -----------------------------

 -----
 titel
 -----
 Symbolic Z-matrix:
 Charge =  0 Multiplicity = 1

 SCF Done:  E(RB3LYP) =  -423.178919270     A.U. after   14 cycles
 Optimization completed.
    -- Stationary point found.
 Normal termination of Gaussian 09 at Mon Jan 27 15:32:47 2020.

 ----------------------------------------------------------------------
 #N Geom=AllCheck Guess=TCheck SCRF=Check GenChk RB3LYP/6-31G(2df,p) Fr
 eq
 ----------------------------------------------------------------------

 Structure from the checkpoint file:  "/scratch/puck/g09_bfb4e312-1461-4f79-9fbd-47bf9ad82c69/Gau-81301.chk"
 -----
 titel
 -----
 Charge =  0 Multiplicity = 1

                         Standard orientation:
 ---------------------------------------------------------------------
 Center     Atomic      Atomic             Coordinates (Angstroms)
 Number     Number       Type             X           Y           Z
 ---------------------------------------------------------------------
      1          6           0       -2.304246   -1.359377   -0.082038
      2          6           0       -1.418078   -0.137385   -0.287694
      3          8           0       -2.105628    0.982463    0.237791
      4          6           0       -0.053155   -0.270531    0.409659
      5          6           0        1.030751   -1.138699   -0.258905
      6          6           0        2.303663   -0.997498    0.485633
      7          6           0        1.942456    0.109890   -0.499235
      8          6           0        0.836083    0.943555    0.041752
      9          8           0        0.562377    2.115805   -0.043944
     10          1           0       -1.837443   -2.260156   -0.492090
     11          1           0       -2.492677   -1.514797    0.984788
     12          1           0       -3.265988   -1.208260   -0.579762
     13          1           0       -1.237816   -0.007659   -1.370143
     14          1           0       -1.504062    1.738612    0.172695
     15          1           0       -0.209223   -0.461610    1.476740
     16          1           0        0.844447   -1.924733   -0.978593
     17          1           0        2.294559   -0.799442    1.553829
     18          1           0        3.135915   -1.609707    0.153598
     19          1           0        2.593453    0.361874   -1.326866
 ---------------------------------------------------------------------

 SCF Done:  E(RB3LYP) =  -423.178919270     A.U. after    1 cycles

 The electronic state is 1-A.
 Alpha  occ. eigenvalues --  -19.14150 -19.12179 -10.27697 -10.23728 -10.22424
 Alpha  occ. eigenvalues --  -10.21828 -10.21600 -10.20075 -10.17531  -1.05126
 Alpha  occ. eigenvalues --   -1.00768  -0.91813  -0.77310  -0.71828  -0.65849
 Alpha  occ. eigenvalues --   -0.60800  -0.59421  -0.53561  -0.51659  -0.49860
 Alpha  occ. eigenvalues --   -0.48108  -0.44670  -0.43525  -0.41154  -0.40050
 Alpha  occ. eigenvalues --   -0.39120  -0.38208  -0.36871  -0.36028  -0.33421
 Alpha  occ. eigenvalues --   -0.31803  -0.29172  -0.26020  -0.24878
 Alpha virt. eigenvalues --   -0.01868   0.08322   0.09247   0.10214   0.10556
 Alpha virt. eigenvalues --    0.12161   0.13650   0.14091   0.15708   0.16274
 Alpha virt. eigenvalues --    0.18029   0.18788   0.18806   0.20980   0.22710

 Mulliken charges:
               1
     1  C   -0.394275
     2  C    0.127298
     3  O   -0.445227
     4  C   -0.146808
     5  C   -0.057277
     6  C   -0.293060
     7  C   -0.158791
     8  C    0.417861
     9  O   -0.352904
    10  H    0.108985
    11  H    0.123772
    12  H    0.128518
    13  H    0.063210
    14  H    0.295711
    15  H    0.096039
    16  H    0.113861
    17  H    0.127540
    18  H    0.131016
    19  H    0.114531
 Sum of Mulliken charges =   0.00000

 Dipole moment (field-independent basis, Debye):
    X=              2.2950    Y=             -3.1836    Z=             -0.5400  Tot=              3.9615
 Quadrupole moment (field-independent basis, Debye-Ang):
   XX=            -54.0296   YY=            -57.4140   ZZ=            -51.4104
   XY=             -0.8393   XZ=              0.5305   YZ=              0.4256

  Exact polarizability:  88.004  -2.394  79.205  -1.522  -0.768  61.911
 Approx polarizability: 115.106  -4.971 129.216  -3.588  -0.860  97.276

                      1                      2                      3
                      A                      A                      A
 Frequencies --     97.9882               127.1937               162.0336
 Red. masses --      4.1997                 3.2637                 4.1088
 Frc consts  --      0.0238                 0.0311                 0.0636
 IR Inten    --      0.5516                 1.9811                 3.3759

                      4                      5                      6
                      A                      A                      A
 Frequencies --    201.2737               232.9758               298.1116
 Red. masses --      1.8932                 1.4457                 3.5939
 Frc consts  --      0.0452                 0.0462                 0.1882
 IR Inten    --      1.4360                 2.2692                 3.2048

                      7                      8                      9
                      A                      A                      A
 Frequencies --    379.1829               448.1139               465.3614
 Red. masses --      5.1594                 2.9258                 3.0271
 Frc consts  --      0.4371                 0.3462                 0.3862
 IR Inten    --      3.4485                 5.9497                 2.4839

                     10                     11                     12
                      A                      A                      A
 Frequencies --    509.5085               557.5935               638.1889
 Red. masses --      3.4344                 1.0809                 4.1448
 Frc consts  --      0.5253                 0.1980                 0.9946
 IR Inten    --      9.0807               102.9689                 3.7164

                     13                     14                     15
                      A                      A                      A
 Frequencies --    687.7367               787.6761               838.2304
 Red. masses --      2.9735                 3.0476                 1.9755
 Frc consts  --      0.8286                 1.1140                 0.8178
 IR Inten    --      4.7171                17.5009                 3.3301

                     16                     17                     18
                      A                      A                      A
 Frequencies --    870.2286               893.0515               929.6495
 Red. masses --      2.4690                 1.7989                 1.7910
 Frc consts  --      1.1017                 0.8453                 0.9120
 IR Inten    --      7.5507                 7.1351                24.0558

                     19                     20                     21
                      A                      A                      A
 Frequencies --    932.4733               955.6876              1009.1748
 Red. masses --      2.2054                 1.8665                 1.7566
 Frc consts  --      1.1298                 1.0044                 1.0540
 IR Inten    --      5.8558                18.3898                13.0442

                     22                     23                     24
                      A                      A                      A
 Frequencies --   1042.5478              1051.0602              1076.9788
 Red. masses --      1.2919                 1.4375                 1.9311
 Frc consts  --      0.8273                 0.9356                 1.3197
 IR Inten    --      5.7114                 2.0868                35.6382

                     25                     26                     27
                      A                      A                      A
 Frequencies --   1092.6612              1127.2543              1141.6487
 Red. masses --      1.4739                 1.7616                 2.9269
 Frc consts  --      1.0368                 1.3189                 2.2476
 IR Inten    --     11.8966                12.5948                33.3949

                     28                     29                     30
                      A                      A                      A
 Frequencies --   1148.2684              1194.6119              1213.8527
 Red. masses --      2.2299                 2.1855                 1.5980
 Frc consts  --      1.7323                 1.8377                 1.3873
 IR Inten    --     17.6800                 3.7628                10.7070

                     31                     32                     33
                      A                      A                      A
 Frequencies --   1253.8802              1299.4410              1321.6664
 Red. masses --      1.3729                 2.0787                 1.4485
 Frc consts  --      1.2718                 2.0680                 1.4908
 IR Inten    --     10.6070                 5.9272                33.3923

                     34                     35                     36
                      A                      A                      A
 Frequencies --   1328.2217              1379.8118              1399.8422
 Red. masses --      1.6771                 1.2617                 1.2359
 Frc consts  --      1.7432                 1.4153                 1.4269
 IR Inten    --     40.1829                 4.1657                10.5937

                     37                     38                     39
                      A                      A                      A
 Frequencies --   1456.7271              1481.5950              1494.7217
 Red. masses --      1.4684                 1.0727                 1.1772
 Frc consts  --      1.8359                 1.3874                 1.5496
 IR Inten    --     79.3898                 8.5728                 2.9050

                     40                     41                     42
                      A                      A                      A
 Frequencies --   1498.6830              1839.1467              2935.1944
 Red. masses --      1.0570                11.9454                 1.0816
 Frc consts  --      1.3988                23.8058                 5.4902
 IR Inten    --      1.9610               306.3861                47.2673

                     43                     44                     45
                      A                      A                      A
 Frequencies --   3040.6038              3054.9578              3115.0532
 Red. masses --      1.0349                 1.0841                 1.1018
 Frc consts  --      5.6375                 5.9612                 6.2991
 IR Inten    --     13.9270                19.8885                24.9216

                     46                     47                     48
                      A                      A                      A
 Frequencies --   3119.7380              3120.5969              3198.1229
 Red. masses --      1.0557                 1.1016                 1.0936
 Frc consts  --      6.0540                 6.3204                 6.5904
 IR Inten    --     19.5118                18.2933                 5.7070

                     49                     50                     51
                      A                      A                      A
 Frequencies --   3202.6449              3213.7896              3722.0605
 Red. masses --      1.1056                 1.1034                 1.0661
 Frc consts  --      6.6813                 6.7146                 8.7018
 IR Inten    --      1.7132                 7.4507                72.6216

 - Thermochemistry -
 -------------------
 Temperature   298.150 Kelvin.  Pressure   1.00000 Atm.
 Atom     1 has atomic number  6 and mass  12.00000

 Molecular mass:   126.06808 amu.
 Principal axes and moments of inertia in atomic units:
                           1         2         3
     Eigenvalues --   675.018621294.484881815.66385
           X            0.99993   0.01084   0.00389
           Y           -0.01084   0.99994  -0.00070
           Z           -0.00389   0.00066   0.99999
 This molecule is an asymmetric top.
 Rotational symmetry number  1.
 Warning -- assumption of classical behavior for rotation
           may cause significant error
 Rotational temperatures (Kelvin)      0.12831     0.06691     0.04770
 Rotational constants (GHZ):           2.67362     1.39418     0.99398
 Zero-point vibrational energy     416221.6 (Joules/Mol)
                                   99.47935 (Kcal/Mol)
 Warning -- explicit consideration of  11 degrees of freedom as
           vibrations may cause significant error
 Vibrational temperatures:    140.98   183.00   233.13   289.59   335.20
          (Kelvin)            428.92   545.56   644.74   669.55   733.07
                              802.25   918.21   989.50  1133.29  1206.03
                             1252.06  1284.90  1337.56  1341.62  1375.02
                             1451.98  1499.99  1512.24  1549.53  1572.09
                             1621.87  1642.58  1652.10  1718.78  1746.46
                             1804.05  1869.60  1901.58  1911.01  1985.24
                             2014.06  2095.90  2131.68  2150.57  2156.27
                             2646.12  4223.08  4374.75  4395.40  4481.86
                             4488.60  4489.84  4601.38  4607.89  4623.92
                             5355.21

 Zero-point correction=                           0.158530 (Hartree/Particle)
 Thermal correction to Energy=                    0.167142
 Thermal correction to Enthalpy=                  0.168086
 Thermal correction to Gibbs Free Energy=         0.125317
 Sum of electronic and zero-point Energies=           -423.020389
 Sum of electronic and thermal Energies=              -423.011777
 Sum of electronic and thermal Enthalpies=            -423.010833
 Sum of electronic and thermal Free Energies=         -423.053602

                     E (Thermal)             CV                S
                      KCal/Mol        Cal/Mol-Kelvin    Cal/Mol-Kelvin
 Total                  104.883             32.970             90.015
 Electronic               0.000              0.000              0.000
 Translational            0.889              2.981             40.409
 Rotational               0.889              2.981             28.852
 Vibrational            103.106             27.008             20.755
 Vibration     1          0.603              1.951              3.494
 Vibration     2          0.611              1.926              2.988
 Vibration     3          0.622              1.889              2.526
 Vibration     4          0.638              1.838              2.121
 Vibration     5          0.654              1.790              1.856
 Vibration     6          0.691              1.677              1.427
 Vibration     7          0.749              1.515              1.042
 Vibration     8          0.807              1.365              0.802
 Vibration     9          0.823              1.327              0.751
 Vibration    10          0.865              1.229              0.635
 Vibration    11          0.913              1.123              0.529

 Optimization completed.
    -- Stationary point found.
 Normal termination of Gaussian 09 at Mon Jan 27 16:15:21 2020.
