 Gaussian 09, Revision D.01,
 Gaussian 09:  ES64L-G09RevD.01 24-Apr-2013

 -----------------------------
 # b3lyp 6-31G(2df,p) opt Freq
 -----------------------------

 -----
 titel
 -----
 Symbolic Z-matrix:
 Charge =  0 Multiplicity = 1

 SCF Done:  E(RB3LYP) =  -423.173925905     A.U. after   14 cycles
 Optimization completed.
    -- Stationary point found.
 Normal termination of Gaussian 09 at Tue Jan 28 00:06:25 2020.

 ----------------------------------------------------------------------
 #N Geom=AllCheck Guess=TCheck SCRF=Check GenChk RB3LYP/6-31G(2df,p) Fr
 eq
 ----------------------------------------------------------------------

 Structure from the checkpoint file:  "/scratch/puck/g09_ea985fd8-8c10-4716-8fa4-827f2178edcd/Gau-3491.chk"
 -----
 titel
 -----
 Charge =  0 Multiplicity = 1

                         Standard orientation:
 ---------------------------------------------------------------------
 Center     Atomic      Atomic             Coordinates (Angstroms)
 Number     Number       Type             X           Y           Z
 ---------------------------------------------------------------------
      1          6           0        2.452916   -0.326783   -0.050964
      2          6           0        1.121177    0.119748    0.573800
      3          6           0        0.796020    1.567980    0.271012
      4          6           0       -0.301378    1.738723   -0.468443
      5          6           0       -0.976636    0.431816   -0.760141
      6          8           0       -2.135018    0.172037    0.084114
      7          6           0       -1.366299   -0.692931    0.945384
      8          6           0       -0.123166   -0.615507    0.020448
      9          8           0        0.246052   -1.812296   -0.613376
     10          1           0        2.436155   -0.211082   -1.138046
     11          1           0        3.274528    0.279300    0.344421
     12          1           0        2.657073   -1.375908    0.173178
     13          1           0        1.191939   -0.032932    1.659958
     14          1           0        1.438356    2.371088    0.619916
     15          1           0       -0.695320    2.692436   -0.801038
     16          1           0       -1.213094    0.250432   -1.815209
     17          1           0       -1.236920   -0.274216    1.951649
     18          1           0       -1.809772   -1.694051    1.028175
     19          1           0       -0.547026   -2.221270   -0.975482
 ---------------------------------------------------------------------

 SCF Done:  E(RB3LYP) =  -423.173925905     A.U. after    1 cycles

 The electronic state is 1-A.
 Alpha  occ. eigenvalues --  -19.14809 -19.12968 -10.23988 -10.22827 -10.22555
 Alpha  occ. eigenvalues --  -10.19424 -10.18934 -10.18214 -10.17196  -1.04757
 Alpha  occ. eigenvalues --   -1.01695  -0.83586  -0.74543  -0.70822  -0.67646
 Alpha  occ. eigenvalues --   -0.62561  -0.56408  -0.54848  -0.51889  -0.49455
 Alpha  occ. eigenvalues --   -0.45980  -0.43345  -0.42128  -0.41810  -0.39823
 Alpha  occ. eigenvalues --   -0.37950  -0.37433  -0.36102  -0.35587  -0.33542
 Alpha  occ. eigenvalues --   -0.29197  -0.26249  -0.25946  -0.24508
 Alpha virt. eigenvalues --    0.00802   0.06608   0.09443   0.11276   0.11806
 Alpha virt. eigenvalues --    0.13144   0.14698   0.15521   0.16358   0.17004
 Alpha virt. eigenvalues --    0.17840   0.18309   0.20025   0.21331   0.22447

 Mulliken charges:
               1
     1  C   -0.389031
     2  C   -0.089749
     3  C   -0.066642
     4  C   -0.090695
     5  C    0.011131
     6  O   -0.294883
     7  C   -0.138145
     8  C    0.345872
     9  O   -0.482135
    10  H    0.121440
    11  H    0.105878
    12  H    0.129196
    13  H    0.081174
    14  H    0.098794
    15  H    0.101352
    16  H    0.075219
    17  H    0.101381
    18  H    0.093704
    19  H    0.286139
 Sum of Mulliken charges =   0.00000

 Dipole moment (field-independent basis, Debye):
    X=              0.6852    Y=             -0.1600    Z=              0.0326  Tot=              0.7044
 Quadrupole moment (field-independent basis, Debye-Ang):
   XX=            -57.7358   YY=            -50.6605   ZZ=            -50.9213
   XY=              4.5614   XZ=              2.4958   YZ=             -0.0025

  Exact polarizability:  82.904   2.114  76.928   6.121  -2.404  66.646
 Approx polarizability: 121.834   0.045 108.304  15.183  -3.746 105.542

                      1                      2                      3
                      A                      A                      A
 Frequencies --     73.7553               189.4923               225.0493
 Red. masses --      3.5283                 3.3775                 1.1596
 Frc consts  --      0.0113                 0.0715                 0.0346
 IR Inten    --      1.5246                 4.3874                 0.1619

                      4                      5                      6
                      A                      A                      A
 Frequencies --    258.2726               296.1839               323.3920
 Red. masses --      2.2533                 1.3589                 2.7720
 Frc consts  --      0.0886                 0.0702                 0.1708
 IR Inten    --      0.9800                42.5131                 3.4456

                      7                      8                      9
                      A                      A                      A
 Frequencies --    350.8386               401.6974               451.5943
 Red. masses --      2.1650                 3.3724                 3.1649
 Frc consts  --      0.1570                 0.3206                 0.3803
 IR Inten    --     41.4640                 7.2624                10.0220

                     10                     11                     12
                      A                      A                      A
 Frequencies --    535.9217               625.8034               686.1758
 Red. masses --      3.6456                 4.0023                 3.4017
 Frc consts  --      0.6169                 0.9235                 0.9437
 IR Inten    --      5.7719                 0.8612                 3.5916

                     13                     14                     15
                      A                      A                      A
 Frequencies --    736.2690               791.7110               855.9804
 Red. masses --      3.9290                 1.4915                 3.1127
 Frc consts  --      1.2549                 0.5508                 1.3437
 IR Inten    --      1.2956                20.6765                19.3524

                     16                     17                     18
                      A                      A                      A
 Frequencies --    879.7268               928.2885               959.9158
 Red. masses --      2.1946                 1.7592                 2.7368
 Frc consts  --      1.0007                 0.8932                 1.4858
 IR Inten    --      8.1349                14.6678                26.5230

                     19                     20                     21
                      A                      A                      A
 Frequencies --    985.2007               992.6205              1011.3576
 Red. masses --      1.3532                 2.3443                 4.1527
 Frc consts  --      0.7739                 1.3609                 2.5026
 IR Inten    --      4.6063                23.8626                60.3117

                     22                     23                     24
                      A                      A                      A
 Frequencies --   1021.4795              1053.9028              1083.1638
 Red. masses --      2.2661                 2.6148                 1.6368
 Frc consts  --      1.3931                 1.7112                 1.1315
 IR Inten    --      8.1992                 4.0780                 9.6276

                     25                     26                     27
                      A                      A                      A
 Frequencies --   1103.3158              1112.5813              1148.8785
 Red. masses --      1.8634                 2.0841                 1.4571
 Frc consts  --      1.3365                 1.5199                 1.1331
 IR Inten    --     19.3669                21.6821                 3.0371

                     28                     29                     30
                      A                      A                      A
 Frequencies --   1151.6290              1203.2698              1263.2371
 Red. masses --      1.1977                 2.5036                 1.6705
 Frc consts  --      0.9359                 2.1357                 1.5706
 IR Inten    --      1.1339                41.8150                44.3349

                     31                     32                     33
                      A                      A                      A
 Frequencies --   1298.6413              1319.4567              1339.9812
 Red. masses --      1.4173                 1.3590                 1.4666
 Frc consts  --      1.4083                 1.3940                 1.5515
 IR Inten    --      4.4963                22.1093                 1.1949

                     34                     35                     36
                      A                      A                      A
 Frequencies --   1345.7879              1359.8062              1396.7237
 Red. masses --      1.6049                 1.7661                 1.5261
 Frc consts  --      1.7125                 1.9241                 1.7541
 IR Inten    --     18.5535                 2.5845                11.3150

                     37                     38                     39
                      A                      A                      A
 Frequencies --   1416.0776              1492.2726              1496.9574
 Red. masses --      1.4551                 1.0471                 1.0574
 Frc consts  --      1.7192                 1.3739                 1.3961
 IR Inten    --     10.2656                 4.0615                 4.5618

                     40                     41                     42
                      A                      A                      A
 Frequencies --   1513.9904              1674.5718              3001.0417
 Red. masses --      1.0991                 6.5099                 1.0724
 Frc consts  --      1.4843                10.7555                 5.6905
 IR Inten    --      0.4667                 2.0878                 5.1038

                     43                     44                     45
                      A                      A                      A
 Frequencies --   3004.5869              3040.2201              3043.0556
 Red. masses --      1.0651                 1.0846                 1.0378
 Frc consts  --      5.6653                 5.9066                 5.6619
 IR Inten    --     84.0542                43.5465                24.9906

                     46                     47                     48
                      A                      A                      A
 Frequencies --   3051.4472              3112.0236              3131.3087
 Red. masses --      1.1104                 1.1006                 1.1017
 Frc consts  --      6.0916                 6.2800                 6.3647
 IR Inten    --     39.6082                23.6578                18.4164

                     49                     50                     51
                      A                      A                      A
 Frequencies --   3173.4827              3203.6074              3811.2328
 Red. masses --      1.0860                 1.1019                 1.0661
 Frc consts  --      6.4438                 6.6631                 9.1238
 IR Inten    --      9.4906                18.8314                21.8630

 - Thermochemistry -
 -------------------
 Temperature   298.150 Kelvin.  Pressure   1.00000 Atm.
 Atom     1 has atomic number  6 and mass  12.00000

 Molecular mass:   126.06808 amu.
 Principal axes and moments of inertia in atomic units:
                           1         2         3
     Eigenvalues --   719.382771014.126771406.99003
           X            0.99952   0.03072   0.00371
           Y           -0.03067   0.99947  -0.01077
           Z           -0.00404   0.01065   0.99994
 This molecule is an asymmetric top.
 Rotational symmetry number  1.
 Warning -- assumption of classical behavior for rotation
           may cause significant error
 Rotational temperatures (Kelvin)      0.12040     0.08541     0.06156
 Rotational constants (GHZ):           2.50874     1.77960     1.28270
 Zero-point vibrational energy     418256.2 (Joules/Mol)
                                   99.96563 (Kcal/Mol)
 Warning -- explicit consideration of  10 degrees of freedom as
           vibrations may cause significant error
 Vibrational temperatures:    106.12   272.64   323.80   371.60   426.14
          (Kelvin)            465.29   504.78   577.95   649.74   771.07
                              900.39   987.25  1059.33  1139.09  1231.56
                             1265.73  1335.60  1381.10  1417.48  1428.16
                             1455.12  1469.68  1516.33  1558.43  1587.42
                             1600.75  1652.98  1656.94  1731.23  1817.51
                             1868.45  1898.40  1927.93  1936.29  1956.46
                             2009.57  2037.42  2147.04  2153.79  2178.29
                             2409.33  4317.82  4322.92  4374.19  4378.27
                             4390.35  4477.50  4505.25  4565.93  4609.27
                             5483.51

 Zero-point correction=                           0.159305 (Hartree/Particle)
 Thermal correction to Energy=                    0.167505
 Thermal correction to Enthalpy=                  0.168449
 Thermal correction to Gibbs Free Energy=         0.126788
 Sum of electronic and zero-point Energies=           -423.014621
 Sum of electronic and thermal Energies=              -423.006421
 Sum of electronic and thermal Enthalpies=            -423.005477
 Sum of electronic and thermal Free Energies=         -423.047138

                     E (Thermal)             CV                S
                      KCal/Mol        Cal/Mol-Kelvin    Cal/Mol-Kelvin
 Total                  105.111             32.097             87.684
 Electronic               0.000              0.000              0.000
 Translational            0.889              2.981             40.409
 Rotational               0.889              2.981             28.420
 Vibrational            103.333             26.135             18.856
 Vibration     1          0.599              1.966              4.051
 Vibration     2          0.633              1.854              2.233
 Vibration     3          0.650              1.803              1.918
 Vibration     4          0.667              1.749              1.673
 Vibration     5          0.690              1.681              1.438
 Vibration     6          0.708              1.629              1.293
 Vibration     7          0.728              1.574              1.162
 Vibration     8          0.767              1.466              0.956
 Vibration     9          0.810              1.357              0.791
 Vibration    10          0.891              1.171              0.574

 Normal termination of Gaussian 09 at Tue Jan 28 00:54:20 2020.
