 Gaussian 09, Revision D.01,
 Gaussian 09:  ES64L-G09RevD.01 24-Apr-2013

 -----------------------------
 # b3lyp 6-31G(2df,p) opt Freq
 -----------------------------

 -----
 titel
 -----
 Symbolic Z-matrix:
 Charge =  0 Multiplicity = 1

 SCF Done:  E(RB3LYP) =  -423.139876062     A.U. after   14 cycles
 Optimization completed.
    -- Stationary point found.
 Normal termination of Gaussian 09 at Mon Jan 27 14:00:40 2020.

 ----------------------------------------------------------------------
 #N Geom=AllCheck Guess=TCheck SCRF=Check GenChk RB3LYP/6-31G(2df,p) Fr
 eq
 ----------------------------------------------------------------------

 Structure from the checkpoint file:  "/scratch/puck/g09_728a1748-87fd-47ac-9a83-76f2199b3474/Gau-158428.chk"
 -----
 titel
 -----
 Charge =  0 Multiplicity = 1

                         Standard orientation:
 ---------------------------------------------------------------------
 Center     Atomic      Atomic             Coordinates (Angstroms)
 Number     Number       Type             X           Y           Z
 ---------------------------------------------------------------------
      1          6           0       -3.733724    0.258714   -0.142928
      2          6           0       -2.313614   -0.042248   -0.039679
      3          6           0       -1.139893   -0.302954    0.037596
      4          6           0        0.257551   -0.624988    0.144577
      5          8           0        0.601362   -1.863764   -0.402914
      6          6           0        1.043535   -0.168330    1.378206
      7          6           0        1.317780    0.469693    0.039186
      8          6           0        0.962438    1.909107   -0.232029
      9          8           0        2.451586    0.019319   -0.670866
     10          1           0       -3.923367    1.070986   -0.853625
     11          1           0       -4.292939   -0.618401   -0.486883
     12          1           0       -4.151826    0.557573    0.824842
     13          1           0        1.437661   -1.713535   -0.868421
     14          1           0        0.533289    0.420172    2.132582
     15          1           0        1.760124   -0.893424    1.750853
     16          1           0        0.893821    2.084476   -1.309870
     17          1           0        0.001754    2.163501    0.220533
     18          1           0        1.727473    2.579344    0.176875
     19          1           0        3.225994    0.110905   -0.106210
 ---------------------------------------------------------------------

 SCF Done:  E(RB3LYP) =  -423.139876062     A.U. after    1 cycles

 The electronic state is 1-A.
 Alpha  occ. eigenvalues --  -19.16168 -19.13011 -10.25350 -10.24896 -10.20148
 Alpha  occ. eigenvalues --  -10.18635 -10.17999 -10.17247 -10.16456  -1.05333
 Alpha  occ. eigenvalues --   -1.01270  -0.84545  -0.77088  -0.72003  -0.70192
 Alpha  occ. eigenvalues --   -0.61735  -0.60112  -0.52600  -0.50437  -0.48164
 Alpha  occ. eigenvalues --   -0.45527  -0.42496  -0.42433  -0.42298  -0.41138
 Alpha  occ. eigenvalues --   -0.40554  -0.39050  -0.37716  -0.34901  -0.31203
 Alpha  occ. eigenvalues --   -0.28726  -0.26467  -0.25120  -0.21950
 Alpha virt. eigenvalues --    0.04276   0.05198   0.07399   0.11105   0.11803
 Alpha virt. eigenvalues --    0.12798   0.13650   0.15483   0.15814   0.17537
 Alpha virt. eigenvalues --    0.17938   0.18623   0.19171   0.20679   0.23229

 Mulliken charges:
               1
     1  C   -0.502886
     2  C    0.094961
     3  C    0.062756
     4  C    0.186878
     5  O   -0.466389
     6  C   -0.408194
     7  C    0.307357
     8  C   -0.440515
     9  O   -0.472391
    10  H    0.146606
    11  H    0.154005
    12  H    0.146550
    13  H    0.289616
    14  H    0.121593
    15  H    0.114753
    16  H    0.130831
    17  H    0.132395
    18  H    0.109762
    19  H    0.292313
 Sum of Mulliken charges =   0.00000

 Dipole moment (field-independent basis, Debye):
    X=              0.8591    Y=              2.0100    Z=              1.0332  Tot=              2.4177
 Quadrupole moment (field-independent basis, Debye-Ang):
   XX=            -39.4289   YY=            -56.2410   ZZ=            -53.4539
   XY=             -1.6450   XZ=              2.5122   YZ=              0.2776

  Exact polarizability: 114.228  -3.209  69.113   3.677  -0.007  63.356
 Approx polarizability: 160.939  -8.303  98.192   4.546   2.009  95.020

                      1                      2                      3
                      A                      A                      A
 Frequencies --     27.9910                86.0567                93.9675
 Red. masses --      1.0214                 3.5983                 3.4437
 Frc consts  --      0.0005                 0.0157                 0.0179
 IR Inten    --      0.0778                 2.3454                 4.0385

                      4                      5                      6
                      A                      A                      A
 Frequencies --    199.6184               203.4817               224.2395
 Red. masses --      1.2179                 3.0078                 1.2182
 Frc consts  --      0.0286                 0.0734                 0.0361
 IR Inten    --      1.1365                 0.7041                30.2672

                      7                      8                      9
                      A                      A                      A
 Frequencies --    240.7622               304.4404               327.6101
 Red. masses --      2.7250                 4.8656                 3.9055
 Frc consts  --      0.0931                 0.2657                 0.2470
 IR Inten    --     23.9023                 3.8027                 1.9886

                     10                     11                     12
                      A                      A                      A
 Frequencies --    367.0934               381.5205               413.1218
 Red. masses --      3.3785                 2.3952                 2.3567
 Frc consts  --      0.2682                 0.2054                 0.2370
 IR Inten    --      2.0932                14.1757                17.6776

                     13                     14                     15
                      A                      A                      A
 Frequencies --    461.6906               477.4236               554.8553
 Red. masses --      1.4800                 2.8717                 5.8745
 Frc consts  --      0.1859                 0.3857                 1.0656
 IR Inten    --     60.1797                 4.3483                 3.5612

                     16                     17                     18
                      A                      A                      A
 Frequencies --    579.7278               636.0915               746.9264
 Red. masses --      3.8262                 3.3545                 5.6094
 Frc consts  --      0.7577                 0.7997                 1.8438
 IR Inten    --      1.0667                 9.1921                22.7926

                     19                     20                     21
                      A                      A                      A
 Frequencies --    855.5847               876.6583               923.9312
 Red. masses --      3.2353                 1.9954                 1.5263
 Frc consts  --      1.3954                 0.9035                 0.7677
 IR Inten    --     19.5600                13.2003                 4.0341

                     22                     23                     24
                      A                      A                      A
 Frequencies --    976.2591              1017.1238              1041.5764
 Red. masses --      1.8866                 2.0527                 1.4524
 Frc consts  --      1.0594                 1.2512                 0.9284
 IR Inten    --      9.9838                 7.3018                11.2044

                     25                     26                     27
                      A                      A                      A
 Frequencies --   1051.4784              1055.0823              1086.6391
 Red. masses --      1.4208                 1.3898                 1.5048
 Frc consts  --      0.9255                 0.9116                 1.0469
 IR Inten    --      2.7166                 0.5974                40.9528

                     28                     29                     30
                      A                      A                      A
 Frequencies --   1147.9577              1222.5414              1274.9585
 Red. masses --      4.9436                 2.9647                 2.0734
 Frc consts  --      3.8384                 2.6107                 1.9857
 IR Inten    --     39.0427               153.8223                61.1362

                     31                     32                     33
                      A                      A                      A
 Frequencies --   1325.1484              1342.9691              1412.9543
 Red. masses --      1.9154                 2.2059                 1.2302
 Frc consts  --      1.9817                 2.3440                 1.4470
 IR Inten    --     24.8885                13.1471                 6.6144

                     34                     35                     36
                      A                      A                      A
 Frequencies --   1416.5432              1427.2007              1461.4795
 Red. masses --      1.3626                 1.4552                 1.4455
 Frc consts  --      1.6110                 1.7463                 1.8190
 IR Inten    --      6.4426                42.1885                27.8355

                     37                     38                     39
                      A                      A                      A
 Frequencies --   1476.2352              1479.1811              1482.3553
 Red. masses --      1.0396                 1.0403                 1.0532
 Frc consts  --      1.3348                 1.3411                 1.3636
 IR Inten    --      5.9654                 6.0654                 2.3650

                     40                     41                     42
                      A                      A                      A
 Frequencies --   1497.3718              2367.4873              3025.4469
 Red. masses --      1.1181                11.8797                 1.0348
 Frc consts  --      1.4771                39.2312                 5.5805
 IR Inten    --      2.1053                 2.8855                36.4253

                     43                     44                     45
                      A                      A                      A
 Frequencies --   3033.5920              3084.1497              3088.7907
 Red. masses --      1.0389                 1.1004                 1.0998
 Frc consts  --      5.6330                 6.1672                 6.1819
 IR Inten    --     28.5263                11.3469                 8.6365

                     46                     47                     48
                      A                      A                      A
 Frequencies --   3099.9217              3126.3674              3134.1177
 Red. masses --      1.0984                 1.0550                 1.0985
 Frc consts  --      6.2187                 6.0755                 6.3577
 IR Inten    --     19.8615                 4.2962                13.3037

                     49                     50                     51
                      A                      A                      A
 Frequencies --   3224.9755              3718.8115              3811.5533
 Red. masses --      1.1182                 1.0646                 1.0666
 Frc consts  --      6.8519                 8.6747                 9.1294
 IR Inten    --      4.8693                76.7461                29.3294

 - Thermochemistry -
 -------------------
 Temperature   298.150 Kelvin.  Pressure   1.00000 Atm.
 Atom     1 has atomic number  6 and mass  12.00000

 Molecular mass:   126.06808 amu.
 Principal axes and moments of inertia in atomic units:
                           1         2         3
     Eigenvalues --   628.149511827.362432129.58183
           X            0.99996  -0.00318   0.00885
           Y            0.00329   0.99991  -0.01268
           Z           -0.00881   0.01271   0.99988
 This molecule is an asymmetric top.
 Rotational symmetry number  1.
 Warning -- assumption of classical behavior for rotation
           may cause significant error
 Rotational temperatures (Kelvin)      0.13789     0.04740     0.04067
 Rotational constants (GHZ):           2.87311     0.98762     0.84746
 Zero-point vibrational energy     406090.7 (Joules/Mol)
                                   97.05800 (Kcal/Mol)
 Warning -- explicit consideration of  16 degrees of freedom as
           vibrations may cause significant error
 Vibrational temperatures:     40.27   123.82   135.20   287.21   292.76
          (Kelvin)            322.63   346.40   438.02   471.36   528.16
                              548.92   594.39   664.27   686.91   798.31
                              834.10   915.19  1074.66  1230.99  1261.31
                             1329.33  1404.62  1463.41  1498.59  1512.84
                             1518.03  1563.43  1651.65  1758.96  1834.38
                             1906.59  1932.23  2032.92  2038.09  2053.42
                             2102.74  2123.97  2128.21  2132.78  2154.38
                             3406.28  4352.94  4364.66  4437.40  4444.08
                             4460.09  4498.14  4509.29  4640.01  5350.53
                             5483.97

 Zero-point correction=                           0.154672 (Hartree/Particle)
 Thermal correction to Energy=                    0.165372
 Thermal correction to Enthalpy=                  0.166317
 Thermal correction to Gibbs Free Energy=         0.118326
 Sum of electronic and zero-point Energies=           -422.985204
 Sum of electronic and thermal Energies=              -422.974504
 Sum of electronic and thermal Enthalpies=            -422.973559
 Sum of electronic and thermal Free Energies=         -423.021550

                     E (Thermal)             CV                S
                      KCal/Mol        Cal/Mol-Kelvin    Cal/Mol-Kelvin
 Total                  103.773             38.590            101.004
 Electronic               0.000              0.000              0.000
 Translational            0.889              2.981             40.409
 Rotational               0.889              2.981             29.282
 Vibrational            101.995             32.628             31.314
 Vibration     1          0.593              1.984              5.967
 Vibration     2          0.601              1.959              3.748
 Vibration     3          0.603              1.954              3.576
 Vibration     4          0.638              1.840              2.137
 Vibration     5          0.639              1.835              2.101
 Vibration     6          0.649              1.804              1.925
 Vibration     7          0.658              1.778              1.797
 Vibration     8          0.695              1.665              1.392
 Vibration     9          0.711              1.620              1.272
 Vibration    10          0.740              1.540              1.092
 Vibration    11          0.751              1.510              1.033
 Vibration    12          0.777              1.442              0.916
 Vibration    13          0.819              1.335              0.761
 Vibration    14          0.834              1.300              0.717
 Vibration    15          0.910              1.129              0.534
 Vibration    16          0.936              1.075              0.486

 Optimization completed.
    -- Stationary point found.
 Normal termination of Gaussian 09 at Mon Jan 27 14:37:53 2020.
