 Gaussian 09, Revision D.01,
 Gaussian 09:  ES64L-G09RevD.01 24-Apr-2013

 -----------------------------
 # b3lyp 6-31G(2df,p) opt Freq
 -----------------------------

 -----
 titel
 -----
 Symbolic Z-matrix:
 Charge =  0 Multiplicity = 1

 SCF Done:  E(RB3LYP) =  -423.138950452     A.U. after   14 cycles
 Optimization completed.
    -- Stationary point found.
 Normal termination of Gaussian 09 at Mon Jan 27 18:49:46 2020.

 ----------------------------------------------------------------------
 #N Geom=AllCheck Guess=TCheck SCRF=Check GenChk RB3LYP/6-31G(2df,p) Fr
 eq
 ----------------------------------------------------------------------

 Structure from the checkpoint file:  "/scratch/puck/g09_960d0c3c-c9c2-4892-bbcd-55ae9ef685bf/Gau-90748.chk"
 -----
 titel
 -----
 Charge =  0 Multiplicity = 1

                         Standard orientation:
 ---------------------------------------------------------------------
 Center     Atomic      Atomic             Coordinates (Angstroms)
 Number     Number       Type             X           Y           Z
 ---------------------------------------------------------------------
      1          6           0        2.473303   -0.305605    0.000034
      2          6           0        1.033441    0.145143   -0.000032
      3          6           0        0.699952    1.642804   -0.000042
      4          6           0       -0.856355    1.616405    0.000019
      5          6           0       -1.081446    0.117700    0.000012
      6          8           0       -2.388413   -0.319419    0.000051
      7          6           0       -0.008827   -0.586873    0.898140
      8          8           0       -0.028131   -1.759609   -0.000041
      9          6           0       -0.008889   -0.586880   -0.898173
     10          1           0        3.003396    0.068841   -0.882843
     11          1           0        3.002714    0.067069    0.884076
     12          1           0        2.525635   -1.397587   -0.000976
     13          1           0        1.111783    2.145413    0.880942
     14          1           0        1.111717    2.145340   -0.881098
     15          1           0       -1.295549    2.089524    0.882770
     16          1           0       -1.295620    2.089551   -0.882683
     17          1           0       -2.338809   -1.286543    0.000030
     18          1           0        0.000068   -0.772784    1.973965
     19          1           0       -0.000074   -0.772758   -1.974004
 ---------------------------------------------------------------------

 SCF Done:  E(RB3LYP) =  -423.138950452     A.U. after    1 cycles

 The electronic state is 1-A.
 Alpha  occ. eigenvalues --  -19.14425 -19.13780 -10.24282 -10.23732 -10.23728
 Alpha  occ. eigenvalues --  -10.20318 -10.18818 -10.18527 -10.17702  -1.06846
 Alpha  occ. eigenvalues --   -1.02030  -0.85063  -0.74421  -0.70855  -0.65641
 Alpha  occ. eigenvalues --   -0.65449  -0.56785  -0.53662  -0.52182  -0.47759
 Alpha  occ. eigenvalues --   -0.47143  -0.44046  -0.42785  -0.40351  -0.39506
 Alpha  occ. eigenvalues --   -0.37956  -0.36908  -0.34629  -0.34510  -0.34404
 Alpha  occ. eigenvalues --   -0.31646  -0.30157  -0.25272  -0.23934
 Alpha virt. eigenvalues --    0.07107   0.09950   0.10334   0.11836   0.12776
 Alpha virt. eigenvalues --    0.13141   0.14553   0.14594   0.15220   0.15966
 Alpha virt. eigenvalues --    0.17707   0.19434   0.19780   0.20178   0.21496

 Mulliken charges:
               1
     1  C   -0.499471
     2  C    0.345535
     3  C   -0.296001
     4  C   -0.294821
     5  C    0.467052
     6  O   -0.494973
     7  C   -0.068616
     8  O   -0.345368
     9  C   -0.068655
    10  H    0.115383
    11  H    0.115395
    12  H    0.137056
    13  H    0.104228
    14  H    0.104228
    15  H    0.111032
    16  H    0.111033
    17  H    0.286619
    18  H    0.085172
    19  H    0.085172
 Sum of Mulliken charges =   0.00000

 Dipole moment (field-independent basis, Debye):
    X=              1.1459    Y=              1.1362    Z=              0.0000  Tot=              1.6137
 Quadrupole moment (field-independent basis, Debye-Ang):
   XX=            -56.5434   YY=            -54.9302   ZZ=            -49.8689
   XY=              2.4448   XZ=              0.0003   YZ=             -0.0001

  Exact polarizability:  80.894   0.545  74.286   0.001   0.000  67.668
 Approx polarizability: 110.015   1.596 110.933   0.001   0.000 109.105

                      1                      2                      3
                      A                      A                      A
 Frequencies --    202.3143               223.4937               256.3267
 Red. masses --      1.8139                 2.3714                 1.1702
 Frc consts  --      0.0437                 0.0698                 0.0453
 IR Inten    --      0.0800                 0.0537                 0.0648

                      4                      5                      6
                      A                      A                      A
 Frequencies --    265.0079               310.7118               369.1300
 Red. masses --      3.0855                 4.6085                 2.3344
 Frc consts  --      0.1277                 0.2621                 0.1874
 IR Inten    --      1.5770                20.4714                 0.0988

                      7                      8                      9
                      A                      A                      A
 Frequencies --    440.9794               505.8011               540.3145
 Red. masses --      2.2144                 4.2276                 1.1801
 Frc consts  --      0.2537                 0.6372                 0.2030
 IR Inten    --      1.8911                 0.4908                78.3608

                     10                     11                     12
                      A                      A                      A
 Frequencies --    584.9155               690.0680               699.1411
 Red. masses --      5.6798                 4.6471                 4.1535
 Frc consts  --      1.1449                 1.3038                 1.1962
 IR Inten    --      4.3133                 2.1792                 3.0387

                     13                     14                     15
                      A                      A                      A
 Frequencies --    715.7684               746.6883               813.8123
 Red. masses --      3.1964                 2.8040                 2.5175
 Frc consts  --      0.9648                 0.9211                 0.9823
 IR Inten    --      0.6676                 3.1217                15.8793

                     16                     17                     18
                      A                      A                      A
 Frequencies --    827.9882               890.5345               902.1619
 Red. masses --      2.0836                 2.7430                 1.9378
 Frc consts  --      0.8416                 1.2817                 0.9292
 IR Inten    --      5.5916                25.8569                 1.5080

                     19                     20                     21
                      A                      A                      A
 Frequencies --    928.7640               975.0822              1036.5165
 Red. masses --      1.9535                 2.4447                 1.3142
 Frc consts  --      0.9928                 1.3695                 0.8319
 IR Inten    --      4.2141                 1.3844                 1.3603

                     22                     23                     24
                      A                      A                      A
 Frequencies --   1053.5535              1062.4983              1085.8578
 Red. masses --      2.5311                 1.6230                 2.2988
 Frc consts  --      1.6553                 1.0795                 1.5970
 IR Inten    --     14.3367                 0.0309                15.4535

                     25                     26                     27
                      A                      A                      A
 Frequencies --   1127.4536              1131.5759              1156.0451
 Red. masses --      2.4950                 1.7209                 1.3479
 Frc consts  --      1.8686                 1.2983                 1.0614
 IR Inten    --     71.3781                 0.0093                 2.1462

                     28                     29                     30
                      A                      A                      A
 Frequencies --   1198.1973              1219.8546              1235.0882
 Red. masses --      2.1698                 1.5660                 1.8149
 Frc consts  --      1.8354                 1.3729                 1.6312
 IR Inten    --     17.5479                 0.0310                16.5891

                     31                     32                     33
                      A                      A                      A
 Frequencies --   1247.2624              1266.4735              1281.6628
 Red. masses --      1.1848                 1.7931                 2.3307
 Frc consts  --      1.0859                 1.6946                 2.2557
 IR Inten    --      0.3004                 8.4660                36.3765

                     34                     35                     36
                      A                      A                      A
 Frequencies --   1351.1064              1380.4458              1409.9553
 Red. masses --      2.0634                 2.5145                 1.4707
 Frc consts  --      2.2193                 2.8232                 1.7226
 IR Inten    --     76.8545                59.4669                 3.3103

                     37                     38                     39
                      A                      A                      A
 Frequencies --   1424.8922              1486.9620              1495.6347
 Red. masses --      2.0496                 1.0812                 1.0616
 Frc consts  --      2.4518                 1.4085                 1.3991
 IR Inten    --     37.1577                 0.4533                 1.8594

                     40                     41                     42
                      A                      A                      A
 Frequencies --   1499.7478              1513.3707              3030.0903
 Red. masses --      1.0477                 1.1386                 1.0366
 Frc consts  --      1.3884                 1.5365                 5.6076
 IR Inten    --      4.9077                 5.2535                26.5898

                     43                     44                     45
                      A                      A                      A
 Frequencies --   3046.2146              3061.4782              3081.1436
 Red. masses --      1.0586                 1.0600                 1.1061
 Frc consts  --      5.7876                 5.8533                 6.1866
 IR Inten    --     41.3803                35.5364                 1.9868

                     46                     47                     48
                      A                      A                      A
 Frequencies --   3088.4421              3097.1900              3104.8179
 Red. masses --      1.1007                 1.0891                 1.0944
 Frc consts  --      6.1858                 6.1554                 6.2158
 IR Inten    --     22.3274                75.4232                 1.3050

                     49                     50                     51
                      A                      A                      A
 Frequencies --   3105.4466              3118.9033              3736.6476
 Red. masses --      1.1054                 1.0997                 1.0641
 Frc consts  --      6.2808                 6.3028                 8.7542
 IR Inten    --     34.6670                10.4898                25.3450

 - Thermochemistry -
 -------------------
 Temperature   298.150 Kelvin.  Pressure   1.00000 Atm.
 Atom     1 has atomic number  6 and mass  12.00000

 Molecular mass:   126.06808 amu.
 Principal axes and moments of inertia in atomic units:
                           1         2         3
     Eigenvalues --   640.64630 977.938071390.58603
           X            0.99998  -0.00581   0.00000
           Y            0.00581   0.99998   0.00000
           Z            0.00000   0.00000   1.00000
 This molecule is an asymmetric top.
 Rotational symmetry number  1.
 Warning -- assumption of classical behavior for rotation
           may cause significant error
 Rotational temperatures (Kelvin)      0.13520     0.08857     0.06229
 Rotational constants (GHZ):           2.81706     1.84546     1.29783
 Zero-point vibrational energy     418833.7 (Joules/Mol)
                                  100.10366 (Kcal/Mol)
 Warning -- explicit consideration of  10 degrees of freedom as
           vibrations may cause significant error
 Vibrational temperatures:    291.08   321.56   368.80   381.29   447.04
          (Kelvin)            531.10   634.47   727.73   777.39   841.56
                              992.85  1005.91  1029.83  1074.32  1170.89
                             1191.29  1281.28  1298.01  1336.28  1402.92
                             1491.31  1515.83  1528.70  1562.31  1622.15
                             1628.08  1663.29  1723.94  1755.10  1777.01
                             1794.53  1822.17  1844.02  1943.94  1986.15
                             2028.61  2050.10  2139.40  2151.88  2157.80
                             2177.40  4359.62  4382.82  4404.78  4433.07
                             4443.57  4456.16  4467.13  4468.04  4487.40
                             5376.20

 Zero-point correction=                           0.159525 (Hartree/Particle)
 Thermal correction to Energy=                    0.167080
 Thermal correction to Enthalpy=                  0.168024
 Thermal correction to Gibbs Free Energy=         0.128197
 Sum of electronic and zero-point Energies=           -422.979425
 Sum of electronic and thermal Energies=              -422.971871
 Sum of electronic and thermal Enthalpies=            -422.970927
 Sum of electronic and thermal Free Energies=         -423.010753

                     E (Thermal)             CV                S
                      KCal/Mol        Cal/Mol-Kelvin    Cal/Mol-Kelvin
 Total                  104.844             31.290             83.823
 Electronic               0.000              0.000              0.000
 Translational            0.889              2.981             40.409
 Rotational               0.889              2.981             28.257
 Vibrational            103.067             25.329             15.157
 Vibration     1          0.639              1.837              2.112
 Vibration     2          0.649              1.805              1.931
 Vibration     3          0.666              1.752              1.687
 Vibration     4          0.671              1.737              1.629
 Vibration     5          0.700              1.653              1.359
 Vibration     6          0.741              1.536              1.083
 Vibration     7          0.801              1.381              0.824
 Vibration     8          0.861              1.237              0.644
 Vibration     9          0.895              1.161              0.565
 Vibration    10          0.942              1.064              0.476

 Normal termination of Gaussian 09 at Mon Jan 27 19:32:44 2020.
