 Gaussian 09, Revision D.01,
 Gaussian 09:  ES64L-G09RevD.01 24-Apr-2013

 -----------------------------
 # b3lyp 6-31G(2df,p) opt Freq
 -----------------------------

 -----
 titel
 -----
 Symbolic Z-matrix:
 Charge =  0 Multiplicity = 1

 SCF Done:  E(RB3LYP) =  -423.135711619     A.U. after   13 cycles
 Optimization completed.
    -- Stationary point found.
 Normal termination of Gaussian 09 at Mon Jan 27 22:52:58 2020.

 ----------------------------------------------------------------------
 #N Geom=AllCheck Guess=TCheck SCRF=Check GenChk RB3LYP/6-31G(2df,p) Fr
 eq
 ----------------------------------------------------------------------

 Structure from the checkpoint file:  "/scratch/puck/g09_e1472693-954d-4af8-ae73-2856597f02da/Gau-75004.chk"
 -----
 titel
 -----
 Charge =  0 Multiplicity = 1

                         Standard orientation:
 ---------------------------------------------------------------------
 Center     Atomic      Atomic             Coordinates (Angstroms)
 Number     Number       Type             X           Y           Z
 ---------------------------------------------------------------------
      1          8           0       -2.761922    0.450408    0.025709
      2          6           0       -1.717388   -0.488022   -0.038938
      3          6           0       -0.563848   -0.263251    0.958857
      4          6           0        0.306619   -1.161332    0.028991
      5          6           0        1.816510   -0.979881    0.097224
      6          8           0        2.219232    0.306157   -0.335601
      7          6           0        1.367342    1.334189    0.142008
      8          6           0       -0.099339    0.939063    0.074054
      9          6           0       -0.471115   -0.204463   -0.931413
     10          1           0       -3.301450    0.354021   -0.765035
     11          1           0       -2.101950   -1.516684   -0.089008
     12          1           0       -0.617766   -0.301382    2.048554
     13          1           0        0.024610   -2.219592   -0.002463
     14          1           0        2.171128   -1.179798    1.124482
     15          1           0        2.320017   -1.690464   -0.566960
     16          1           0        1.633207    1.616162    1.176735
     17          1           0        1.564610    2.203168   -0.494764
     18          1           0       -0.765215    1.802037    0.084155
     19          1           0       -0.418358   -0.177811   -2.021253
 ---------------------------------------------------------------------

 SCF Done:  E(RB3LYP) =  -423.135711619     A.U. after    1 cycles

 The electronic state is 1-A.
 Alpha  occ. eigenvalues --  -19.14027 -19.13155 -10.23641 -10.22306 -10.22019
 Alpha  occ. eigenvalues --  -10.19676 -10.19489 -10.19447 -10.18850  -1.03014
 Alpha  occ. eigenvalues --   -1.02458  -0.90433  -0.75006  -0.69040  -0.63287
 Alpha  occ. eigenvalues --   -0.63069  -0.60116  -0.51395  -0.49833  -0.49549
 Alpha  occ. eigenvalues --   -0.49109  -0.45527  -0.45085  -0.40871  -0.39458
 Alpha  occ. eigenvalues --   -0.38407  -0.37015  -0.32827  -0.31510  -0.30596
 Alpha  occ. eigenvalues --   -0.30073  -0.28230  -0.26561  -0.24337
 Alpha virt. eigenvalues --    0.07803   0.10024   0.11673   0.12532   0.13797
 Alpha virt. eigenvalues --    0.14101   0.14527   0.15688   0.16117   0.16507
 Alpha virt. eigenvalues --    0.16910   0.18380   0.18797   0.19993   0.22204

 Mulliken charges:
               1
     1  O   -0.442312
     2  C    0.140702
     3  C   -0.093367
     4  C   -0.019492
     5  C   -0.108663
     6  O   -0.246441
     7  C   -0.118472
     8  C   -0.007208
     9  C   -0.119648
    10  H    0.284519
    11  H    0.061058
    12  H    0.069149
    13  H    0.062220
    14  H    0.085226
    15  H    0.106745
    16  H    0.085334
    17  H    0.106829
    18  H    0.085015
    19  H    0.068805
 Sum of Mulliken charges =   0.00000

 Dipole moment (field-independent basis, Debye):
    X=             -1.1815    Y=             -0.9117    Z=             -0.5917  Tot=              1.6054
 Quadrupole moment (field-independent basis, Debye-Ang):
   XX=            -56.3099   YY=            -50.9459   ZZ=            -51.7225
   XY=              0.4655   XZ=              5.9185   YZ=             -0.2111

  Exact polarizability:  82.104  -0.658  75.982   2.579   0.223  66.774
 Approx polarizability: 109.490  -2.186 112.313   1.149   0.411 106.923

                      1                      2                      3
                      A                      A                      A
 Frequencies --    179.3268               231.3035               242.7258
 Red. masses --      3.9487                 2.5595                 1.8745
 Frc consts  --      0.0748                 0.0807                 0.0651
 IR Inten    --      9.4173                 3.4685                11.0599

                      4                      5                      6
                      A                      A                      A
 Frequencies --    262.5996               306.5761               415.9659
 Red. masses --      1.6512                 2.0478                 2.8687
 Frc consts  --      0.0671                 0.1134                 0.2924
 IR Inten    --     73.9523                17.3468                 4.3319

                      7                      8                      9
                      A                      A                      A
 Frequencies --    449.5646               567.8446               608.4492
 Red. masses --      4.9906                 6.1565                 5.2158
 Frc consts  --      0.5943                 1.1696                 1.1377
 IR Inten    --      0.4719                 8.9021                 5.9540

                     10                     11                     12
                      A                      A                      A
 Frequencies --    756.2962               772.3398               788.3248
 Red. masses --      3.1784                 3.1295                 2.8604
 Frc consts  --      1.0711                 1.0999                 1.0473
 IR Inten    --      3.0969                 1.0295                 0.5840

                     13                     14                     15
                      A                      A                      A
 Frequencies --    828.2889               871.6940               909.9442
 Red. masses --      2.6585                 3.2593                 2.5404
 Frc consts  --      1.0746                 1.4591                 1.2393
 IR Inten    --      0.6032                24.1195                 8.9137

                     16                     17                     18
                      A                      A                      A
 Frequencies --    917.6912               986.9761               996.7738
 Red. masses --      2.3300                 2.3832                 1.4312
 Frc consts  --      1.1561                 1.3678                 0.8378
 IR Inten    --     10.5387                 3.8436                 3.7364

                     19                     20                     21
                      A                      A                      A
 Frequencies --   1015.7039              1048.3776              1064.5549
 Red. masses --      1.3529                 1.8271                 1.6926
 Frc consts  --      0.8223                 1.1832                 1.1302
 IR Inten    --      1.2696                 2.0095                 3.7873

                     22                     23                     24
                      A                      A                      A
 Frequencies --   1071.3367              1106.2152              1112.8375
 Red. masses --      2.6476                 2.2575                 2.1543
 Frc consts  --      1.7904                 1.6277                 1.5719
 IR Inten    --      7.1307                49.0225                31.3921

                     25                     26                     27
                      A                      A                      A
 Frequencies --   1150.0763              1156.1580              1178.8607
 Red. masses --      2.0126                 1.7295                 3.4178
 Frc consts  --      1.5684                 1.3621                 2.7985
 IR Inten    --     79.4377                 5.2968                18.8992

                     28                     29                     30
                      A                      A                      A
 Frequencies --   1199.9089              1215.1900              1237.0397
 Red. masses --      1.4623                 1.4425                 1.7037
 Frc consts  --      1.2404                 1.2551                 1.5361
 IR Inten    --      6.1389                30.7475                32.3724

                     31                     32                     33
                      A                      A                      A
 Frequencies --   1257.4471              1264.4524              1299.9039
 Red. masses --      1.6393                 1.1644                 1.2733
 Frc consts  --      1.5272                 1.0968                 1.2676
 IR Inten    --     34.5512                11.4993                 8.8260

                     34                     35                     36
                      A                      A                      A
 Frequencies --   1320.6580              1338.6360              1381.4903
 Red. masses --      1.3641                 1.6690                 1.2641
 Frc consts  --      1.4018                 1.7621                 1.4214
 IR Inten    --     10.9783                 7.3276                 0.1312

                     37                     38                     39
                      A                      A                      A
 Frequencies --   1393.4800              1425.2567              1446.2229
 Red. masses --      1.7460                 1.3702                 1.4058
 Frc consts  --      1.9976                 1.6399                 1.7324
 IR Inten    --      0.5717                24.4563                 2.6632

                     40                     41                     42
                      A                      A                      A
 Frequencies --   1500.2102              1509.5413              2941.4954
 Red. masses --      1.0794                 1.1009                 1.0718
 Frc consts  --      1.4314                 1.4780                 5.4638
 IR Inten    --      0.0332                 1.3108                54.2817

                     43                     44                     45
                      A                      A                      A
 Frequencies --   2948.0585              3001.3264              3044.6515
 Red. masses --      1.0726                 1.0840                 1.0847
 Frc consts  --      5.4923                 5.7531                 5.9241
 IR Inten    --     99.9473                63.1826                38.3963

                     46                     47                     48
                      A                      A                      A
 Frequencies --   3062.3930              3065.9744              3094.2916
 Red. masses --      1.0887                 1.0899                 1.0899
 Frc consts  --      6.0159                 6.0366                 6.1481
 IR Inten    --     47.4147                38.2953                94.9543

                     49                     50                     51
                      A                      A                      A
 Frequencies --   3098.3018              3117.2255              3822.3152
 Red. masses --      1.0908                 1.0881                 1.0662
 Frc consts  --      6.1694                 6.2295                 9.1776
 IR Inten    --     14.3797                22.2467                30.2658

 - Thermochemistry -
 -------------------
 Temperature   298.150 Kelvin.  Pressure   1.00000 Atm.
 Atom     1 has atomic number  8 and mass  15.99491

 Molecular mass:   126.06808 amu.
 Principal axes and moments of inertia in atomic units:
                           1         2         3
     Eigenvalues --   453.584291334.688771532.38121
           X            0.99989   0.00171   0.01479
           Y           -0.00177   0.99999   0.00374
           Z           -0.01478  -0.00376   0.99988
 This molecule is an asymmetric top.
 Rotational symmetry number  1.
 Warning -- assumption of classical behavior for rotation
           may cause significant error
 Rotational temperatures (Kelvin)      0.19095     0.06489     0.05652
 Rotational constants (GHZ):           3.97884     1.35218     1.17774
 Zero-point vibrational energy     424568.3 (Joules/Mol)
                                  101.47426 (Kcal/Mol)
 Warning -- explicit consideration of   9 degrees of freedom as
           vibrations may cause significant error
 Vibrational temperatures:    258.01   332.79   349.23   377.82   441.09
          (Kelvin)            598.48   646.82   817.00   875.42  1088.14
                             1111.22  1134.22  1191.72  1254.17  1309.21
                             1320.35  1420.04  1434.13  1461.37  1508.38
                             1531.66  1541.41  1591.59  1601.12  1654.70
                             1663.45  1696.12  1726.40  1748.39  1779.82
                             1809.18  1819.26  1870.27  1900.13  1926.00
                             1987.65  2004.90  2050.62  2080.79  2158.47
                             2171.89  4232.15  4241.59  4318.23  4380.57
                             4406.09  4411.25  4451.99  4457.76  4484.99
                             5499.45

 Zero-point correction=                           0.161710 (Hartree/Particle)
 Thermal correction to Energy=                    0.168860
 Thermal correction to Enthalpy=                  0.169804
 Thermal correction to Gibbs Free Energy=         0.130463
 Sum of electronic and zero-point Energies=           -422.974002
 Sum of electronic and thermal Energies=              -422.966852
 Sum of electronic and thermal Enthalpies=            -422.965907
 Sum of electronic and thermal Free Energies=         -423.005248

                     E (Thermal)             CV                S
                      KCal/Mol        Cal/Mol-Kelvin    Cal/Mol-Kelvin
 Total                  105.961             29.121             82.800
 Electronic               0.000              0.000              0.000
 Translational            0.889              2.981             40.409
 Rotational               0.889              2.981             28.319
 Vibrational            104.184             23.159             14.072
 Vibration     1          0.629              1.868              2.335
 Vibration     2          0.653              1.793              1.869
 Vibration     3          0.659              1.775              1.783
 Vibration     4          0.670              1.741              1.644
 Vibration     5          0.697              1.661              1.381
 Vibration     6          0.779              1.436              0.906
 Vibration     7          0.808              1.362              0.797
 Vibration     8          0.924              1.101              0.508
 Vibration     9          0.967              1.014              0.435

 Optimization completed.
    -- Stationary point found.
 Normal termination of Gaussian 09 at Mon Jan 27 23:39:43 2020.
