 Gaussian 09, Revision D.01,
 Gaussian 09:  ES64L-G09RevD.01 24-Apr-2013

 -----------------------------
 # b3lyp 6-31G(2df,p) opt Freq
 -----------------------------

 -----
 titel
 -----
 Symbolic Z-matrix:
 Charge =  0 Multiplicity = 1

 SCF Done:  E(RB3LYP) =  -423.202487915     A.U. after   14 cycles
 Optimization completed.
    -- Stationary point found.
 Normal termination of Gaussian 09 at Tue Jan 28 00:42:10 2020.

 ----------------------------------------------------------------------
 #N Geom=AllCheck Guess=TCheck SCRF=Check GenChk RB3LYP/6-31G(2df,p) Fr
 eq
 ----------------------------------------------------------------------

 Structure from the checkpoint file:  "/scratch/puck/g09_5f2ba8f8-c1e4-46b1-bdf6-362f6cba9b74/Gau-36890.chk"
 -----
 titel
 -----
 Charge =  0 Multiplicity = 1

                         Standard orientation:
 ---------------------------------------------------------------------
 Center     Atomic      Atomic             Coordinates (Angstroms)
 Number     Number       Type             X           Y           Z
 ---------------------------------------------------------------------
      1          8           0       -1.277085    1.902339    0.575369
      2          6           0       -0.502957    1.102059   -0.320454
      3          6           0       -1.445676    0.124301   -0.972201
      4          6           0       -1.488496   -1.172909   -0.670581
      5          6           0       -0.617642   -1.818916    0.371817
      6          6           0        0.087199   -0.781396    1.256712
      7          6           0        0.653376    0.393347    0.427996
      8          6           0        1.726845   -0.072828   -0.536205
      9          8           0        2.905035    0.138439   -0.391257
     10          1           0       -0.737932    2.656460    0.838319
     11          1           0       -0.075238    1.747626   -1.104973
     12          1           0       -2.124809    0.540626   -1.710589
     13          1           0       -2.186634   -1.820830   -1.195888
     14          1           0       -1.227313   -2.484280    0.995218
     15          1           0        0.113411   -2.477892   -0.119664
     16          1           0       -0.636463   -0.353866    1.958382
     17          1           0        0.882162   -1.248567    1.845517
     18          1           0        1.135871    1.112576    1.098799
     19          1           0        1.357448   -0.640029   -1.420529
 ---------------------------------------------------------------------

 SCF Done:  E(RB3LYP) =  -423.202487915     A.U. after    1 cycles

 The electronic state is 1-A.
 Alpha  occ. eigenvalues --  -19.14396 -19.13870 -10.26816 -10.24622 -10.19608
 Alpha  occ. eigenvalues --  -10.19555 -10.19422 -10.19311 -10.18617  -1.04494
 Alpha  occ. eigenvalues --   -1.02494  -0.84204  -0.76316  -0.74622  -0.64519
 Alpha  occ. eigenvalues --   -0.62739  -0.57960  -0.52313  -0.50962  -0.50426
 Alpha  occ. eigenvalues --   -0.46196  -0.45235  -0.43240  -0.42498  -0.40230
 Alpha  occ. eigenvalues --   -0.39936  -0.38949  -0.35962  -0.35038  -0.33913
 Alpha  occ. eigenvalues --   -0.31757  -0.27961  -0.26130  -0.24466
 Alpha virt. eigenvalues --   -0.02489   0.00535   0.07550   0.09682   0.11775
 Alpha virt. eigenvalues --    0.12471   0.13993   0.14868   0.15330   0.16780
 Alpha virt. eigenvalues --    0.17095   0.19052   0.20892   0.21491   0.22792

 Mulliken charges:
               1
     1  O   -0.436734
     2  C    0.061989
     3  C   -0.057636
     4  C   -0.032491
     5  C   -0.261557
     6  C   -0.229812
     7  C   -0.112686
     8  C    0.152633
     9  O   -0.257940
    10  H    0.283040
    11  H    0.074694
    12  H    0.096155
    13  H    0.094042
    14  H    0.114361
    15  H    0.116105
    16  H    0.124711
    17  H    0.106881
    18  H    0.081778
    19  H    0.082464
 Sum of Mulliken charges =   0.00000

 Dipole moment (field-independent basis, Debye):
    X=             -1.5494    Y=             -0.2341    Z=              0.0134  Tot=              1.5671
 Quadrupole moment (field-independent basis, Debye-Ang):
   XX=            -66.3093   YY=            -46.8937   ZZ=            -51.7482
   XY=              2.2648   XZ=              2.8117   YZ=              0.1311

  Exact polarizability:  78.820   3.296  84.765   4.439  -0.771  67.436
 Approx polarizability: 116.725   4.237 129.250   4.338  -2.074  99.576

                      1                      2                      3
                      A                      A                      A
 Frequencies --     40.0886                94.8268               158.3685
 Red. masses --      4.4175                 3.7731                 3.8736
 Frc consts  --      0.0042                 0.0200                 0.0572
 IR Inten    --      6.3267                 2.6176                 0.8680

                      4                      5                      6
                      A                      A                      A
 Frequencies --    230.4257               275.3997               303.6110
 Red. masses --      2.4324                 2.5564                 1.1583
 Frc consts  --      0.0761                 0.1142                 0.0629
 IR Inten    --      1.2355                 5.1656                92.7964

                      7                      8                      9
                      A                      A                      A
 Frequencies --    311.6246               385.0291               460.6320
 Red. masses --      2.0737                 4.6862                 3.9253
 Frc consts  --      0.1186                 0.4093                 0.4907
 IR Inten    --     13.9009                 7.5944                 4.7911

                     10                     11                     12
                      A                      A                      A
 Frequencies --    495.4806               531.0404               611.7584
 Red. masses --      3.8546                 2.4988                 4.2632
 Frc consts  --      0.5575                 0.4152                 0.9400
 IR Inten    --      1.1286                19.2478                10.1681

                     13                     14                     15
                      A                      A                      A
 Frequencies --    740.9163               764.3154               838.3235
 Red. masses --      1.7407                 1.6725                 3.5596
 Frc consts  --      0.5630                 0.5757                 1.4739
 IR Inten    --      6.4736                 1.2715                 4.1259

                     16                     17                     18
                      A                      A                      A
 Frequencies --    869.2516               916.0815               952.2437
 Red. masses --      2.5738                 2.4197                 1.7958
 Frc consts  --      1.1458                 1.1964                 0.9594
 IR Inten    --      4.6019                 8.2464                10.7561

                     19                     20                     21
                      A                      A                      A
 Frequencies --    992.8337              1008.9743              1011.3227
 Red. masses --      2.4661                 1.9858                 1.5372
 Frc consts  --      1.4322                 1.1911                 0.9263
 IR Inten    --      2.7790                 5.0972                 1.5689

                     22                     23                     24
                      A                      A                      A
 Frequencies --   1056.2466              1061.5722              1107.8855
 Red. masses --      3.1333                 2.1226                 1.9725
 Frc consts  --      2.0596                 1.4093                 1.4264
 IR Inten    --     61.0036                25.3097                 4.2744

                     25                     26                     27
                      A                      A                      A
 Frequencies --   1126.8226              1159.6527              1204.2083
 Red. masses --      2.4093                 1.0720                 1.2403
 Frc consts  --      1.8024                 0.8494                 1.0597
 IR Inten    --     34.7838                 0.8795                 4.5562

                     28                     29                     30
                      A                      A                      A
 Frequencies --   1240.9551              1257.5589              1276.1096
 Red. masses --      1.0871                 1.2692                 1.3743
 Frc consts  --      0.9864                 1.1826                 1.3186
 IR Inten    --     72.1394                 1.1801                 2.8531

                     31                     32                     33
                      A                      A                      A
 Frequencies --   1313.7006              1357.9324              1373.7148
 Red. masses --      1.3763                 1.3690                 1.5190
 Frc consts  --      1.3995                 1.4873                 1.6889
 IR Inten    --      2.0519                 0.6863                 4.8838

                     34                     35                     36
                      A                      A                      A
 Frequencies --   1387.4191              1405.7528              1433.1408
 Red. masses --      1.3174                 1.4364                 1.2384
 Frc consts  --      1.4941                 1.6724                 1.4986
 IR Inten    --      3.0411                11.6028                 4.4705

                     37                     38                     39
                      A                      A                      A
 Frequencies --   1446.5910              1473.9842              1489.6174
 Red. masses --      1.6050                 1.0802                 1.0947
 Frc consts  --      1.9789                 1.3827                 1.4312
 IR Inten    --     13.8089                 4.3279                 5.1257

                     40                     41                     42
                      A                      A                      A
 Frequencies --   1722.8622              1824.5588              2876.2726
 Red. masses --      6.6770                10.0751                 1.0815
 Frc consts  --     11.6770                19.7612                 5.2714
 IR Inten    --      5.0480               171.8143                76.0866

                     43                     44                     45
                      A                      A                      A
 Frequencies --   2959.6637              3001.8712              3041.0998
 Red. masses --      1.0828                 1.0697                 1.0766
 Frc consts  --      5.5885                 5.6795                 5.8664
 IR Inten    --     51.4442                24.0306                 3.3493

                     46                     47                     48
                      A                      A                      A
 Frequencies --   3049.4372              3057.8572              3094.2103
 Red. masses --      1.0816                 1.0757                 1.1053
 Frc consts  --      5.9257                 5.9260                 6.2346
 IR Inten    --     31.4591                33.2248                17.9074

                     49                     50                     51
                      A                      A                      A
 Frequencies --   3148.2548              3175.9824              3799.6764
 Red. masses --      1.0847                 1.0960                 1.0661
 Frc consts  --      6.3346                 6.5137                 9.0687
 IR Inten    --      9.8922                25.2162                14.0578

 - Thermochemistry -
 -------------------
 Temperature   298.150 Kelvin.  Pressure   1.00000 Atm.
 Atom     1 has atomic number  8 and mass  15.99491

 Molecular mass:   126.06808 amu.
 Principal axes and moments of inertia in atomic units:
                           1         2         3
     Eigenvalues --   848.535251239.084111589.45531
           X            0.99940   0.02867   0.01958
           Y           -0.02839   0.99949  -0.01469
           Z           -0.01999   0.01413   0.99970
 This molecule is an asymmetric top.
 Rotational symmetry number  1.
 Warning -- assumption of classical behavior for rotation
           may cause significant error
 Rotational temperatures (Kelvin)      0.10207     0.06990     0.05449
 Rotational constants (GHZ):           2.12689     1.45651     1.13545
 Zero-point vibrational energy     418197.5 (Joules/Mol)
                                   99.95160 (Kcal/Mol)
 Warning -- explicit consideration of  12 degrees of freedom as
           vibrations may cause significant error
 Vibrational temperatures:     57.68   136.43   227.86   331.53   396.24
          (Kelvin)            436.83   448.36   553.97   662.75   712.89
                              764.05   880.18  1066.01  1099.68  1206.16
                             1250.66  1318.04  1370.06  1428.46  1451.69
                             1455.07  1519.70  1527.36  1594.00  1621.24
                             1668.48  1732.58  1785.46  1809.34  1836.03
                             1890.12  1953.76  1976.47  1996.18  2022.56
                             2061.97  2081.32  2120.73  2143.22  2478.81
                             2625.13  4138.31  4258.29  4319.02  4375.46
                             4387.45  4399.57  4451.87  4529.63  4569.52
                             5466.88

 Zero-point correction=                           0.159283 (Hartree/Particle)
 Thermal correction to Energy=                    0.168065
 Thermal correction to Enthalpy=                  0.169009
 Thermal correction to Gibbs Free Energy=         0.125143
 Sum of electronic and zero-point Energies=           -423.043205
 Sum of electronic and thermal Energies=              -423.034423
 Sum of electronic and thermal Enthalpies=            -423.033479
 Sum of electronic and thermal Free Energies=         -423.077345

                     E (Thermal)             CV                S
                      KCal/Mol        Cal/Mol-Kelvin    Cal/Mol-Kelvin
 Total                  105.462             32.641             92.324
 Electronic               0.000              0.000              0.000
 Translational            0.889              2.981             40.409
 Rotational               0.889              2.981             28.904
 Vibrational            103.685             26.679             23.012
 Vibration     1          0.594              1.981              5.255
 Vibration     2          0.603              1.953              3.558
 Vibration     3          0.621              1.893              2.569
 Vibration     4          0.652              1.795              1.876
 Vibration     5          0.677              1.719              1.562
 Vibration     6          0.695              1.667              1.397
 Vibration     7          0.700              1.652              1.354
 Vibration     8          0.754              1.502              1.019
 Vibration     9          0.818              1.337              0.764
 Vibration    10          0.851              1.260              0.670
 Vibration    11          0.886              1.181              0.585
 Vibration    12          0.971              1.007              0.430

 Normal termination of Gaussian 09 at Tue Jan 28 02:53:18 2020.
