 Gaussian 09, Revision D.01,
 Gaussian 09:  ES64L-G09RevD.01 24-Apr-2013

 -----------------------------
 # b3lyp 6-31G(2df,p) opt Freq
 -----------------------------

 -----
 titel
 -----
 Symbolic Z-matrix:
 Charge =  0 Multiplicity = 1

 SCF Done:  E(RB3LYP) =  -423.192975075     A.U. after   14 cycles
 Optimization completed.
    -- Stationary point found.
 Normal termination of Gaussian 09 at Mon Jan 27 16:18:37 2020.

 ----------------------------------------------------------------------
 #N Geom=AllCheck Guess=TCheck SCRF=Check GenChk RB3LYP/6-31G(2df,p) Fr
 eq
 ----------------------------------------------------------------------

 Structure from the checkpoint file:  "/scratch/puck/g09_83d0f780-1c71-412f-9734-86696a2f6bda/Gau-36905.chk"
 -----
 titel
 -----
 Charge =  0 Multiplicity = 1

                         Standard orientation:
 ---------------------------------------------------------------------
 Center     Atomic      Atomic             Coordinates (Angstroms)
 Number     Number       Type             X           Y           Z
 ---------------------------------------------------------------------
      1          6           0        1.412403    1.608853    0.093582
      2          6           0        0.989917    0.148667   -0.009415
      3          8           0        2.158837   -0.556807   -0.395695
      4          6           0        0.332881   -0.417634    1.310224
      5          6           0       -1.067469   -0.813583    0.788245
      6          6           0       -0.713227   -1.495612   -0.573535
      7          6           0       -0.202653   -0.072368   -0.985382
      8          6           0       -1.377495    0.402681   -0.106711
      9          8           0       -2.225577    1.241176   -0.171795
     10          1           0        0.569459    2.243973    0.378600
     11          1           0        2.203395    1.716699    0.841289
     12          1           0        1.802574    1.957943   -0.866825
     13          1           0        1.941933   -1.488928   -0.495821
     14          1           0        0.894760   -1.283440    1.673659
     15          1           0        0.294852    0.324060    2.112307
     16          1           0       -1.788848   -1.229155    1.488847
     17          1           0        0.022911   -2.304246   -0.534121
     18          1           0       -1.586343   -1.819151   -1.141925
     19          1           0       -0.066920    0.241261   -2.018132
 ---------------------------------------------------------------------

 SCF Done:  E(RB3LYP) =  -423.192975075     A.U. after    1 cycles

 The electronic state is 1-A.
 Alpha  occ. eigenvalues --  -19.14279 -19.14005 -10.27306 -10.25227 -10.21110
 Alpha  occ. eigenvalues --  -10.20675 -10.20043 -10.19601 -10.17674  -1.05105
 Alpha  occ. eigenvalues --   -1.02895  -0.89676  -0.75954  -0.72055  -0.66062
 Alpha  occ. eigenvalues --   -0.63603  -0.57176  -0.53393  -0.52442  -0.47793
 Alpha  occ. eigenvalues --   -0.45999  -0.44109  -0.43373  -0.41612  -0.39191
 Alpha  occ. eigenvalues --   -0.38390  -0.38105  -0.37062  -0.35951  -0.34475
 Alpha  occ. eigenvalues --   -0.33853  -0.32196  -0.27356  -0.23810
 Alpha virt. eigenvalues --   -0.00900   0.06153   0.10729   0.11211   0.12543
 Alpha virt. eigenvalues --    0.13052   0.13751   0.15054   0.16081   0.16420
 Alpha virt. eigenvalues --    0.17029   0.18472   0.18812   0.20109   0.21113

 Mulliken charges:
               1
     1  C   -0.430144
     2  C    0.415784
     3  O   -0.483925
     4  C   -0.286565
     5  C   -0.136967
     6  C   -0.273575
     7  C   -0.181639
     8  C    0.438069
     9  O   -0.329434
    10  H    0.131343
    11  H    0.125384
    12  H    0.126577
    13  H    0.274418
    14  H    0.105198
    15  H    0.115136
    16  H    0.086677
    17  H    0.092201
    18  H    0.124346
    19  H    0.087115
 Sum of Mulliken charges =   0.00000

 Dipole moment (field-independent basis, Debye):
    X=              0.8223    Y=             -2.4688    Z=              0.3754  Tot=              2.6291
 Quadrupole moment (field-independent basis, Debye-Ang):
   XX=            -62.7148   YY=            -51.4469   ZZ=            -51.5097
   XY=              4.1297   XZ=              0.3761   YZ=              0.9946

  Exact polarizability:  78.874  -0.536  76.457  -0.124  -0.485  68.615
 Approx polarizability: 117.782 -10.106 116.217  -1.277  -0.772 103.433

                      1                      2                      3
                      A                      A                      A
 Frequencies --    131.3476               161.8541               224.0516
 Red. masses --      5.8772                 2.5119                 1.1890
 Frc consts  --      0.0597                 0.0388                 0.0352
 IR Inten    --      2.8422                 0.3116                24.0212

                      4                      5                      6
                      A                      A                      A
 Frequencies --    249.0722               287.6101               361.8796
 Red. masses --      1.3440                 1.9034                 3.4994
 Frc consts  --      0.0491                 0.0928                 0.2700
 IR Inten    --     22.0038                39.0963                 2.8867

                      7                      8                      9
                      A                      A                      A
 Frequencies --    381.3815               434.7592               455.8244
 Red. masses --      2.9856                 2.4325                 2.6356
 Frc consts  --      0.2559                 0.2709                 0.3226
 IR Inten    --      3.7819                 1.0396                 2.4038

                     10                     11                     12
                      A                      A                      A
 Frequencies --    516.6462               574.3291               637.4377
 Red. masses --      3.1748                 4.1370                 3.7977
 Frc consts  --      0.4993                 0.8040                 0.9092
 IR Inten    --      2.2422                12.8738                 0.6434

                     13                     14                     15
                      A                      A                      A
 Frequencies --    735.6842               781.6421               808.5402
 Red. masses --      2.9732                 3.9643                 3.3106
 Frc consts  --      0.9481                 1.4270                 1.2751
 IR Inten    --      4.8856                 3.3733                 3.3344

                     16                     17                     18
                      A                      A                      A
 Frequencies --    832.9712               910.1716               929.2869
 Red. masses --      2.9466                 2.0281                 2.0733
 Frc consts  --      1.2046                 0.9899                 1.0549
 IR Inten    --      7.5690                 1.5793                 7.1279

                     19                     20                     21
                      A                      A                      A
 Frequencies --    958.5154               969.9913               992.7497
 Red. masses --      2.0414                 2.1858                 1.7304
 Frc consts  --      1.1050                 1.2117                 1.0048
 IR Inten    --     26.3623                 1.9141                21.1192

                     22                     23                     24
                      A                      A                      A
 Frequencies --   1015.5280              1024.4140              1031.0809
 Red. masses --      1.5632                 1.6986                 1.7496
 Frc consts  --      0.9498                 1.0503                 1.0959
 IR Inten    --      5.0730                26.2559                 2.8608

                     25                     26                     27
                      A                      A                      A
 Frequencies --   1088.0745              1111.2495              1135.7594
 Red. masses --      1.4345                 1.3992                 1.6456
 Frc consts  --      1.0006                 1.0180                 1.2507
 IR Inten    --     11.3133                10.6124                18.9286

                     28                     29                     30
                      A                      A                      A
 Frequencies --   1169.8696              1186.3001              1216.5871
 Red. masses --      1.9519                 1.9864                 1.7827
 Frc consts  --      1.5739                 1.6470                 1.5546
 IR Inten    --      7.7514                16.6866                11.9623

                     31                     32                     33
                      A                      A                      A
 Frequencies --   1238.6545              1249.1285              1265.3857
 Red. masses --      1.5687                 1.9299                 1.7579
 Frc consts  --      1.4180                 1.7742                 1.6584
 IR Inten    --      2.5972                57.1178                10.4081

                     34                     35                     36
                      A                      A                      A
 Frequencies --   1312.3782              1373.8670              1418.8915
 Red. masses --      1.5764                 1.6009                 1.4121
 Frc consts  --      1.5997                 1.7803                 1.6750
 IR Inten    --      1.1779                72.8806                16.7514

                     37                     38                     39
                      A                      A                      A
 Frequencies --   1481.0133              1491.6662              1497.0900
 Red. masses --      1.0499                 1.0873                 1.0526
 Frc consts  --      1.3568                 1.4254                 1.3899
 IR Inten    --      3.4730                 1.3255                 0.7546

                     40                     41                     42
                      A                      A                      A
 Frequencies --   1511.1681              1899.8621              3044.0256
 Red. masses --      1.1016                12.1238                 1.0351
 Frc consts  --      1.4821                25.7830                 5.6511
 IR Inten    --      1.6525               301.6677                12.2972

                     43                     44                     45
                      A                      A                      A
 Frequencies --   3053.6087              3056.0611              3104.6163
 Red. masses --      1.0601                 1.0607                 1.1063
 Frc consts  --      5.8243                 5.8365                 6.2828
 IR Inten    --     22.5037                28.9432                15.1996

                     46                     47                     48
                      A                      A                      A
 Frequencies --   3117.7631              3125.4141              3128.4683
 Red. masses --      1.1020                 1.1023                 1.1039
 Frc consts  --      6.3111                 6.3443                 6.3657
 IR Inten    --     14.7583                12.9954                17.4302

                     49                     50                     51
                      A                      A                      A
 Frequencies --   3143.4306              3150.0295              3819.9588
 Red. masses --      1.0905                 1.0917                 1.0656
 Frc consts  --      6.3489                 6.3824                 9.1614
 IR Inten    --     29.8483                12.3068                 8.0935

 - Thermochemistry -
 -------------------
 Temperature   298.150 Kelvin.  Pressure   1.00000 Atm.
 Atom     1 has atomic number  6 and mass  12.00000

 Molecular mass:   126.06808 amu.
 Principal axes and moments of inertia in atomic units:
                           1         2         3
     Eigenvalues --   675.770381133.206751352.14017
           X            0.99722   0.07433   0.00589
           Y           -0.07441   0.99712   0.01441
           Z           -0.00480  -0.01480   0.99988
 This molecule is an asymmetric top.
 Rotational symmetry number  1.
 Warning -- assumption of classical behavior for rotation
           may cause significant error
 Rotational temperatures (Kelvin)      0.12817     0.07643     0.06406
 Rotational constants (GHZ):           2.67064     1.59260     1.33473
 Zero-point vibrational energy     417479.3 (Joules/Mol)
                                   99.77995 (Kcal/Mol)
 Warning -- explicit consideration of  11 degrees of freedom as
           vibrations may cause significant error
 Vibrational temperatures:    188.98   232.87   322.36   358.36   413.81
          (Kelvin)            520.66   548.72   625.52   655.83   743.34
                              826.33   917.13  1058.48  1124.61  1163.31
                             1198.46  1309.53  1337.03  1379.09  1395.60
                             1428.34  1461.12  1473.90  1483.49  1565.49
                             1598.84  1634.10  1683.18  1706.82  1750.40
                             1782.15  1797.22  1820.61  1888.22  1976.69
                             2041.47  2130.85  2146.17  2153.98  2174.23
                             2733.47  4379.67  4393.46  4396.98  4466.84
                             4485.76  4496.77  4501.16  4522.69  4532.18
                             5496.06

 Zero-point correction=                           0.159009 (Hartree/Particle)
 Thermal correction to Energy=                    0.167192
 Thermal correction to Enthalpy=                  0.168136
 Thermal correction to Gibbs Free Energy=         0.126831
 Sum of electronic and zero-point Energies=           -423.033966
 Sum of electronic and thermal Energies=              -423.025783
 Sum of electronic and thermal Enthalpies=            -423.024839
 Sum of electronic and thermal Free Energies=         -423.066144

                     E (Thermal)             CV                S
                      KCal/Mol        Cal/Mol-Kelvin    Cal/Mol-Kelvin
 Total                  104.915             32.646             86.934
 Electronic               0.000              0.000              0.000
 Translational            0.889              2.981             40.409
 Rotational               0.889              2.981             28.428
 Vibrational            103.137             26.685             18.097
 Vibration     1          0.612              1.922              2.926
 Vibration     2          0.622              1.889              2.528
 Vibration     3          0.649              1.804              1.926
 Vibration     4          0.662              1.764              1.737
 Vibration     5          0.685              1.697              1.488
 Vibration     6          0.736              1.551              1.114
 Vibration     7          0.751              1.510              1.034
 Vibration     8          0.795              1.394              0.843
 Vibration     9          0.814              1.348              0.778
 Vibration    10          0.872              1.213              0.618
 Vibration    11          0.931              1.087              0.496

 Normal termination of Gaussian 09 at Mon Jan 27 17:18:23 2020.
