 Gaussian 09, Revision D.01,
 Gaussian 09:  ES64L-G09RevD.01 24-Apr-2013

 -----------------------------
 # b3lyp 6-31G(2df,p) opt Freq
 -----------------------------

 -----
 titel
 -----
 Symbolic Z-matrix:
 Charge =  0 Multiplicity = 1

 SCF Done:  E(RB3LYP) =  -423.182887075     A.U. after   13 cycles
 Optimization completed.
    -- Stationary point found.
 Normal termination of Gaussian 09 at Tue Jan 28 03:07:26 2020.

 ----------------------------------------------------------------------
 #N Geom=AllCheck Guess=TCheck SCRF=Check GenChk RB3LYP/6-31G(2df,p) Fr
 eq
 ----------------------------------------------------------------------

 Structure from the checkpoint file:  "/scratch/puck/g09_a956773c-fff1-4360-bc47-6eb572454f24/Gau-44597.chk"
 -----
 titel
 -----
 Charge =  0 Multiplicity = 1

                         Standard orientation:
 ---------------------------------------------------------------------
 Center     Atomic      Atomic             Coordinates (Angstroms)
 Number     Number       Type             X           Y           Z
 ---------------------------------------------------------------------
      1          6           0       -2.409023    0.287083   -0.316488
      2          6           0       -1.251002   -0.460111    0.314249
      3          8           0       -0.518718   -1.167631   -0.707458
      4          6           0        0.799022   -1.338699   -0.250970
      5          6           0        1.725006   -0.140871   -0.321013
      6          6           0        1.110708    1.174559   -0.774464
      7          8           0        0.154864    1.547872    0.222977
      8          6           0       -0.175567    0.404747    1.005754
      9          6           0        1.050972   -0.519847    0.978678
     10          1           0       -3.027597    0.746879    0.460841
     11          1           0       -2.041813    1.075637   -0.975963
     12          1           0       -3.035142   -0.399836   -0.892035
     13          1           0       -1.624583   -1.193347    1.048785
     14          1           0        1.191792   -2.340143   -0.391245
     15          1           0        2.785127   -0.310285   -0.470427
     16          1           0        1.862588    1.968377   -0.839990
     17          1           0        0.617580    1.074424   -1.750157
     18          1           0       -0.477224    0.747464    1.998095
     19          1           0        1.559407   -0.852264    1.873466
 ---------------------------------------------------------------------

 SCF Done:  E(RB3LYP) =  -423.182887075     A.U. after    1 cycles

 The electronic state is 1-A.
 Alpha  occ. eigenvalues --  -19.13965 -19.13486 -10.23536 -10.23408 -10.22845
 Alpha  occ. eigenvalues --  -10.22636 -10.19405 -10.19278 -10.17014  -1.05479
 Alpha  occ. eigenvalues --   -1.01761  -0.85292  -0.77324  -0.72178  -0.65791
 Alpha  occ. eigenvalues --   -0.58384  -0.57934  -0.57224  -0.53984  -0.48215
 Alpha  occ. eigenvalues --   -0.44985  -0.44433  -0.44009  -0.42050  -0.41508
 Alpha  occ. eigenvalues --   -0.38138  -0.37154  -0.35491  -0.34009  -0.32662
 Alpha  occ. eigenvalues --   -0.31299  -0.28306  -0.25007  -0.23545
 Alpha virt. eigenvalues --    0.08042   0.10449   0.11334   0.12652   0.13590
 Alpha virt. eigenvalues --    0.14398   0.15315   0.15520   0.16383   0.16968
 Alpha virt. eigenvalues --    0.17879   0.18126   0.18970   0.20794   0.22937

 Mulliken charges:
               1
     1  C   -0.402976
     2  C    0.130689
     3  O   -0.276302
     4  C    0.085779
     5  C   -0.112008
     6  C   -0.097867
     7  O   -0.262526
     8  C    0.048077
     9  C   -0.131097
    10  H    0.114066
    11  H    0.136033
    12  H    0.123342
    13  H    0.066154
    14  H    0.096405
    15  H    0.092918
    16  H    0.104609
    17  H    0.108141
    18  H    0.083174
    19  H    0.093390
 Sum of Mulliken charges =   0.00000

 Dipole moment (field-independent basis, Debye):
    X=              0.9892    Y=             -0.7231    Z=              1.0160  Tot=              1.5917
 Quadrupole moment (field-independent basis, Debye-Ang):
   XX=            -48.9329   YY=            -55.9051   ZZ=            -52.0198
   XY=             -1.1989   XZ=             -1.7397   YZ=             -2.4367

  Exact polarizability:  82.296  -0.342  69.532  -3.241  -2.579  67.778
 Approx polarizability: 109.186   1.092 104.212  -5.237  -0.762 106.413

                      1                      2                      3
                      A                      A                      A
 Frequencies --    125.0321               196.0485               226.5784
 Red. masses --      3.2537                 1.1889                 2.0370
 Frc consts  --      0.0300                 0.0269                 0.0616
 IR Inten    --      1.8206                 0.8913                 4.2538

                      4                      5                      6
                      A                      A                      A
 Frequencies --    255.7704               355.5090               498.5026
 Red. masses --      3.6036                 3.5330                 3.3076
 Frc consts  --      0.1389                 0.2631                 0.4843
 IR Inten    --      4.2635                 2.9813                 2.6168

                      7                      8                      9
                      A                      A                      A
 Frequencies --    524.5301               612.4265               719.3963
 Red. masses --      3.3508                 4.1261                 3.9835
 Frc consts  --      0.5432                 0.9118                 1.2147
 IR Inten    --      1.1339                 1.5071                 3.6445

                     10                     11                     12
                      A                      A                      A
 Frequencies --    734.8682               780.2707               784.8521
 Red. masses --      4.3791                 4.0858                 3.2740
 Frc consts  --      1.3933                 1.4656                 1.1882
 IR Inten    --      4.8523                 4.2515                 4.7057

                     13                     14                     15
                      A                      A                      A
 Frequencies --    803.7231               831.3079               887.4839
 Red. masses --      1.6752                 2.6618                 2.0482
 Frc consts  --      0.6376                 1.0838                 0.9505
 IR Inten    --     10.6720                16.6377                12.5384

                     16                     17                     18
                      A                      A                      A
 Frequencies --    931.2450               945.3147               968.5438
 Red. masses --      2.1227                 2.2224                 1.7168
 Frc consts  --      1.0846                 1.1701                 0.9489
 IR Inten    --     10.2206                 1.9411                19.7928

                     19                     20                     21
                      A                      A                      A
 Frequencies --   1013.2405              1013.6634              1037.2561
 Red. masses --      1.6549                 2.6140                 2.3326
 Frc consts  --      1.0010                 1.5825                 1.4786
 IR Inten    --      5.3796                22.7806                44.8164

                     22                     23                     24
                      A                      A                      A
 Frequencies --   1054.9576              1084.8156              1088.2930
 Red. masses --      2.8050                 1.3693                 2.4533
 Frc consts  --      1.8393                 0.9494                 1.7120
 IR Inten    --     16.8981                 8.7704                19.2912

                     25                     26                     27
                      A                      A                      A
 Frequencies --   1116.4569              1134.8615              1151.3334
 Red. masses --      1.9481                 3.1830                 1.9125
 Frc consts  --      1.4307                 2.4153                 1.4937
 IR Inten    --      2.6114                72.1204                27.4028

                     28                     29                     30
                      A                      A                      A
 Frequencies --   1167.9752              1236.4607              1252.7650
 Red. masses --      2.4250                 1.1073                 1.4602
 Frc consts  --      1.9491                 0.9974                 1.3502
 IR Inten    --     42.5658                 0.1927                 3.3857

                     31                     32                     33
                      A                      A                      A
 Frequencies --   1275.0992              1319.8934              1331.4175
 Red. masses --      1.5868                 1.2593                 1.3753
 Frc consts  --      1.5200                 1.2925                 1.4364
 IR Inten    --      3.4723                 4.6526                 1.5736

                     34                     35                     36
                      A                      A                      A
 Frequencies --   1352.2737              1371.4621              1381.4365
 Red. masses --      1.7002                 1.6057                 1.3896
 Frc consts  --      1.8318                 1.7794                 1.5624
 IR Inten    --      3.4966                14.9896                 7.9294

                     37                     38                     39
                      A                      A                      A
 Frequencies --   1406.5449              1415.0812              1485.8566
 Red. masses --      1.4630                 1.6669                 1.0491
 Frc consts  --      1.7053                 1.9666                 1.3647
 IR Inten    --     17.4592                 1.1119                 4.2077

                     40                     41                     42
                      A                      A                      A
 Frequencies --   1492.8636              1514.6125              2961.9316
 Red. masses --      1.0541                 1.0893                 1.0831
 Frc consts  --      1.3841                 1.4723                 5.5987
 IR Inten    --      2.4181                 0.5827                57.7606

                     43                     44                     45
                      A                      A                      A
 Frequencies --   3017.1084              3048.8983              3065.0990
 Red. masses --      1.0609                 1.0364                 1.1033
 Frc consts  --      5.6902                 5.6760                 6.1069
 IR Inten    --     56.4579                17.9325                37.1399

                     46                     47                     48
                      A                      A                      A
 Frequencies --   3093.5244              3116.8540              3141.6177
 Red. masses --      1.0888                 1.1004                 1.1014
 Frc consts  --      6.1392                 6.2983                 6.4045
 IR Inten    --     29.2250                19.2428                15.1528

                     49                     50                     51
                      A                      A                      A
 Frequencies --   3164.5571              3180.1704              3202.8587
 Red. masses --      1.0901                 1.0907                 1.0956
 Frc consts  --      6.4321                 6.4989                 6.6218
 IR Inten    --     19.9164                16.4690                11.8930

 - Thermochemistry -
 -------------------
 Temperature   298.150 Kelvin.  Pressure   1.00000 Atm.
 Atom     1 has atomic number  6 and mass  12.00000

 Molecular mass:   126.06808 amu.
 Principal axes and moments of inertia in atomic units:
                           1         2         3
     Eigenvalues --   647.18081 945.229181174.16978
           X            0.99959  -0.02817  -0.00471
           Y            0.02781   0.99753  -0.06443
           Z            0.00652   0.06427   0.99791
 This molecule is an asymmetric top.
 Rotational symmetry number  1.
 Warning -- assumption of classical behavior for rotation
           may cause significant error
 Rotational temperatures (Kelvin)      0.13383     0.09163     0.07377
 Rotational constants (GHZ):           2.78862     1.90932     1.53704
 Zero-point vibrational energy     423912.5 (Joules/Mol)
                                  101.31753 (Kcal/Mol)
 Warning -- explicit consideration of   8 degrees of freedom as
           vibrations may cause significant error
 Vibrational temperatures:    179.89   282.07   326.00   368.00   511.50
          (Kelvin)            717.23   754.68   881.14  1035.05  1057.31
                             1122.63  1129.23  1156.38  1196.07  1276.89
                             1339.85  1360.10  1393.52  1457.83  1458.43
                             1492.38  1517.85  1560.81  1565.81  1606.33
                             1632.81  1656.51  1680.45  1778.99  1802.45
                             1834.58  1899.03  1915.61  1945.62  1973.23
                             1987.58  2023.70  2035.98  2137.81  2147.90
                             2179.19  4261.55  4340.94  4386.68  4409.99
                             4450.89  4484.45  4520.08  4553.09  4575.55
                             4608.19

 Zero-point correction=                           0.161460 (Hartree/Particle)
 Thermal correction to Energy=                    0.168580
 Thermal correction to Enthalpy=                  0.169525
 Thermal correction to Gibbs Free Energy=         0.130125
 Sum of electronic and zero-point Energies=           -423.021427
 Sum of electronic and thermal Energies=              -423.014307
 Sum of electronic and thermal Enthalpies=            -423.013363
 Sum of electronic and thermal Free Energies=         -423.052762

                     E (Thermal)             CV                S
                      KCal/Mol        Cal/Mol-Kelvin    Cal/Mol-Kelvin
 Total                  105.786             28.823             82.922
 Electronic               0.000              0.000              0.000
 Translational            0.889              2.981             40.409
 Rotational               0.889              2.981             28.065
 Vibrational            104.008             22.862             14.449
 Vibration     1          0.610              1.928              3.021
 Vibration     2          0.636              1.845              2.170
 Vibration     3          0.650              1.801              1.906
 Vibration     4          0.666              1.753              1.690
 Vibration     5          0.731              1.564              1.142
 Vibration     6          0.854              1.253              0.662
 Vibration     7          0.879              1.196              0.600
 Vibration     8          0.972              1.006              0.429

 Normal termination of Gaussian 09 at Tue Jan 28 05:15:42 2020.
