 Gaussian 09, Revision D.01,
 Gaussian 09:  ES64L-G09RevD.01 24-Apr-2013

 -----------------------------
 # b3lyp 6-31G(2df,p) opt Freq
 -----------------------------

 -----
 titel
 -----
 Symbolic Z-matrix:
 Charge =  0 Multiplicity = 1

 SCF Done:  E(RB3LYP) =  -423.100565585     A.U. after   12 cycles
 Optimization completed.
    -- Stationary point found.
 Normal termination of Gaussian 09 at Tue Jan 28 14:12:06 2020.

 ----------------------------------------------------------------------
 #N Geom=AllCheck Guess=TCheck SCRF=Check GenChk RB3LYP/6-31G(2df,p) Fr
 eq
 ----------------------------------------------------------------------

 Structure from the checkpoint file:  "/scratch/puck/g09_5f60c4f3-079f-4150-9485-71747d23d488/Gau-44160.chk"
 -----
 titel
 -----
 Charge =  0 Multiplicity = 1

                         Standard orientation:
 ---------------------------------------------------------------------
 Center     Atomic      Atomic             Coordinates (Angstroms)
 Number     Number       Type             X           Y           Z
 ---------------------------------------------------------------------
      1          6           0        3.342163    0.088442    0.163768
      2          8           0        1.973777    0.420233    0.176064
      3          6           0        1.145327   -0.659016   -0.191712
      4          6           0       -0.279847   -0.196536   -0.142334
      5          6           0       -0.809007    1.074782   -0.857851
      6          6           0       -1.999875    0.951324    0.092733
      7          6           0       -2.176339   -0.565044    0.289550
      8          8           0       -1.227990   -1.230282   -0.546905
      9          6           0       -1.174505    0.166746    1.108774
     10          1           0        3.678097   -0.219194   -0.839014
     11          1           0        3.896722    0.980277    0.464940
     12          1           0        3.570676   -0.727959    0.866804
     13          1           0        1.371370   -1.008511   -1.214579
     14          1           0        1.283677   -1.517649    0.485256
     15          1           0       -0.192513    1.944033   -0.622321
     16          1           0       -0.972479    0.987971   -1.937093
     17          1           0       -2.793437    1.661580    0.285659
     18          1           0       -3.105254   -1.063445    0.531855
     19          1           0       -0.990667    0.279100    2.167663
 ---------------------------------------------------------------------

 SCF Done:  E(RB3LYP) =  -423.100565585     A.U. after    1 cycles

 The electronic state is 1-A.
 Alpha  occ. eigenvalues --  -19.14587 -19.13257 -10.24359 -10.23565 -10.23102
 Alpha  occ. eigenvalues --  -10.22779 -10.19261 -10.18898 -10.18021  -1.05903
 Alpha  occ. eigenvalues --   -1.03781  -0.85278  -0.76208  -0.70297  -0.65975
 Alpha  occ. eigenvalues --   -0.61645  -0.55988  -0.53500  -0.51382  -0.49156
 Alpha  occ. eigenvalues --   -0.48148  -0.45371  -0.43624  -0.43132  -0.41729
 Alpha  occ. eigenvalues --   -0.39797  -0.37044  -0.35090  -0.33554  -0.31574
 Alpha  occ. eigenvalues --   -0.28827  -0.26182  -0.25992  -0.22921
 Alpha virt. eigenvalues --    0.07429   0.09152   0.11005   0.11978   0.13128
 Alpha virt. eigenvalues --    0.14786   0.14951   0.15310   0.16009   0.16952
 Alpha virt. eigenvalues --    0.17085   0.17338   0.18447   0.19091   0.21531

 Mulliken charges:
               1
     1  C   -0.219257
     2  O   -0.239446
     3  C   -0.203870
     4  C    0.429315
     5  C   -0.261817
     6  C   -0.122919
     7  C    0.097924
     8  O   -0.340748
     9  C   -0.192218
    10  H    0.107051
    11  H    0.128826
    12  H    0.106435
    13  H    0.100750
    14  H    0.099629
    15  H    0.118960
    16  H    0.094129
    17  H    0.090981
    18  H    0.106335
    19  H    0.099940
 Sum of Mulliken charges =   0.00000

 Dipole moment (field-independent basis, Debye):
    X=              0.7294    Y=              0.4086    Z=              0.8421  Tot=              1.1866
 Quadrupole moment (field-independent basis, Debye-Ang):
   XX=            -45.6627   YY=            -55.2234   ZZ=            -52.7789
   XY=             -2.6828   XZ=             -2.4274   YZ=             -1.3252

  Exact polarizability:  89.754  -0.293  68.927  -1.821  -1.541  67.255
 Approx polarizability: 112.146   0.669 107.825  -0.466   0.863 103.005

                      1                      2                      3
                      A                      A                      A
 Frequencies --     64.8109                83.2856               130.1192
 Red. masses --      2.7498                 2.4199                 3.6913
 Frc consts  --      0.0068                 0.0099                 0.0368
 IR Inten    --      0.6280                 4.5296                 2.9781

                      4                      5                      6
                      A                      A                      A
 Frequencies --    221.9906               287.1376               340.4159
 Red. masses --      1.2909                 2.1509                 3.3259
 Frc consts  --      0.0375                 0.1045                 0.2271
 IR Inten    --      1.5841                 2.1394                 0.7101

                      7                      8                      9
                      A                      A                      A
 Frequencies --    373.6939               470.3130               551.5060
 Red. masses --      3.8313                 2.2417                 4.6408
 Frc consts  --      0.3152                 0.2922                 0.8317
 IR Inten    --      0.5330                 3.5646                 5.2399

                     10                     11                     12
                      A                      A                      A
 Frequencies --    687.1035               762.6151               766.5295
 Red. masses --      3.1065                 2.5979                 2.3470
 Frc consts  --      0.8641                 0.8902                 0.8125
 IR Inten    --      1.0777                 9.2607                 3.6914

                     13                     14                     15
                      A                      A                      A
 Frequencies --    790.3250               815.7989               844.6679
 Red. masses --      2.2352                 1.8138                 2.7181
 Frc consts  --      0.8226                 0.7112                 1.1426
 IR Inten    --      9.0200                 9.2342                 8.7607

                     16                     17                     18
                      A                      A                      A
 Frequencies --    924.5921               936.2866               962.8407
 Red. masses --      2.1580                 1.8286                 1.8096
 Frc consts  --      1.0869                 0.9445                 0.9884
 IR Inten    --     36.7339                13.2796                 9.3752

                     19                     20                     21
                      A                      A                      A
 Frequencies --    996.3914               998.9425              1025.1672
 Red. masses --      3.0178                 1.7605                 1.9251
 Frc consts  --      1.7652                 1.0350                 1.1921
 IR Inten    --     32.7374                 1.9770                11.6524

                     22                     23                     24
                      A                      A                      A
 Frequencies --   1037.5252              1063.5867              1086.5983
 Red. masses --      2.4425                 2.3604                 2.0531
 Frc consts  --      1.5491                 1.5732                 1.4282
 IR Inten    --     21.7691                 6.4746                 1.3239

                     25                     26                     27
                      A                      A                      A
 Frequencies --   1119.6059              1144.1048              1167.1698
 Red. masses --      1.9899                 1.6164                 2.9124
 Frc consts  --      1.4696                 1.2466                 2.3376
 IR Inten    --      1.8394                19.9253               134.8949

                     28                     29                     30
                      A                      A                      A
 Frequencies --   1173.2676              1187.2901              1223.6353
 Red. masses --      1.8773                 1.3711                 1.5571
 Frc consts  --      1.5226                 1.1388                 1.3737
 IR Inten    --     12.5742                 2.1138                 7.1723

                     31                     32                     33
                      A                      A                      A
 Frequencies --   1229.4724              1250.8011              1283.9586
 Red. masses --      1.7777                 1.2780                 1.7116
 Frc consts  --      1.5832                 1.1781                 1.6625
 IR Inten    --     45.1866                 3.5606                 2.0761

                     34                     35                     36
                      A                      A                      A
 Frequencies --   1338.5166              1366.6860              1433.2063
 Red. masses --      2.1611                 2.5957                 1.9977
 Frc consts  --      2.2813                 2.8565                 2.4177
 IR Inten    --     34.7542                11.2040                 8.6422

                     37                     38                     39
                      A                      A                      A
 Frequencies --   1480.6934              1484.6828              1490.3300
 Red. masses --      1.1816                 1.0470                 1.1481
 Frc consts  --      1.5263                 1.3597                 1.5024
 IR Inten    --      1.3389                 5.0982                 1.3762

                     40                     41                     42
                      A                      A                      A
 Frequencies --   1501.5284              1521.2850              2952.6770
 Red. masses --      1.0735                 1.0839                 1.0560
 Frc consts  --      1.4260                 1.4779                 5.4242
 IR Inten    --      9.9785                 1.8918                30.5642

                     43                     44                     45
                      A                      A                      A
 Frequencies --   2973.5160              2990.7846              3017.4082
 Red. masses --      1.0396                 1.0996                 1.1034
 Frc consts  --      5.4156                 5.7952                 5.9188
 IR Inten    --     71.9902                49.5879                49.5496

                     46                     47                     48
                      A                      A                      A
 Frequencies --   3048.9417              3116.5457              3128.8490
 Red. masses --      1.0609                 1.0962                 1.1035
 Frc consts  --      5.8106                 6.2731                 6.3650
 IR Inten    --     43.2740                27.3532                14.6387

                     49                     50                     51
                      A                      A                      A
 Frequencies --   3199.6463              3207.2553              3223.3508
 Red. masses --      1.0915                 1.0901                 1.1048
 Frc consts  --      6.5835                 6.6069                 6.7630
 IR Inten    --     12.1916                14.6202                15.1158

 - Thermochemistry -
 -------------------
 Temperature   298.150 Kelvin.  Pressure   1.00000 Atm.
 Atom     1 has atomic number  6 and mass  12.00000

 Molecular mass:   126.06808 amu.
 Principal axes and moments of inertia in atomic units:
                           1         2         3
     Eigenvalues --   424.699491695.045731808.92296
           X            0.99986  -0.01646  -0.00364
           Y            0.01619   0.99776  -0.06483
           Z            0.00470   0.06477   0.99789
 This molecule is an asymmetric top.
 Rotational symmetry number  1.
 Rotational temperatures (Kelvin)      0.20394     0.05110     0.04788
 Rotational constants (GHZ):           4.24945     1.06472     0.99769
 Zero-point vibrational energy     415567.4 (Joules/Mol)
                                   99.32300 (Kcal/Mol)
 Warning -- explicit consideration of   9 degrees of freedom as
           vibrations may cause significant error
 Vibrational temperatures:     93.25   119.83   187.21   319.39   413.13
          (Kelvin)            489.78   537.66   676.67   793.49   988.59
                             1097.23  1102.86  1137.10  1173.75  1215.29
                             1330.28  1347.11  1385.31  1433.58  1437.25
                             1474.99  1492.77  1530.26  1563.37  1610.86
                             1646.11  1679.29  1688.07  1708.24  1760.54
                             1768.93  1799.62  1847.33  1925.82  1966.35
                             2062.06  2130.38  2136.12  2144.25  2160.36
                             2188.79  4248.24  4278.22  4303.07  4341.37
                             4386.74  4484.01  4501.71  4603.57  4614.52
                             4637.68

 Zero-point correction=                           0.158281 (Hartree/Particle)
 Thermal correction to Energy=                    0.166527
 Thermal correction to Enthalpy=                  0.167471
 Thermal correction to Gibbs Free Energy=         0.124783
 Sum of electronic and zero-point Energies=           -422.942284
 Sum of electronic and thermal Energies=              -422.934038
 Sum of electronic and thermal Enthalpies=            -422.933094
 Sum of electronic and thermal Free Energies=         -422.975782

                     E (Thermal)             CV                S
                      KCal/Mol        Cal/Mol-Kelvin    Cal/Mol-Kelvin
 Total                  104.497             31.038             89.845
 Electronic               0.000              0.000              0.000
 Translational            0.889              2.981             40.409
 Rotational               0.889              2.981             28.656
 Vibrational            102.720             25.076             20.781
 Vibration     1          0.597              1.971              4.305
 Vibration     2          0.600              1.961              3.812
 Vibration     3          0.612              1.923              2.944
 Vibration     4          0.648              1.808              1.943
 Vibration     5          0.684              1.698              1.491
 Vibration     6          0.720              1.595              1.210
 Vibration     7          0.745              1.526              1.065
 Vibration     8          0.827              1.316              0.737
 Vibration     9          0.907              1.136              0.541

 Normal termination of Gaussian 09 at Tue Jan 28 14:58:08 2020.
