 Gaussian 09, Revision D.01,
 Gaussian 09:  ES64L-G09RevD.01 24-Apr-2013

 -----------------------------
 # b3lyp 6-31G(2df,p) opt Freq
 -----------------------------

 -----
 titel
 -----
 Symbolic Z-matrix:
 Charge =  0 Multiplicity = 1

 SCF Done:  E(RB3LYP) =  -423.164852040     A.U. after   14 cycles
 Optimization completed.
    -- Stationary point found.
 Normal termination of Gaussian 09 at Tue Jan 28 08:14:24 2020.

 ----------------------------------------------------------------------
 #N Geom=AllCheck Guess=TCheck SCRF=Check GenChk RB3LYP/6-31G(2df,p) Fr
 eq
 ----------------------------------------------------------------------

 Structure from the checkpoint file:  "/scratch/puck/g09_218a9557-36ff-4a38-aea6-9dd4566a61af/Gau-17957.chk"
 -----
 titel
 -----
 Charge =  0 Multiplicity = 1

                         Standard orientation:
 ---------------------------------------------------------------------
 Center     Atomic      Atomic             Coordinates (Angstroms)
 Number     Number       Type             X           Y           Z
 ---------------------------------------------------------------------
      1          8           0       -1.729852   -0.339686    1.290985
      2          6           0       -1.634846   -0.100300   -0.115715
      3          6           0       -1.122434    1.334480   -0.408674
      4          6           0        0.406185    1.486727   -0.530037
      5          6           0        1.198439    0.714514    0.508221
      6          8           0        2.349534    0.013299    0.023915
      7          6           0        1.224722   -0.761970    0.458453
      8          6           0        0.427540   -1.485955   -0.572833
      9          6           0       -0.847278   -1.190094   -0.831515
     10          1           0       -0.836525   -0.368079    1.647013
     11          1           0       -2.674713   -0.151849   -0.451785
     12          1           0       -1.573922    1.698233   -1.339072
     13          1           0       -1.518511    1.962998    0.396385
     14          1           0        0.734001    1.119494   -1.505678
     15          1           0        0.674274    2.548230   -0.486480
     16          1           0        1.352546    1.198139    1.474246
     17          1           0        1.427257   -1.315997    1.378902
     18          1           0        0.924913   -2.299631   -1.095611
     19          1           0       -1.380747   -1.764860   -1.584528
 ---------------------------------------------------------------------

 SCF Done:  E(RB3LYP) =  -423.164852040     A.U. after    1 cycles

 The electronic state is 1-A.
 Alpha  occ. eigenvalues --  -19.15396 -19.13365 -10.24511 -10.24340 -10.23907
 Alpha  occ. eigenvalues --  -10.19433 -10.19340 -10.18905 -10.18771  -1.07413
 Alpha  occ. eigenvalues --   -1.01601  -0.81190  -0.77526  -0.71835  -0.65981
 Alpha  occ. eigenvalues --   -0.63930  -0.57587  -0.54713  -0.52461  -0.49310
 Alpha  occ. eigenvalues --   -0.47325  -0.44981  -0.43641  -0.41985  -0.40890
 Alpha  occ. eigenvalues --   -0.39857  -0.36911  -0.35583  -0.34312  -0.33756
 Alpha  occ. eigenvalues --   -0.29221  -0.27147  -0.26822  -0.26210
 Alpha virt. eigenvalues --   -0.00518   0.07108   0.08466   0.10029   0.10743
 Alpha virt. eigenvalues --    0.12732   0.15210   0.15276   0.16174   0.16642
 Alpha virt. eigenvalues --    0.17465   0.18362   0.19358   0.21114   0.21961

 Mulliken charges:
               1
     1  O   -0.433144
     2  C    0.071225
     3  C   -0.229600
     4  C   -0.229798
     5  C    0.040724
     6  O   -0.260161
     7  C   -0.010394
     8  C   -0.101657
     9  C   -0.060166
    10  H    0.280834
    11  H    0.090255
    12  H    0.103551
    13  H    0.112252
    14  H    0.123099
    15  H    0.103268
    16  H    0.094002
    17  H    0.102352
    18  H    0.104643
    19  H    0.098715
 Sum of Mulliken charges =   0.00000

 Dipole moment (field-independent basis, Debye):
    X=             -0.4856    Y=              0.3187    Z=             -0.4577  Tot=              0.7395
 Quadrupole moment (field-independent basis, Debye-Ang):
   XX=            -61.2868   YY=            -50.3026   ZZ=            -51.8763
   XY=             -1.4300   XZ=              5.5992   YZ=              1.1877

  Exact polarizability:  82.450  -3.416  76.663   5.616   2.981  65.877
 Approx polarizability: 130.158  -6.672 109.007   5.832   3.397 101.230

                      1                      2                      3
                      A                      A                      A
 Frequencies --    113.1381               179.0216               236.3008
 Red. masses --      3.7773                 2.7109                 4.1340
 Frc consts  --      0.0285                 0.0512                 0.1360
 IR Inten    --      2.8684                 4.5714                 9.6379

                      4                      5                      6
                      A                      A                      A
 Frequencies --    279.2172               305.8037               337.0704
 Red. masses --      1.1611                 3.3956                 2.3208
 Frc consts  --      0.0533                 0.1871                 0.1554
 IR Inten    --     52.9128                 3.7979                 4.3753

                      7                      8                      9
                      A                      A                      A
 Frequencies --    385.9910               431.3045               466.9354
 Red. masses --      3.2062                 3.4616                 4.5262
 Frc consts  --      0.2814                 0.3794                 0.5814
 IR Inten    --      3.7451                 2.7206                11.1012

                     10                     11                     12
                      A                      A                      A
 Frequencies --    579.1157               624.8480               729.2410
 Red. masses --      3.2369                 2.1964                 2.2717
 Frc consts  --      0.6396                 0.5053                 0.7118
 IR Inten    --      3.0842                 4.5329                14.6299

                     13                     14                     15
                      A                      A                      A
 Frequencies --    784.9156               807.6388               835.4199
 Red. masses --      2.5401                 2.7498                 2.7035
 Frc consts  --      0.9220                 1.0568                 1.1117
 IR Inten    --      1.7632                13.0568                14.7162

                     16                     17                     18
                      A                      A                      A
 Frequencies --    836.5223               883.7305               915.3872
 Red. masses --      4.6321                 2.4160                 2.6324
 Frc consts  --      1.9098                 1.1117                 1.2996
 IR Inten    --      4.2450                 6.4959                22.7863

                     19                     20                     21
                      A                      A                      A
 Frequencies --    987.0943               996.2143              1012.6510
 Red. masses --      2.5614                 1.3608                 2.4744
 Frc consts  --      1.4704                 0.7957                 1.4950
 IR Inten    --     33.1233                 5.8291                12.8117

                     22                     23                     24
                      A                      A                      A
 Frequencies --   1014.6728              1083.0624              1088.7100
 Red. masses --      2.0298                 2.8005                 2.1620
 Frc consts  --      1.2313                 1.9355                 1.5098
 IR Inten    --     21.2254                26.7657                28.6988

                     25                     26                     27
                      A                      A                      A
 Frequencies --   1113.6315              1152.9862              1213.0873
 Red. masses --      1.5719                 1.2875                 1.1209
 Frc consts  --      1.1486                 1.0084                 0.9719
 IR Inten    --      4.3322                 3.2619                27.9142

                     28                     29                     30
                      A                      A                      A
 Frequencies --   1220.0288              1229.5649              1279.4892
 Red. masses --      1.2453                 1.3764                 1.3580
 Frc consts  --      1.0921                 1.2260                 1.3098
 IR Inten    --      9.3658                 6.4568                 0.1175

                     31                     32                     33
                      A                      A                      A
 Frequencies --   1306.4312              1317.8249              1350.2507
 Red. masses --      1.2239                 1.4199                 1.2988
 Frc consts  --      1.2307                 1.4529                 1.3952
 IR Inten    --      2.6210                 3.8019                 5.5000

                     34                     35                     36
                      A                      A                      A
 Frequencies --   1378.0392              1388.3465              1411.6430
 Red. masses --      1.3802                 1.3829                 1.4766
 Frc consts  --      1.5442                 1.5705                 1.7336
 IR Inten    --      1.5502                 5.2176                 2.6213

                     37                     38                     39
                      A                      A                      A
 Frequencies --   1439.6932              1464.1064              1477.9184
 Red. masses --      1.2578                 2.4140                 1.1654
 Frc consts  --      1.5360                 3.0489                 1.4997
 IR Inten    --     28.3954                20.3040                 5.6690

                     40                     41                     42
                      A                      A                      A
 Frequencies --   1488.4383              1706.2945              3032.8583
 Red. masses --      1.1007                 7.1092                 1.0622
 Frc consts  --      1.4368                12.1949                 5.7567
 IR Inten    --      8.2063                 0.3737                13.7518

                     43                     44                     45
                      A                      A                      A
 Frequencies --   3049.4665              3064.9464              3067.2120
 Red. masses --      1.0652                 1.0851                 1.0845
 Frc consts  --      5.8359                 6.0056                 6.0111
 IR Inten    --     31.6151                37.9827                21.4012

                     46                     47                     48
                      A                      A                      A
 Frequencies --   3075.6532              3093.1355              3109.2676
 Red. masses --      1.1015                 1.0899                 1.0976
 Frc consts  --      6.1394                 6.1437                 6.2520
 IR Inten    --     20.2057                 7.8801                42.3892

                     49                     50                     51
                      A                      A                      A
 Frequencies --   3146.3207              3168.8272              3826.2467
 Red. masses --      1.0835                 1.0969                 1.0656
 Frc consts  --      6.3194                 6.4897                 9.1913
 IR Inten    --      5.2886                25.3221                16.1624

 - Thermochemistry -
 -------------------
 Temperature   298.150 Kelvin.  Pressure   1.00000 Atm.
 Atom     1 has atomic number  8 and mass  15.99491

 Molecular mass:   126.06808 amu.
 Principal axes and moments of inertia in atomic units:
                           1         2         3
     Eigenvalues --   706.878801132.345381373.70326
           X            0.99944  -0.02015   0.02688
           Y            0.02008   0.99979   0.00308
           Z           -0.02694  -0.00253   0.99963
 This molecule is an asymmetric top.
 Rotational symmetry number  1.
 Warning -- assumption of classical behavior for rotation
           may cause significant error
 Rotational temperatures (Kelvin)      0.12253     0.07649     0.06305
 Rotational constants (GHZ):           2.55311     1.59381     1.31378
 Zero-point vibrational energy     421598.2 (Joules/Mol)
                                  100.76439 (Kcal/Mol)
 Warning -- explicit consideration of  10 degrees of freedom as
           vibrations may cause significant error
 Vibrational temperatures:    162.78   257.57   339.98   401.73   439.98
          (Kelvin)            484.97   555.35   620.55   671.82   833.22
                              899.02  1049.21  1129.32  1162.01  1201.98
                             1203.57  1271.49  1317.04  1420.21  1433.33
                             1456.98  1459.89  1558.28  1566.41  1602.27
                             1658.89  1745.36  1755.35  1769.07  1840.90
                             1879.66  1896.05  1942.71  1982.69  1997.52
                             2031.04  2071.39  2106.52  2126.39  2141.53
                             2454.97  4363.60  4387.50  4409.77  4413.03
                             4425.17  4450.33  4473.54  4526.85  4559.23
                             5505.11

 Zero-point correction=                           0.160578 (Hartree/Particle)
 Thermal correction to Energy=                    0.168514
 Thermal correction to Enthalpy=                  0.169458
 Thermal correction to Gibbs Free Energy=         0.128492
 Sum of electronic and zero-point Energies=           -423.004274
 Sum of electronic and thermal Energies=              -422.996339
 Sum of electronic and thermal Enthalpies=            -422.995394
 Sum of electronic and thermal Free Energies=         -423.036360

                     E (Thermal)             CV                S
                      KCal/Mol        Cal/Mol-Kelvin    Cal/Mol-Kelvin
 Total                  105.744             31.519             86.220
 Electronic               0.000              0.000              0.000
 Translational            0.889              2.981             40.409
 Rotational               0.889              2.981             28.488
 Vibrational            103.966             25.557             17.324
 Vibration     1          0.607              1.939              3.214
 Vibration     2          0.629              1.868              2.339
 Vibration     3          0.655              1.785              1.831
 Vibration     4          0.680              1.712              1.538
 Vibration     5          0.696              1.663              1.385
 Vibration     6          0.718              1.601              1.226
 Vibration     7          0.755              1.500              1.016
 Vibration     8          0.792              1.402              0.854
 Vibration     9          0.824              1.323              0.746
 Vibration    10          0.936              1.076              0.487

 Normal termination of Gaussian 09 at Tue Jan 28 09:02:11 2020.
