 Gaussian 09, Revision D.01,
 Gaussian 09:  ES64L-G09RevD.01 24-Apr-2013

 -----------------------------
 # b3lyp 6-31G(2df,p) opt Freq
 -----------------------------

 -----
 titel
 -----
 Symbolic Z-matrix:
 Charge =  0 Multiplicity = 1

 SCF Done:  E(RB3LYP) =  -423.201844320     A.U. after   14 cycles
 Optimization completed.
    -- Stationary point found.
 Normal termination of Gaussian 09 at Mon Jan 27 22:01:26 2020.

 ----------------------------------------------------------------------
 #N Geom=AllCheck Guess=TCheck SCRF=Check GenChk RB3LYP/6-31G(2df,p) Fr
 eq
 ----------------------------------------------------------------------

 Structure from the checkpoint file:  "/scratch/puck/g09_cc362005-3945-4083-a130-9bdd7dbe6b01/Gau-175808.chk"
 -----
 titel
 -----
 Charge =  0 Multiplicity = 1

                         Standard orientation:
 ---------------------------------------------------------------------
 Center     Atomic      Atomic             Coordinates (Angstroms)
 Number     Number       Type             X           Y           Z
 ---------------------------------------------------------------------
      1          8           0        0.069027    1.927218    0.926707
      2          6           0       -0.026770    0.778738    0.092521
      3          6           0        1.273803    0.717918   -0.744326
      4          8           0        1.625010   -0.650477   -0.830495
      5          6           0        1.328819   -1.203057    0.446780
      6          6           0       -0.028684   -0.604803    0.843208
      7          6           0       -1.269633   -1.376224    0.321599
      8          6           0       -1.967580   -0.393685   -0.584600
      9          6           0       -1.297098    0.748338   -0.717297
     10          1           0       -0.792670    2.059941    1.336094
     11          1           0        1.162254    1.105973   -1.759515
     12          1           0        2.045357    1.301617   -0.217774
     13          1           0        1.329303   -2.292074    0.349119
     14          1           0        2.104013   -0.918317    1.176855
     15          1           0       -0.089590   -0.437776    1.920889
     16          1           0       -0.976522   -2.275231   -0.235809
     17          1           0       -1.922428   -1.722983    1.132365
     18          1           0       -2.901487   -0.630228   -1.084181
     19          1           0       -1.587665    1.591806   -1.335041
 ---------------------------------------------------------------------

 SCF Done:  E(RB3LYP) =  -423.201844320     A.U. after    1 cycles

 The electronic state is 1-A.
 Alpha  occ. eigenvalues --  -19.13824 -19.13405 -10.23637 -10.22255 -10.21778
 Alpha  occ. eigenvalues --  -10.18937 -10.18843 -10.18501 -10.17958  -1.03763
 Alpha  occ. eigenvalues --   -1.01660  -0.83764  -0.74619  -0.72364  -0.68081
 Alpha  occ. eigenvalues --   -0.60079  -0.57032  -0.55251  -0.50883  -0.48505
 Alpha  occ. eigenvalues --   -0.47007  -0.45622  -0.43711  -0.41002  -0.38762
 Alpha  occ. eigenvalues --   -0.38044  -0.36786  -0.36231  -0.34148  -0.32853
 Alpha  occ. eigenvalues --   -0.30767  -0.26984  -0.25604  -0.24314
 Alpha virt. eigenvalues --    0.01099   0.08708   0.09690   0.11671   0.11967
 Alpha virt. eigenvalues --    0.13160   0.14747   0.16120   0.16347   0.17267
 Alpha virt. eigenvalues --    0.17598   0.18265   0.19720   0.21602   0.23655

 Mulliken charges:
               1
     1  O   -0.481330
     2  C    0.362241
     3  C   -0.117460
     4  O   -0.247586
     5  C   -0.100751
     6  C   -0.080323
     7  C   -0.279874
     8  C   -0.059519
     9  C   -0.161914
    10  H    0.273868
    11  H    0.106873
    12  H    0.098186
    13  H    0.105020
    14  H    0.090682
    15  H    0.076084
    16  H    0.115741
    17  H    0.103683
    18  H    0.098855
    19  H    0.097524
 Sum of Mulliken charges =   0.00000

 Dipole moment (field-independent basis, Debye):
    X=             -2.0458    Y=             -0.3471    Z=              0.9425  Tot=              2.2790
 Quadrupole moment (field-independent basis, Debye-Ang):
   XX=            -52.8651   YY=            -52.9629   ZZ=            -52.6792
   XY=             -0.7453   XZ=              0.8398   YZ=             -2.5432

  Exact polarizability:  78.976   5.771  81.693   3.697  -4.910  65.559
 Approx polarizability: 110.028  13.167 127.106   2.600  -4.462 100.163

                      1                      2                      3
                      A                      A                      A
 Frequencies --     71.1107               183.3566               253.3314
 Red. masses --      2.4965                 4.6922                 2.2651
 Frc consts  --      0.0074                 0.0929                 0.0856
 IR Inten    --      0.1499                 2.6927                 1.9045

                      4                      5                      6
                      A                      A                      A
 Frequencies --    313.3375               349.6238               379.7266
 Red. masses --      2.9278                 1.2122                 2.3153
 Frc consts  --      0.1694                 0.0873                 0.1967
 IR Inten    --      3.7036                72.2166                 9.5528

                      7                      8                      9
                      A                      A                      A
 Frequencies --    433.8859               459.9166               588.2904
 Red. masses --      2.6695                 2.4925                 4.5864
 Frc consts  --      0.2961                 0.3106                 0.9352
 IR Inten    --      9.0526                 0.0315                 1.2166

                     10                     11                     12
                      A                      A                      A
 Frequencies --    612.3075               686.1724               745.2435
 Red. masses --      3.9154                 3.4908                 3.9654
 Frc consts  --      0.8649                 0.9684                 1.2976
 IR Inten    --      2.7107                 0.5774                 1.4934

                     13                     14                     15
                      A                      A                      A
 Frequencies --    774.4805               813.3161               860.9202
 Red. masses --      1.9081                 2.5948                 2.3260
 Frc consts  --      0.6743                 1.0113                 1.0157
 IR Inten    --     36.8373                11.5287                 0.3026

                     16                     17                     18
                      A                      A                      A
 Frequencies --    948.6864               951.7198               968.4302
 Red. masses --      1.6800                 2.7370                 2.6190
 Frc consts  --      0.8908                 1.4606                 1.4472
 IR Inten    --      7.3926                 9.2395                11.1902

                     19                     20                     21
                      A                      A                      A
 Frequencies --    970.9499               987.9012              1033.5379
 Red. masses --      1.8448                 1.4195                 2.1908
 Frc consts  --      1.0247                 0.8162                 1.3788
 IR Inten    --      7.0166                 0.8612                16.7475

                     22                     23                     24
                      A                      A                      A
 Frequencies --   1045.9779              1073.4628              1102.2910
 Red. masses --      2.5426                 2.1171                 2.0176
 Frc consts  --      1.6390                 1.4374                 1.4444
 IR Inten    --     65.5049                50.3878                19.0555

                     25                     26                     27
                      A                      A                      A
 Frequencies --   1127.8891              1156.0088              1177.6426
 Red. masses --      3.1104                 1.7160                 2.1578
 Frc consts  --      2.3313                 1.3511                 1.7632
 IR Inten    --     33.2875                 8.8950                 7.7738

                     28                     29                     30
                      A                      A                      A
 Frequencies --   1194.9015              1205.9035              1254.2083
 Red. masses --      1.3015                 1.2349                 1.4870
 Frc consts  --      1.0949                 1.0581                 1.3782
 IR Inten    --      5.8697                36.0321                13.5987

                     31                     32                     33
                      A                      A                      A
 Frequencies --   1286.2350              1313.6058              1322.0331
 Red. masses --      1.2445                 1.4678                 1.4424
 Frc consts  --      1.2131                 1.4922                 1.4854
 IR Inten    --      7.9157                12.1613                 2.4070

                     34                     35                     36
                      A                      A                      A
 Frequencies --   1337.9261              1367.4863              1389.0157
 Red. masses --      1.3760                 1.4364                 1.8953
 Frc consts  --      1.4512                 1.5826                 2.1545
 IR Inten    --      9.0596                 5.0473                36.3632

                     37                     38                     39
                      A                      A                      A
 Frequencies --   1401.9492              1482.1763              1499.9607
 Red. masses --      1.4296                 1.0920                 1.0842
 Frc consts  --      1.6555                 1.4135                 1.4372
 IR Inten    --     13.6018                 3.0759                 1.0028

                     40                     41                     42
                      A                      A                      A
 Frequencies --   1517.3517              1688.0657              2970.8576
 Red. masses --      1.1022                 6.5069                 1.0706
 Frc consts  --      1.4951                10.9245                 5.5675
 IR Inten    --      2.2705                 4.4972                60.4112

                     43                     44                     45
                      A                      A                      A
 Frequencies --   2985.2927              3020.3312              3045.3046
 Red. masses --      1.0691                 1.0595                 1.1019
 Frc consts  --      5.6134                 5.6948                 6.0209
 IR Inten    --     61.7900                33.1520                14.7498

                     46                     47                     48
                      A                      A                      A
 Frequencies --   3085.3210              3089.5454              3100.4065
 Red. masses --      1.0865                 1.0929                 1.0952
 Frc consts  --      6.0938                 6.1467                 6.2027
 IR Inten    --     28.1967                33.3095                20.4031

                     49                     50                     51
                      A                      A                      A
 Frequencies --   3175.6352              3200.9502              3806.3885
 Red. masses --      1.0841                 1.1043                 1.0661
 Frc consts  --      6.4413                 6.6663                 9.1005
 IR Inten    --      6.8314                20.2161                17.3755

 - Thermochemistry -
 -------------------
 Temperature   298.150 Kelvin.  Pressure   1.00000 Atm.
 Atom     1 has atomic number  8 and mass  15.99491

 Molecular mass:   126.06808 amu.
 Principal axes and moments of inertia in atomic units:
                           1         2         3
     Eigenvalues --   805.92967 948.021111267.16435
           X            0.99808   0.05922   0.01835
           Y           -0.05812   0.99675  -0.05578
           Z           -0.02159   0.05460   0.99827
 This molecule is an asymmetric top.
 Rotational symmetry number  1.
 Warning -- assumption of classical behavior for rotation
           may cause significant error
 Rotational temperatures (Kelvin)      0.10747     0.09136     0.06835
 Rotational constants (GHZ):           2.23933     1.90369     1.42424
 Zero-point vibrational energy     423540.1 (Joules/Mol)
                                  101.22850 (Kcal/Mol)
 Warning -- explicit consideration of  10 degrees of freedom as
           vibrations may cause significant error
 Vibrational temperatures:    102.31   263.81   364.49   450.82   503.03
          (Kelvin)            546.34   624.26   661.72   846.42   880.97
                              987.25  1072.24  1114.30  1170.18  1238.67
                             1364.95  1369.31  1393.35  1396.98  1421.37
                             1487.03  1504.93  1544.47  1585.95  1622.78
                             1663.24  1694.36  1719.19  1735.02  1804.52
                             1850.60  1889.98  1902.11  1924.97  1967.51
                             1998.48  2017.09  2132.52  2158.11  2183.13
                             2428.75  4274.40  4295.16  4345.58  4381.51
                             4439.08  4445.16  4460.79  4569.03  4605.45
                             5476.54

 Zero-point correction=                           0.161318 (Hartree/Particle)
 Thermal correction to Energy=                    0.168913
 Thermal correction to Enthalpy=                  0.169857
 Thermal correction to Gibbs Free Energy=         0.129271
 Sum of electronic and zero-point Energies=           -423.040526
 Sum of electronic and thermal Energies=              -423.032931
 Sum of electronic and thermal Enthalpies=            -423.031987
 Sum of electronic and thermal Free Energies=         -423.072574

                     E (Thermal)             CV                S
                      KCal/Mol        Cal/Mol-Kelvin    Cal/Mol-Kelvin
 Total                  105.995             30.357             85.422
 Electronic               0.000              0.000              0.000
 Translational            0.889              2.981             40.409
 Rotational               0.889              2.981             28.361
 Vibrational            104.217             24.395             16.652
 Vibration     1          0.598              1.968              4.122
 Vibration     2          0.631              1.862              2.294
 Vibration     3          0.664              1.757              1.707
 Vibration     4          0.701              1.648              1.345
 Vibration     5          0.727              1.576              1.168
 Vibration     6          0.750              1.513              1.040
 Vibration     7          0.795              1.396              0.846
 Vibration     8          0.818              1.339              0.766
 Vibration     9          0.945              1.057              0.470
 Vibration    10          0.972              1.006              0.429

 Optimization completed.
    -- Stationary point found.
 Normal termination of Gaussian 09 at Mon Jan 27 22:54:12 2020.
