 Gaussian 09, Revision D.01,
 Gaussian 09:  ES64L-G09RevD.01 24-Apr-2013

 -----------------------------
 # b3lyp 6-31G(2df,p) opt Freq
 -----------------------------

 -----
 titel
 -----
 Symbolic Z-matrix:
 Charge =  0 Multiplicity = 1

 SCF Done:  E(RB3LYP) =  -423.143944618     A.U. after   12 cycles
 Optimization completed.
    -- Stationary point found.
 Normal termination of Gaussian 09 at Mon Jan 27 18:10:24 2020.

 ----------------------------------------------------------------------
 #N Geom=AllCheck Guess=TCheck SCRF=Check GenChk RB3LYP/6-31G(2df,p) Fr
 eq
 ----------------------------------------------------------------------

 Structure from the checkpoint file:  "/scratch/puck/g09_ac6af635-fbde-46ae-bfb9-8fb4efa17180/Gau-181868.chk"
 -----
 titel
 -----
 Charge =  0 Multiplicity = 1

                         Standard orientation:
 ---------------------------------------------------------------------
 Center     Atomic      Atomic             Coordinates (Angstroms)
 Number     Number       Type             X           Y           Z
 ---------------------------------------------------------------------
      1          6           0       -1.317390    1.848748   -0.000009
      2          6           0       -0.887133    0.403463   -0.000003
      3          6           0       -1.830202   -0.831812    0.000002
      4          6           0       -0.419049   -1.457991    0.000007
      5          6           0       -0.024602   -0.387013    1.054431
      6          8           0        1.348557   -0.087476    1.171250
      7          6           0        1.848167    0.512041   -0.000002
      8          8           0        1.348562   -0.087494   -1.171246
      9          6           0       -0.024599   -0.387025   -1.054427
     10          1           0       -0.464870    2.533911    0.000061
     11          1           0       -1.924176    2.071961   -0.884637
     12          1           0       -1.924295    2.071931    0.884546
     13          1           0       -2.429699   -0.976799    0.902850
     14          1           0       -2.429696   -0.976810   -0.902847
     15          1           0       -0.146386   -2.512191    0.000013
     16          1           0       -0.429494   -0.493979    2.063830
     17          1           0        1.596202    1.585106   -0.000013
     18          1           0        2.933794    0.388165    0.000001
     19          1           0       -0.429490   -0.493999   -2.063825
 ---------------------------------------------------------------------

 SCF Done:  E(RB3LYP) =  -423.143944618     A.U. after    1 cycles

 The electronic state is 1-A.
 Alpha  occ. eigenvalues --  -19.14503 -19.14502 -10.27272 -10.24032 -10.24032
 Alpha  occ. eigenvalues --  -10.20826 -10.19252 -10.19196 -10.18305  -1.08065
 Alpha  occ. eigenvalues --   -1.00410  -0.90899  -0.73615  -0.70693  -0.66386
 Alpha  occ. eigenvalues --   -0.63147  -0.60260  -0.53140  -0.51435  -0.50060
 Alpha  occ. eigenvalues --   -0.46910  -0.43971  -0.42145  -0.41659  -0.41477
 Alpha  occ. eigenvalues --   -0.39830  -0.38179  -0.36502  -0.34569  -0.32618
 Alpha  occ. eigenvalues --   -0.31310  -0.28612  -0.25571  -0.24271
 Alpha virt. eigenvalues --    0.08584   0.10778   0.12493   0.12666   0.13541
 Alpha virt. eigenvalues --    0.14454   0.14647   0.14736   0.15702   0.16637
 Alpha virt. eigenvalues --    0.17568   0.18189   0.19492   0.19945   0.20930

 Mulliken charges:
               1
     1  C   -0.523593
     2  C    0.224800
     3  C   -0.287378
     4  C   -0.125918
     5  C    0.123404
     6  O   -0.281832
     7  C    0.014872
     8  O   -0.281832
     9  C    0.123403
    10  H    0.127856
    11  H    0.123984
    12  H    0.123983
    13  H    0.096733
    14  H    0.096733
    15  H    0.078319
    16  H    0.080235
    17  H    0.087000
    18  H    0.118998
    19  H    0.080235
 Sum of Mulliken charges =   0.00000

 Dipole moment (field-independent basis, Debye):
    X=             -1.5194    Y=              0.6118    Z=              0.0000  Tot=              1.6379
 Quadrupole moment (field-independent basis, Debye-Ang):
   XX=            -52.7512   YY=            -52.0766   ZZ=            -55.3509
   XY=              1.4367   XZ=              0.0000   YZ=              0.0000

  Exact polarizability:  82.008   2.512  73.528   0.000   0.000  67.420
 Approx polarizability: 115.201   2.940 105.013   0.000   0.000 106.931

                      1                      2                      3
                      A                      A                      A
 Frequencies --    146.6452               203.5501               228.8523
 Red. masses --      1.0636                 3.4679                 2.9277
 Frc consts  --      0.0135                 0.0847                 0.0903
 IR Inten    --      0.0109                 0.3144                 0.0574

                      4                      5                      6
                      A                      A                      A
 Frequencies --    263.6986               349.0936               425.6193
 Red. masses --      2.2983                 2.9504                 2.2765
 Frc consts  --      0.0942                 0.2118                 0.2430
 IR Inten    --      8.1588                 1.4500                 0.0379

                      7                      8                      9
                      A                      A                      A
 Frequencies --    467.4131               545.8810               568.0556
 Red. masses --      3.1357                 5.5855                 6.1114
 Frc consts  --      0.4036                 0.9806                 1.1619
 IR Inten    --      1.5075                 1.5487                 6.0131

                     10                     11                     12
                      A                      A                      A
 Frequencies --    657.5419               726.8960               785.9915
 Red. masses --      3.5697                 6.3094                 2.9480
 Frc consts  --      0.9093                 1.9642                 1.0730
 IR Inten    --      4.4463                 5.9501                 2.1645

                     13                     14                     15
                      A                      A                      A
 Frequencies --    800.4173               875.9957               909.6741
 Red. masses --      2.9167                 2.2153                 1.9425
 Frc consts  --      1.1010                 1.0016                 0.9471
 IR Inten    --      0.0032                 0.1465                 4.2078

                     16                     17                     18
                      A                      A                      A
 Frequencies --    943.8271               969.8180              1007.6953
 Red. masses --      2.0976                 1.8393                 3.6286
 Frc consts  --      1.1009                 1.0193                 2.1710
 IR Inten    --      5.4907                29.6094                 7.7479

                     19                     20                     21
                      A                      A                      A
 Frequencies --   1011.8526              1020.9446              1040.2098
 Red. masses --      1.1345                 3.0269                 3.7200
 Frc consts  --      0.6844                 1.8589                 2.3715
 IR Inten    --      6.6257                54.1838                 7.2240

                     22                     23                     24
                      A                      A                      A
 Frequencies --   1086.1297              1094.0943              1101.2866
 Red. masses --      1.4082                 2.6997                 1.8106
 Frc consts  --      0.9788                 1.9040                 1.2938
 IR Inten    --      1.4054                 2.5157                10.0047

                     25                     26                     27
                      A                      A                      A
 Frequencies --   1146.6121              1175.1640              1194.9857
 Red. masses --      1.5937                 2.1026                 1.6837
 Frc consts  --      1.2345                 1.7108                 1.4166
 IR Inten    --     17.4672                45.1095                 0.1272

                     28                     29                     30
                      A                      A                      A
 Frequencies --   1205.4374              1227.4595              1239.3133
 Red. masses --      2.5266                 2.4458                 1.9583
 Frc consts  --      2.1631                 2.1711                 1.7721
 IR Inten    --    114.7825               118.1741                11.4062

                     31                     32                     33
                      A                      A                      A
 Frequencies --   1239.9372              1277.0674              1324.5591
 Red. masses --      2.0560                 1.0840                 2.8539
 Frc consts  --      1.8624                 1.0416                 2.9501
 IR Inten    --     32.2308                 0.0097                11.6002

                     34                     35                     36
                      A                      A                      A
 Frequencies --   1365.0601              1410.0352              1413.1506
 Red. masses --      1.2231                 1.2517                 1.4767
 Frc consts  --      1.3428                 1.4663                 1.7375
 IR Inten    --      9.8890                11.8759                27.8253

                     37                     38                     39
                      A                      A                      A
 Frequencies --   1451.1991              1487.3220              1489.0216
 Red. masses --      1.2550                 1.0480                 1.0464
 Frc consts  --      1.5573                 1.3659                 1.3669
 IR Inten    --     10.2812                 4.5495                 4.7487

                     40                     41                     42
                      A                      A                      A
 Frequencies --   1517.5229              1531.5087              2966.5882
 Red. masses --      1.1650                 1.0991                 1.0694
 Frc consts  --      1.5807                 1.5189                 5.5453
 IR Inten    --      5.6405                 0.6070                83.8907

                     43                     44                     45
                      A                      A                      A
 Frequencies --   3029.8572              3051.8931              3082.3555
 Red. masses --      1.0363                 1.0547                 1.0866
 Frc consts  --      5.6051                 5.7878                 6.0827
 IR Inten    --     28.3067                36.5735                70.6851

                     46                     47                     48
                      A                      A                      A
 Frequencies --   3086.1643              3092.6329              3098.4902
 Red. masses --      1.0878                 1.1007                 1.0950
 Frc consts  --      6.1041                 6.2029                 6.1937
 IR Inten    --     20.8342                17.2756                48.0678

                     49                     50                     51
                      A                      A                      A
 Frequencies --   3106.5695              3113.9439              3131.0371
 Red. masses --      1.1001                 1.1105                 1.0936
 Frc consts  --      6.2554                 6.3442                 6.3167
 IR Inten    --     13.4815                34.4270                41.0665

 - Thermochemistry -
 -------------------
 Temperature   298.150 Kelvin.  Pressure   1.00000 Atm.
 Atom     1 has atomic number  6 and mass  12.00000

 Molecular mass:   126.06808 amu.
 Principal axes and moments of inertia in atomic units:
                           1         2         3
     Eigenvalues --   687.940821018.094121117.71112
           X            1.00000  -0.00093   0.00000
           Y            0.00093   1.00000   0.00000
           Z            0.00000   0.00000   1.00000
 This molecule is an asymmetric top.
 Rotational symmetry number  1.
 Warning -- assumption of classical behavior for rotation
           may cause significant error
 Rotational temperatures (Kelvin)      0.12590     0.08507     0.07749
 Rotational constants (GHZ):           2.62340     1.77267     1.61468
 Zero-point vibrational energy     422796.6 (Joules/Mol)
                                  101.05081 (Kcal/Mol)
 Warning -- explicit consideration of   9 degrees of freedom as
           vibrations may cause significant error
 Vibrational temperatures:    210.99   292.86   329.27   379.40   502.27
          (Kelvin)            612.37   672.50   785.40   817.30   946.05
                             1045.84  1130.87  1151.62  1260.36  1308.82
                             1357.95  1395.35  1449.85  1455.83  1468.91
                             1496.63  1562.70  1574.16  1584.50  1649.72
                             1690.80  1719.32  1734.35  1766.04  1783.09
                             1783.99  1837.41  1905.74  1964.01  2028.72
                             2033.21  2087.95  2139.92  2142.37  2183.37
                             2203.50  4268.25  4359.28  4390.99  4434.82
                             4440.30  4449.60  4458.03  4469.66  4480.27
                             4504.86

 Zero-point correction=                           0.161035 (Hartree/Particle)
 Thermal correction to Energy=                    0.168316
 Thermal correction to Enthalpy=                  0.169260
 Thermal correction to Gibbs Free Energy=         0.129674
 Sum of electronic and zero-point Energies=           -422.982910
 Sum of electronic and thermal Energies=              -422.975629
 Sum of electronic and thermal Enthalpies=            -422.974685
 Sum of electronic and thermal Free Energies=         -423.014271

                     E (Thermal)             CV                S
                      KCal/Mol        Cal/Mol-Kelvin    Cal/Mol-Kelvin
 Total                  105.620             29.397             83.317
 Electronic               0.000              0.000              0.000
 Translational            0.889              2.981             40.409
 Rotational               0.889              2.981             28.150
 Vibrational            103.842             23.435             14.758
 Vibration     1          0.617              1.906              2.715
 Vibration     2          0.639              1.835              2.101
 Vibration     3          0.652              1.797              1.888
 Vibration     4          0.670              1.739              1.637
 Vibration     5          0.726              1.577              1.170
 Vibration     6          0.787              1.415              0.873
 Vibration     7          0.825              1.322              0.745
 Vibration     8          0.901              1.149              0.553
 Vibration     9          0.924              1.100              0.508

 Optimization completed.
    -- Stationary point found.
 Normal termination of Gaussian 09 at Mon Jan 27 19:00:27 2020.
