 Gaussian 09, Revision D.01,
 Gaussian 09:  ES64L-G09RevD.01 24-Apr-2013

 -----------------------------
 # b3lyp 6-31G(2df,p) opt Freq
 -----------------------------

 -----
 titel
 -----
 Symbolic Z-matrix:
 Charge =  0 Multiplicity = 1

 SCF Done:  E(RB3LYP) =  -423.195023140     A.U. after   13 cycles
 Optimization completed.
    -- Stationary point found.
 Normal termination of Gaussian 09 at Tue Jan 28 08:09:44 2020.

 ----------------------------------------------------------------------
 #N Geom=AllCheck Guess=TCheck SCRF=Check GenChk RB3LYP/6-31G(2df,p) Fr
 eq
 ----------------------------------------------------------------------

 Structure from the checkpoint file:  "/scratch/puck/g09_81cb1cd5-bf6e-4017-a7f1-1707a01e91c1/Gau-140949.chk"
 -----
 titel
 -----
 Charge =  0 Multiplicity = 1

                         Standard orientation:
 ---------------------------------------------------------------------
 Center     Atomic      Atomic             Coordinates (Angstroms)
 Number     Number       Type             X           Y           Z
 ---------------------------------------------------------------------
      1          8           0        1.927668   -1.450043    0.640102
      2          6           0        1.385938   -0.621518   -0.390272
      3          6           0        1.898147    0.856803   -0.360340
      4          6           0        0.719610    1.751623    0.138032
      5          6           0       -0.444505    0.808753    0.053966
      6          6           0       -0.098961   -0.437248   -0.259782
      7          6           0       -1.307242   -1.318345   -0.294409
      8          8           0       -2.394255   -0.439753    0.036381
      9          6           0       -1.923797    0.895311    0.258135
     10          1           0        1.589169   -1.120360    1.480308
     11          1           0        1.688304   -1.125430   -1.314064
     12          1           0        2.788995    0.927575    0.268937
     13          1           0        2.191462    1.162627   -1.368669
     14          1           0        0.868773    2.123285    1.160562
     15          1           0        0.592605    2.641242   -0.489554
     16          1           0       -1.486003   -1.768790   -1.283055
     17          1           0       -1.261561   -2.141980    0.433709
     18          1           0       -2.415828    1.585281   -0.445784
     19          1           0       -2.198371    1.222650    1.273767
 ---------------------------------------------------------------------

 SCF Done:  E(RB3LYP) =  -423.195023140     A.U. after    1 cycles

 The electronic state is 1-A.
 Alpha  occ. eigenvalues --  -19.13491 -19.13212 -10.23819 -10.23300 -10.23014
 Alpha  occ. eigenvalues --  -10.19720 -10.18797 -10.18632 -10.17841  -1.02733
 Alpha  occ. eigenvalues --   -1.01560  -0.84401  -0.74357  -0.73583  -0.68732
 Alpha  occ. eigenvalues --   -0.61404  -0.59149  -0.53371  -0.50996  -0.48690
 Alpha  occ. eigenvalues --   -0.46265  -0.44357  -0.42719  -0.41335  -0.40280
 Alpha  occ. eigenvalues --   -0.39227  -0.37637  -0.36210  -0.35496  -0.32489
 Alpha  occ. eigenvalues --   -0.30943  -0.27025  -0.26125  -0.23001
 Alpha virt. eigenvalues --    0.01470   0.07627   0.10671   0.11068   0.11832
 Alpha virt. eigenvalues --    0.12119   0.13680   0.14458   0.16673   0.16875
 Alpha virt. eigenvalues --    0.17960   0.18336   0.19228   0.21737   0.22972

 Mulliken charges:
               1
     1  O   -0.428023
     2  C   -0.002047
     3  C   -0.237896
     4  C   -0.355477
     5  C    0.231813
     6  C    0.201711
     7  C   -0.187589
     8  O   -0.275970
     9  C   -0.181195
    10  H    0.274279
    11  H    0.089507
    12  H    0.109849
    13  H    0.110913
    14  H    0.110299
    15  H    0.113365
    16  H    0.105822
    17  H    0.110279
    18  H    0.105795
    19  H    0.104567
 Sum of Mulliken charges =   0.00000

 Dipole moment (field-independent basis, Debye):
    X=              0.6678    Y=              1.8350    Z=              0.1801  Tot=              1.9611
 Quadrupole moment (field-independent basis, Debye-Ang):
   XX=            -61.2997   YY=            -53.0299   ZZ=            -49.4848
   XY=              1.5256   XZ=             -0.2160   YZ=              0.9106

  Exact polarizability:  81.862  -2.528  87.171  -1.764   4.162  62.924
 Approx polarizability: 108.802  -9.554 135.154  -2.313   8.447  98.222

                      1                      2                      3
                      A                      A                      A
 Frequencies --     73.9575               118.1558               147.6077
 Red. masses --      2.4668                 4.0678                 2.4103
 Frc consts  --      0.0079                 0.0335                 0.0309
 IR Inten    --      0.2544                 6.0847                 1.2294

                      4                      5                      6
                      A                      A                      A
 Frequencies --    199.6477               296.4456               339.9495
 Red. masses --      2.1669                 3.3576                 1.1717
 Frc consts  --      0.0509                 0.1738                 0.0798
 IR Inten    --      1.0601                 1.1398                79.2396

                      7                      8                      9
                      A                      A                      A
 Frequencies --    386.9702               430.9159               550.6155
 Red. masses --      2.5816                 3.0555                 3.6801
 Frc consts  --      0.2278                 0.3343                 0.6574
 IR Inten    --      3.7239                 9.6833                 1.8300

                     10                     11                     12
                      A                      A                      A
 Frequencies --    578.9863               685.5743               759.8609
 Red. masses --      4.4261                 3.8454                 3.0184
 Frc consts  --      0.8742                 1.0649                 1.0268
 IR Inten    --      5.7655                 1.3515                 6.0838

                     13                     14                     15
                      A                      A                      A
 Frequencies --    782.6700               852.2625               899.9154
 Red. masses --      2.0615                 3.4889                 2.1567
 Frc consts  --      0.7440                 1.4931                 1.0291
 IR Inten    --      7.7470                22.5639                 0.9159

                     16                     17                     18
                      A                      A                      A
 Frequencies --    911.2527               964.1966               992.4759
 Red. masses --      4.7492                 2.2614                 2.0331
 Frc consts  --      2.3235                 1.2387                 1.1799
 IR Inten    --     12.5254                15.6539                15.0020

                     19                     20                     21
                      A                      A                      A
 Frequencies --   1007.8051              1025.5351              1054.5537
 Red. masses --      4.1007                 2.5663                 2.1429
 Frc consts  --      2.4539                 1.5902                 1.4041
 IR Inten    --     21.4824                10.4287                23.1575

                     22                     23                     24
                      A                      A                      A
 Frequencies --   1071.8988              1083.1344              1147.0713
 Red. masses --      3.5096                 2.4030                 1.1348
 Frc consts  --      2.3758                 1.6610                 0.8797
 IR Inten    --     42.5175                58.3586                18.8064

                     25                     26                     27
                      A                      A                      A
 Frequencies --   1179.2841              1204.3294              1209.3241
 Red. masses --      1.1900                 1.3750                 2.0893
 Frc consts  --      0.9751                 1.1750                 1.8003
 IR Inten    --      2.6327                10.9070                 7.1348

                     28                     29                     30
                      A                      A                      A
 Frequencies --   1216.0609              1239.7269              1274.1594
 Red. masses --      1.1004                 1.2769                 1.4837
 Frc consts  --      0.9587                 1.1563                 1.4192
 IR Inten    --      0.2510                 7.2258                 7.2135

                     31                     32                     33
                      A                      A                      A
 Frequencies --   1297.4524              1324.5258              1333.0810
 Red. masses --      1.4634                 1.3810                 1.7255
 Frc consts  --      1.4514                 1.4274                 1.8066
 IR Inten    --      3.6883                 5.8315                 2.1417

                     34                     35                     36
                      A                      A                      A
 Frequencies --   1394.5158              1400.3574              1433.0259
 Red. masses --      1.7577                 2.3538                 1.2851
 Frc consts  --      2.0139                 2.7196                 1.5549
 IR Inten    --     15.3822                 2.2209                70.4973

                     37                     38                     39
                      A                      A                      A
 Frequencies --   1478.1945              1498.5300              1516.0883
 Red. masses --      1.0787                 1.0974                 1.0826
 Frc consts  --      1.3887                 1.4520                 1.4661
 IR Inten    --      1.3542                 2.1824                 2.1567

                     40                     41                     42
                      A                      A                      A
 Frequencies --   1526.6131              1733.6802              2969.9022
 Red. masses --      1.0868                 8.5043                 1.0553
 Frc consts  --      1.4923                15.0600                 5.4840
 IR Inten    --      0.4353                 2.3616               111.9504

                     43                     44                     45
                      A                      A                      A
 Frequencies --   2981.5537              2986.1742              3001.1112
 Red. masses --      1.0595                 1.1045                 1.1039
 Frc consts  --      5.5493                 5.8029                 5.8580
 IR Inten    --     42.6268                39.5297                49.5402

                     46                     47                     48
                      A                      A                      A
 Frequencies --   3019.9103              3049.6255              3055.0857
 Red. masses --      1.0654                 1.0869                 1.0866
 Frc consts  --      5.7244                 5.9559                 5.9755
 IR Inten    --     44.5023                 9.7996                25.8682

                     49                     50                     51
                      A                      A                      A
 Frequencies --   3068.1715              3110.3782              3794.5059
 Red. masses --      1.0693                 1.1042                 1.0660
 Frc consts  --      5.9306                 6.2939                 9.0430
 IR Inten    --     47.3338                22.8745                10.3058

 - Thermochemistry -
 -------------------
 Temperature   298.150 Kelvin.  Pressure   1.00000 Atm.
 Atom     1 has atomic number  8 and mass  15.99491

 Molecular mass:   126.06808 amu.
 Principal axes and moments of inertia in atomic units:
                           1         2         3
     Eigenvalues --   641.528961245.965451715.85981
           X            0.99974   0.02203  -0.00564
           Y           -0.02195   0.99967   0.01362
           Z            0.00594  -0.01349   0.99989
 This molecule is an asymmetric top.
 Rotational symmetry number  1.
 Warning -- assumption of classical behavior for rotation
           may cause significant error
 Rotational temperatures (Kelvin)      0.13501     0.06952     0.05048
 Rotational constants (GHZ):           2.81319     1.44847     1.05180
 Zero-point vibrational energy     422621.7 (Joules/Mol)
                                  101.00900 (Kcal/Mol)
 Warning -- explicit consideration of  10 degrees of freedom as
           vibrations may cause significant error
 Vibrational temperatures:    106.41   170.00   212.37   287.25   426.52
          (Kelvin)            489.11   556.76   619.99   792.21   833.03
                              986.39  1093.27  1126.09  1226.21  1294.78
                             1311.09  1387.26  1427.95  1450.00  1475.51
                             1517.27  1542.22  1558.39  1650.38  1696.72
                             1732.76  1739.95  1749.64  1783.69  1833.23
                             1866.74  1905.69  1918.00  2006.39  2014.80
                             2061.80  2126.79  2156.05  2181.31  2196.45
                             2494.38  4273.02  4289.79  4296.43  4317.92
                             4344.97  4387.73  4395.58  4414.41  4475.13
                             5459.44

 Zero-point correction=                           0.160968 (Hartree/Particle)
 Thermal correction to Energy=                    0.169141
 Thermal correction to Enthalpy=                  0.170086
 Thermal correction to Gibbs Free Energy=         0.127819
 Sum of electronic and zero-point Energies=           -423.034055
 Sum of electronic and thermal Energies=              -423.025882
 Sum of electronic and thermal Enthalpies=            -423.024937
 Sum of electronic and thermal Free Energies=         -423.067205

                     E (Thermal)             CV                S
                      KCal/Mol        Cal/Mol-Kelvin    Cal/Mol-Kelvin
 Total                  106.138             30.706             88.959
 Electronic               0.000              0.000              0.000
 Translational            0.889              2.981             40.409
 Rotational               0.889              2.981             28.708
 Vibrational            104.360             24.744             19.843
 Vibration     1          0.599              1.966              4.045
 Vibration     2          0.608              1.934              3.130
 Vibration     3          0.617              1.905              2.703
 Vibration     4          0.638              1.840              2.136
 Vibration     5          0.690              1.680              1.437
 Vibration     6          0.720              1.596              1.212
 Vibration     7          0.755              1.498              1.012
 Vibration     8          0.792              1.403              0.856
 Vibration     9          0.906              1.138              0.543
 Vibration    10          0.936              1.077              0.487

 Optimization completed.
    -- Stationary point found.
 Normal termination of Gaussian 09 at Tue Jan 28 08:52:56 2020.
