 Gaussian 09, Revision D.01,
 Gaussian 09:  ES64L-G09RevD.01 24-Apr-2013

 -----------------------------
 # b3lyp 6-31G(2df,p) opt Freq
 -----------------------------

 -----
 titel
 -----
 Symbolic Z-matrix:
 Charge =  0 Multiplicity = 1

 SCF Done:  E(RB3LYP) =  -423.100275716     A.U. after   13 cycles
 Optimization completed.
    -- Stationary point found.
 Normal termination of Gaussian 09 at Tue Jan 28 09:22:45 2020.

 ----------------------------------------------------------------------
 #N Geom=AllCheck Guess=TCheck SCRF=Check GenChk RB3LYP/6-31G(2df,p) Fr
 eq
 ----------------------------------------------------------------------

 Structure from the checkpoint file:  "/scratch/puck/g09_589e317c-8e7e-4b05-87ac-377ff35d8b6f/Gau-82538.chk"
 -----
 titel
 -----
 Charge =  0 Multiplicity = 1

                         Standard orientation:
 ---------------------------------------------------------------------
 Center     Atomic      Atomic             Coordinates (Angstroms)
 Number     Number       Type             X           Y           Z
 ---------------------------------------------------------------------
      1          6           0        2.573507    0.151116    0.426108
      2          8           0        1.744186   -0.459195   -0.553529
      3          6           0        0.399420   -0.312743   -0.330173
      4          6           0       -0.372014   -1.128618    0.737181
      5          8           0       -1.583343   -0.434351    1.034475
      6          6           0       -1.660244   -0.153278   -0.396659
      7          6           0       -0.663131   -1.323815   -0.716908
      8          6           0       -0.521270    0.878953   -0.652985
      9          6           0       -0.501533    2.161166    0.165592
     10          1           0        2.330575   -0.207366    1.435114
     11          1           0        3.602381   -0.122498    0.182703
     12          1           0        2.482540    1.244688    0.411247
     13          1           0        0.082229   -1.768107    1.482489
     14          1           0       -2.675529   -0.012429   -0.760750
     15          1           0       -0.669860   -2.176627   -1.380344
     16          1           0       -0.464902    1.078788   -1.728731
     17          1           0       -0.607216    1.937273    1.229699
     18          1           0        0.430361    2.715835    0.014485
     19          1           0       -1.325736    2.822132   -0.126414
 ---------------------------------------------------------------------

 SCF Done:  E(RB3LYP) =  -423.100275716     A.U. after    1 cycles

 The electronic state is 1-A.
 Alpha  occ. eigenvalues --  -19.15506 -19.13565 -10.24341 -10.24031 -10.23703
 Alpha  occ. eigenvalues --  -10.22961 -10.19161 -10.19141 -10.17036  -1.06577
 Alpha  occ. eigenvalues --   -1.04171  -0.85457  -0.75824  -0.70188  -0.68172
 Alpha  occ. eigenvalues --   -0.61717  -0.55316  -0.54240  -0.53745  -0.47383
 Alpha  occ. eigenvalues --   -0.46035  -0.44975  -0.44174  -0.42370  -0.41390
 Alpha  occ. eigenvalues --   -0.38782  -0.37278  -0.37069  -0.34079  -0.32721
 Alpha  occ. eigenvalues --   -0.29652  -0.28045  -0.25762  -0.21630
 Alpha virt. eigenvalues --    0.08064   0.08611   0.09989   0.11320   0.13439
 Alpha virt. eigenvalues --    0.13816   0.14534   0.15323   0.16071   0.16321
 Alpha virt. eigenvalues --    0.17026   0.18098   0.19175   0.19808   0.21476

 Mulliken charges:
               1
     1  C   -0.258259
     2  O   -0.284419
     3  C    0.361450
     4  C    0.010062
     5  O   -0.289638
     6  C    0.046977
     7  C   -0.216230
     8  C   -0.053709
     9  C   -0.426163
    10  H    0.113807
    11  H    0.129181
    12  H    0.120229
    13  H    0.111189
    14  H    0.086054
    15  H    0.107619
    16  H    0.080986
    17  H    0.133809
    18  H    0.114219
    19  H    0.112836
 Sum of Mulliken charges =   0.00000

 Dipole moment (field-independent basis, Debye):
    X=              0.8240    Y=              0.3096    Z=             -0.4430  Tot=              0.9855
 Quadrupole moment (field-independent basis, Debye-Ang):
   XX=            -52.1735   YY=            -51.6815   ZZ=            -54.0690
   XY=              0.2606   XZ=              6.2167   YZ=             -0.6312

  Exact polarizability:  81.113   0.380  75.774   4.380  -0.525  65.604
 Approx polarizability: 112.839   0.553 105.014   1.957  -1.017 106.409

                      1                      2                      3
                      A                      A                      A
 Frequencies --     83.3297               159.9672               172.7978
 Red. masses --      2.2930                 1.8366                 1.4104
 Frc consts  --      0.0094                 0.0277                 0.0248
 IR Inten    --      2.2820                 1.3075                 0.8429

                      4                      5                      6
                      A                      A                      A
 Frequencies --    197.1804               229.8704               255.8329
 Red. masses --      1.1061                 3.1318                 3.3382
 Frc consts  --      0.0253                 0.0975                 0.1287
 IR Inten    --      0.2201                 2.7477                 2.6811

                      7                      8                      9
                      A                      A                      A
 Frequencies --    380.9775               411.9862               537.7449
 Red. masses --      3.7313                 3.6555                 5.1271
 Frc consts  --      0.3191                 0.3656                 0.8735
 IR Inten    --      9.1650                 0.4411                 2.5518

                     10                     11                     12
                      A                      A                      A
 Frequencies --    590.2550               649.3523               712.0315
 Red. masses --      3.2156                 3.0574                 3.4002
 Frc consts  --      0.6601                 0.7596                 1.0157
 IR Inten    --      2.5576                 6.4534                 6.4021

                     13                     14                     15
                      A                      A                      A
 Frequencies --    777.4238               802.7326               827.1627
 Red. masses --      2.5900                 3.2009                 1.2440
 Frc consts  --      0.9223                 1.2152                 0.5015
 IR Inten    --      2.8364                16.4983                 4.9773

                     16                     17                     18
                      A                      A                      A
 Frequencies --    859.4246               908.6114               944.0152
 Red. masses --      2.1306                 3.4532                 2.5778
 Frc consts  --      0.9272                 1.6797                 1.3535
 IR Inten    --      6.4142                32.6293                 4.7552

                     19                     20                     21
                      A                      A                      A
 Frequencies --    968.3787               984.1737              1035.6503
 Red. masses --      1.9313                 2.7159                 2.1859
 Frc consts  --      1.0671                 1.5499                 1.3813
 IR Inten    --     24.2717                21.0640                19.4875

                     22                     23                     24
                      A                      A                      A
 Frequencies --   1057.5032              1066.7685              1109.7495
 Red. masses --      4.9505                 2.0253                 2.2864
 Frc consts  --      3.2619                 1.3580                 1.6591
 IR Inten    --     50.8875                13.0664                 0.7181

                     25                     26                     27
                      A                      A                      A
 Frequencies --   1126.0537              1134.1897              1146.6427
 Red. masses --      1.7421                 2.0810                 2.1759
 Frc consts  --      1.3015                 1.5772                 1.6856
 IR Inten    --      3.0869                 1.7945                 0.8446

                     28                     29                     30
                      A                      A                      A
 Frequencies --   1179.2039              1197.6417              1215.5898
 Red. masses --      1.2775                 1.4457                 1.5171
 Frc consts  --      1.0466                 1.2217                 1.3208
 IR Inten    --      2.1450                 6.0177                 2.8225

                     31                     32                     33
                      A                      A                      A
 Frequencies --   1230.2459              1291.6183              1298.8593
 Red. masses --      1.8651                 1.7516                 2.4995
 Frc consts  --      1.6632                 1.7216                 2.4845
 IR Inten    --      0.8775                68.3182                63.4226

                     34                     35                     36
                      A                      A                      A
 Frequencies --   1369.4469              1404.4159              1413.1243
 Red. masses --      1.8150                 1.2922                 2.2210
 Frc consts  --      2.0055                 1.5016                 2.6131
 IR Inten    --      4.7340                 7.3100                68.4969

                     37                     38                     39
                      A                      A                      A
 Frequencies --   1484.1407              1490.7840              1494.8509
 Red. masses --      1.0788                 1.2457                 1.0770
 Frc consts  --      1.4000                 1.6312                 1.4179
 IR Inten    --      2.8111                16.2174                 4.8478

                     40                     41                     42
                      A                      A                      A
 Frequencies --   1500.2528              1507.8207              3004.8354
 Red. masses --      1.0502                 1.0579                 1.0335
 Frc consts  --      1.3927                 1.4171                 5.4982
 IR Inten    --     13.1287                 1.2414                43.2819

                     43                     44                     45
                      A                      A                      A
 Frequencies --   3032.7130              3054.5693              3062.8290
 Red. masses --      1.0384                 1.0836                 1.1040
 Frc consts  --      5.6271                 5.9569                 6.1022
 IR Inten    --     25.7343                18.0419                42.9870

                     46                     47                     48
                      A                      A                      A
 Frequencies --   3091.9462              3124.8948              3127.4402
 Red. masses --      1.0996                 1.1000                 1.0997
 Frc consts  --      6.1938                 6.3289                 6.3375
 IR Inten    --     28.7722                27.1073                15.3852

                     49                     50                     51
                      A                      A                      A
 Frequencies --   3145.7742              3207.0210              3222.1846
 Red. masses --      1.0929                 1.0906                 1.1026
 Frc consts  --      6.3721                 6.6086                 6.7446
 IR Inten    --     32.7585                10.4368                 6.2029

 - Thermochemistry -
 -------------------
 Temperature   298.150 Kelvin.  Pressure   1.00000 Atm.
 Atom     1 has atomic number  6 and mass  12.00000

 Molecular mass:   126.06808 amu.
 Principal axes and moments of inertia in atomic units:
                           1         2         3
     Eigenvalues --   700.625021101.374921396.94478
           X            0.99908  -0.00602   0.04246
           Y            0.00562   0.99994   0.00947
           Z           -0.04251  -0.00923   0.99905
 This molecule is an asymmetric top.
 Rotational symmetry number  1.
 Warning -- assumption of classical behavior for rotation
           may cause significant error
 Rotational temperatures (Kelvin)      0.12362     0.07864     0.06200
 Rotational constants (GHZ):           2.57590     1.63863     1.29192
 Zero-point vibrational energy     414398.4 (Joules/Mol)
                                   99.04360 (Kcal/Mol)
 Warning -- explicit consideration of  10 degrees of freedom as
           vibrations may cause significant error
 Vibrational temperatures:    119.89   230.16   248.62   283.70   330.73
          (Kelvin)            368.09   548.14   592.76   773.69   849.24
                              934.27  1024.45  1118.54  1154.95  1190.10
                             1236.52  1307.29  1358.23  1393.28  1416.00
                             1490.07  1521.51  1534.84  1596.68  1620.14
                             1631.84  1649.76  1696.61  1723.14  1748.96
                             1770.05  1858.35  1868.77  1970.33  2020.64
                             2033.17  2135.34  2144.90  2150.75  2158.53
                             2169.41  4323.28  4363.39  4394.84  4406.72
                             4448.62  4496.02  4499.68  4526.06  4614.18
                             4636.00

 Zero-point correction=                           0.157836 (Hartree/Particle)
 Thermal correction to Energy=                    0.166248
 Thermal correction to Enthalpy=                  0.167192
 Thermal correction to Gibbs Free Energy=         0.124882
 Sum of electronic and zero-point Energies=           -422.942440
 Sum of electronic and thermal Energies=              -422.934028
 Sum of electronic and thermal Enthalpies=            -422.933084
 Sum of electronic and thermal Free Energies=         -422.975394

                     E (Thermal)             CV                S
                      KCal/Mol        Cal/Mol-Kelvin    Cal/Mol-Kelvin
 Total                  104.322             32.034             89.049
 Electronic               0.000              0.000              0.000
 Translational            0.889              2.981             40.409
 Rotational               0.889              2.981             28.468
 Vibrational            102.545             26.073             20.172
 Vibration     1          0.600              1.961              3.811
 Vibration     2          0.622              1.891              2.550
 Vibration     3          0.626              1.876              2.405
 Vibration     4          0.637              1.844              2.159
 Vibration     5          0.652              1.795              1.880
 Vibration     6          0.666              1.753              1.690
 Vibration     7          0.751              1.511              1.035
 Vibration     8          0.776              1.444              0.920
 Vibration     9          0.893              1.167              0.570
 Vibration    10          0.948              1.053              0.467

 Optimization completed.
    -- Stationary point found.
 Normal termination of Gaussian 09 at Tue Jan 28 10:19:15 2020.
