 Gaussian 09, Revision D.01,
 Gaussian 09:  ES64L-G09RevD.01 24-Apr-2013

 -----------------------------
 # b3lyp 6-31G(2df,p) opt Freq
 -----------------------------

 -----
 titel
 -----
 Symbolic Z-matrix:
 Charge =  0 Multiplicity = 1

 SCF Done:  E(RB3LYP) =  -423.189844200     A.U. after   13 cycles
 Optimization completed.
    -- Stationary point found.
 Normal termination of Gaussian 09 at Mon Jan 27 23:45:59 2020.

 ----------------------------------------------------------------------
 #N Geom=AllCheck Guess=TCheck SCRF=Check GenChk RB3LYP/6-31G(2df,p) Fr
 eq
 ----------------------------------------------------------------------

 Structure from the checkpoint file:  "/scratch/puck/g09_361b59ca-c2b5-4bbe-b9ee-4bae3b7f32ab/Gau-68003.chk"
 -----
 titel
 -----
 Charge =  0 Multiplicity = 1

                         Standard orientation:
 ---------------------------------------------------------------------
 Center     Atomic      Atomic             Coordinates (Angstroms)
 Number     Number       Type             X           Y           Z
 ---------------------------------------------------------------------
      1          6           0       -2.201486   -0.874603   -0.115487
      2          6           0       -0.754495   -0.472685   -0.084845
      3          6           0        0.433098   -1.432710   -0.203304
      4          6           0        1.580289   -0.667977   -0.857602
      5          6           0        1.211309    0.694151   -0.244426
      6          8           0        1.085324    0.408832    1.164522
      7          6           0        0.178181   -0.684856    1.085778
      8          6           0       -0.271432    0.868575   -0.652162
      9          8           0       -0.896319    1.986500   -0.063883
     10          1           0       -2.536995   -1.087861   -1.137071
     11          1           0       -2.383312   -1.771584    0.485482
     12          1           0       -2.826281   -0.067225    0.279983
     13          1           0        0.306245   -2.504288   -0.286563
     14          1           0        2.565770   -1.016733   -0.536184
     15          1           0        1.538817   -0.657064   -1.950439
     16          1           0        1.875846    1.542317   -0.392919
     17          1           0       -0.083853   -1.124619    2.037854
     18          1           0       -0.404733    0.958382   -1.733980
     19          1           0       -0.616328    1.986641    0.861012
 ---------------------------------------------------------------------

 SCF Done:  E(RB3LYP) =  -423.189844200     A.U. after    1 cycles

 The electronic state is 1-A.
 Alpha  occ. eigenvalues --  -19.14931 -19.13273 -10.23213 -10.23182 -10.22978
 Alpha  occ. eigenvalues --  -10.19243 -10.19217 -10.18903 -10.18043  -1.06277
 Alpha  occ. eigenvalues --   -1.01115  -0.86309  -0.76527  -0.72472  -0.68280
 Alpha  occ. eigenvalues --   -0.60267  -0.57051  -0.55817  -0.51087  -0.49658
 Alpha  occ. eigenvalues --   -0.46574  -0.44650  -0.41022  -0.40593  -0.40087
 Alpha  occ. eigenvalues --   -0.39982  -0.37756  -0.36668  -0.35631  -0.33732
 Alpha  occ. eigenvalues --   -0.30840  -0.28215  -0.26064  -0.23193
 Alpha virt. eigenvalues --    0.09310   0.10243   0.10976   0.12444   0.13095
 Alpha virt. eigenvalues --    0.14106   0.14420   0.15159   0.16230   0.17136
 Alpha virt. eigenvalues --    0.17844   0.19034   0.19223   0.21240   0.22094

 Mulliken charges:
               1
     1  C   -0.508771
     2  C    0.264538
     3  C   -0.164144
     4  C   -0.238832
     5  C   -0.001048
     6  O   -0.278296
     7  C    0.034435
     8  C    0.114726
     9  O   -0.452942
    10  H    0.118665
    11  H    0.113916
    12  H    0.133043
    13  H    0.089611
    14  H    0.109464
    15  H    0.105115
    16  H    0.085375
    17  H    0.103076
    18  H    0.085467
    19  H    0.286604
 Sum of Mulliken charges =   0.00000

 Dipole moment (field-independent basis, Debye):
    X=              0.2381    Y=             -1.6315    Z=             -0.4181  Tot=              1.7009
 Quadrupole moment (field-independent basis, Debye-Ang):
   XX=            -54.0693   YY=            -54.4451   ZZ=            -51.5925
   XY=              2.4859   XZ=             -3.2979   YZ=              0.1916

  Exact polarizability:  78.094   0.316  72.711  -2.440  -0.491  67.975
 Approx polarizability: 107.547  -1.781 107.518  -0.037   1.007 109.166

                      1                      2                      3
                      A                      A                      A
 Frequencies --    186.5305               197.6514               227.7981
 Red. masses --      2.2604                 1.4095                 2.5904
 Frc consts  --      0.0463                 0.0324                 0.0792
 IR Inten    --      2.9936                 1.8033                 1.3598

                      4                      5                      6
                      A                      A                      A
 Frequencies --    259.2787               359.7118               417.8784
 Red. masses --      2.8873                 2.6228                 2.0319
 Frc consts  --      0.1144                 0.1999                 0.2091
 IR Inten    --      2.7046                 2.8753                 0.3963

                      7                      8                      9
                      A                      A                      A
 Frequencies --    457.0213               530.3887               566.7487
 Red. masses --      1.2155                 4.9023                 4.1119
 Frc consts  --      0.1496                 0.8125                 0.7782
 IR Inten    --     76.5654                 0.7851                 4.1685

                     10                     11                     12
                      A                      A                      A
 Frequencies --    622.8660               700.8807               769.5283
 Red. masses --      3.7020                 4.9919                 4.0086
 Frc consts  --      0.8462                 1.4448                 1.3986
 IR Inten    --      6.8929                 1.4744                14.1871

                     13                     14                     15
                      A                      A                      A
 Frequencies --    817.1481               867.0971               879.3896
 Red. masses --      3.6486                 1.6845                 2.2744
 Frc consts  --      1.4354                 0.7462                 1.0363
 IR Inten    --     22.8821                11.1736                 4.2249

                     16                     17                     18
                      A                      A                      A
 Frequencies --    894.9331               911.9991               931.3581
 Red. masses --      1.9998                 2.7921                 2.1630
 Frc consts  --      0.9437                 1.3683                 1.1055
 IR Inten    --     11.3081                19.3748                 5.9030

                     19                     20                     21
                      A                      A                      A
 Frequencies --    956.8740               994.5609              1008.1303
 Red. masses --      1.9835                 2.1240                 1.7101
 Frc consts  --      1.0700                 1.2378                 1.0240
 IR Inten    --      3.3269                 1.7020                10.1309

                     22                     23                     24
                      A                      A                      A
 Frequencies --   1033.3700              1053.0938              1071.4352
 Red. masses --      1.7373                 2.0575                 2.4110
 Frc consts  --      1.0931                 1.3444                 1.6307
 IR Inten    --     15.9683                19.1044                22.1262

                     25                     26                     27
                      A                      A                      A
 Frequencies --   1103.4796              1114.2116              1158.8688
 Red. masses --      2.4494                 2.0575                 1.3621
 Frc consts  --      1.7572                 1.5050                 1.0778
 IR Inten    --     74.9218                34.2664                17.2377

                     28                     29                     30
                      A                      A                      A
 Frequencies --   1173.4063              1220.4427              1240.3067
 Red. masses --      1.7036                 1.4099                 1.4661
 Frc consts  --      1.3821                 1.2373                 1.3288
 IR Inten    --      0.8918                 2.8369                 0.9530

                     31                     32                     33
                      A                      A                      A
 Frequencies --   1271.0893              1275.7412              1294.5298
 Red. masses --      2.0107                 1.8072                 1.6909
 Frc consts  --      1.9141                 1.7330                 1.6695
 IR Inten    --      6.8201                 2.6018                11.9548

                     34                     35                     36
                      A                      A                      A
 Frequencies --   1309.6155              1336.9337              1412.8390
 Red. masses --      1.8639                 1.5779                 1.2409
 Frc consts  --      1.8835                 1.6617                 1.4594
 IR Inten    --      1.0720                 6.6747                 1.0513

                     37                     38                     39
                      A                      A                      A
 Frequencies --   1431.2051              1436.2485              1488.4395
 Red. masses --      3.3033                 1.3177                 1.0468
 Frc consts  --      3.9866                 1.6015                 1.3664
 IR Inten    --     12.1054                65.1757                 4.2163

                     40                     41                     42
                      A                      A                      A
 Frequencies --   1490.6700              1502.6890              3026.4236
 Red. masses --      1.1095                 1.0618                 1.0358
 Frc consts  --      1.4525                 1.4126                 5.5894
 IR Inten    --      5.7041                 6.1689                38.8522

                     43                     44                     45
                      A                      A                      A
 Frequencies --   3057.3108              3079.1301              3086.9657
 Red. masses --      1.0583                 1.0860                 1.0999
 Frc consts  --      5.8284                 6.0667                 6.1752
 IR Inten    --     27.2206                22.9140                24.2730

                     46                     47                     48
                      A                      A                      A
 Frequencies --   3102.2824              3107.1873              3155.0644
 Red. masses --      1.1011                 1.1072                 1.0912
 Frc consts  --      6.2437                 6.2983                 6.3997
 IR Inten    --     15.3856                23.3065                24.5479

                     49                     50                     51
                      A                      A                      A
 Frequencies --   3198.9623              3220.5477              3768.4698
 Red. masses --      1.0916                 1.0955                 1.0649
 Frc consts  --      6.5816                 6.6944                 8.9102
 IR Inten    --      8.1538                10.0726                23.1496

 - Thermochemistry -
 -------------------
 Temperature   298.150 Kelvin.  Pressure   1.00000 Atm.
 Atom     1 has atomic number  6 and mass  12.00000

 Molecular mass:   126.06808 amu.
 Principal axes and moments of inertia in atomic units:
                           1         2         3
     Eigenvalues --   761.48620 881.778131178.72334
           X            0.99144   0.12551  -0.03596
           Y           -0.12561   0.99208  -0.00033
           Z            0.03563   0.00484   0.99935
 This molecule is an asymmetric top.
 Rotational symmetry number  1.
 Warning -- assumption of classical behavior for rotation
           may cause significant error
 Rotational temperatures (Kelvin)      0.11374     0.09823     0.07348
 Rotational constants (GHZ):           2.37002     2.04671     1.53110
 Zero-point vibrational energy     423350.8 (Joules/Mol)
                                  101.18328 (Kcal/Mol)
 Warning -- explicit consideration of   9 degrees of freedom as
           vibrations may cause significant error
 Vibrational temperatures:    268.38   284.38   327.75   373.04   517.54
          (Kelvin)            601.23   657.55   763.11   815.42   896.16
                             1008.41  1107.18  1175.69  1247.56  1265.24
                             1287.61  1312.16  1340.01  1376.73  1430.95
                             1450.47  1486.79  1515.17  1541.55  1587.66
                             1603.10  1667.35  1688.27  1755.94  1784.52
                             1828.81  1835.50  1862.54  1884.24  1923.55
                             2032.76  2059.18  2066.44  2141.53  2144.74
                             2162.03  4354.34  4398.78  4430.18  4441.45
                             4463.49  4470.54  4539.43  4602.59  4633.64
                             5421.98

 Zero-point correction=                           0.161246 (Hartree/Particle)
 Thermal correction to Energy=                    0.168610
 Thermal correction to Enthalpy=                  0.169555
 Thermal correction to Gibbs Free Energy=         0.129960
 Sum of electronic and zero-point Energies=           -423.028598
 Sum of electronic and thermal Energies=              -423.021234
 Sum of electronic and thermal Enthalpies=            -423.020290
 Sum of electronic and thermal Free Energies=         -423.059884

                     E (Thermal)             CV                S
                      KCal/Mol        Cal/Mol-Kelvin    Cal/Mol-Kelvin
 Total                  105.805             30.279             83.334
 Electronic               0.000              0.000              0.000
 Translational            0.889              2.981             40.409
 Rotational               0.889              2.981             28.161
 Vibrational            104.027             24.317             14.764
 Vibration     1          0.632              1.858              2.262
 Vibration     2          0.637              1.843              2.155
 Vibration     3          0.651              1.799              1.896
 Vibration     4          0.668              1.747              1.667
 Vibration     5          0.734              1.555              1.123
 Vibration     6          0.781              1.431              0.899
 Vibration     7          0.815              1.345              0.775
 Vibration     8          0.885              1.183              0.586
 Vibration     9          0.923              1.103              0.511

 Optimization completed.
    -- Stationary point found.
 Normal termination of Gaussian 09 at Tue Jan 28 00:32:47 2020.
