 Gaussian 09, Revision D.01,
 Gaussian 09:  ES64L-G09RevD.01 24-Apr-2013

 -----------------------------
 # b3lyp 6-31G(2df,p) opt Freq
 -----------------------------

 -----
 titel
 -----
 Symbolic Z-matrix:
 Charge =  0 Multiplicity = 1

 SCF Done:  E(RB3LYP) =  -423.193848142     A.U. after   14 cycles
 Optimization completed.
    -- Stationary point found.
 Normal termination of Gaussian 09 at Tue Jan 28 00:05:40 2020.

 ----------------------------------------------------------------------
 #N Geom=AllCheck Guess=TCheck SCRF=Check GenChk RB3LYP/6-31G(2df,p) Fr
 eq
 ----------------------------------------------------------------------

 Structure from the checkpoint file:  "/scratch/puck/g09_755c591f-1164-4a82-8413-77d5e5024682/Gau-56590.chk"
 -----
 titel
 -----
 Charge =  0 Multiplicity = 1

                         Standard orientation:
 ---------------------------------------------------------------------
 Center     Atomic      Atomic             Coordinates (Angstroms)
 Number     Number       Type             X           Y           Z
 ---------------------------------------------------------------------
      1          6           0        2.204339    0.524480   -0.760745
      2          6           0        0.720466    0.208663   -0.874202
      3          6           0        0.150951   -1.221788   -0.556874
      4          6           0        0.590970   -1.449671    0.910411
      5          6           0        0.273747   -0.041069    1.518919
      6          6           0       -0.288775    0.663026    0.270810
      7          8           0       -0.729072    1.959576    0.449979
      8          6           0       -1.156243   -0.443078   -0.342585
      9          8           0       -2.294057   -0.501277   -0.714104
     10          1           0        2.647377    0.171670    0.173469
     11          1           0        2.760913    0.067079   -1.585143
     12          1           0        2.359967    1.607082   -0.813267
     13          1           0        0.340535    0.551573   -1.842609
     14          1           0        0.223307   -2.045415   -1.262612
     15          1           0        0.017889   -2.249032    1.386639
     16          1           0        1.648974   -1.711335    0.983574
     17          1           0       -0.470721   -0.075997    2.317931
     18          1           0        1.157814    0.470241    1.907082
     19          1           0       -1.473743    2.104360   -0.146468
 ---------------------------------------------------------------------

 SCF Done:  E(RB3LYP) =  -423.193848142     A.U. after    1 cycles

 The electronic state is 1-A.
 Alpha  occ. eigenvalues --  -19.15300 -19.14036 -10.26693 -10.24483 -10.20571
 Alpha  occ. eigenvalues --  -10.20139 -10.19826 -10.19283 -10.18601  -1.05500
 Alpha  occ. eigenvalues --   -1.03461  -0.89414  -0.75226  -0.71809  -0.69769
 Alpha  occ. eigenvalues --   -0.58435  -0.57147  -0.56221  -0.51147  -0.47155
 Alpha  occ. eigenvalues --   -0.46309  -0.44932  -0.43065  -0.40468  -0.38872
 Alpha  occ. eigenvalues --   -0.38020  -0.37784  -0.36616  -0.36055  -0.35455
 Alpha  occ. eigenvalues --   -0.34122  -0.32637  -0.27027  -0.23067
 Alpha virt. eigenvalues --   -0.00811   0.07389   0.09111   0.10898   0.13049
 Alpha virt. eigenvalues --    0.13277   0.14615   0.15313   0.16134   0.17249
 Alpha virt. eigenvalues --    0.17529   0.17705   0.20003   0.20625   0.22404

 Mulliken charges:
               1
     1  C   -0.440368
     2  C   -0.030998
     3  C   -0.168296
     4  C   -0.231049
     5  C   -0.258895
     6  C    0.296800
     7  O   -0.485208
     8  C    0.363149
     9  O   -0.340874
    10  H    0.123253
    11  H    0.122780
    12  H    0.132122
    13  H    0.086349
    14  H    0.085524
    15  H    0.114078
    16  H    0.110085
    17  H    0.115289
    18  H    0.112484
    19  H    0.293773
 Sum of Mulliken charges =   0.00000

 Dipole moment (field-independent basis, Debye):
    X=              2.2376    Y=             -0.4067    Z=             -0.1051  Tot=              2.2767
 Quadrupole moment (field-independent basis, Debye-Ang):
   XX=            -57.6223   YY=            -53.6005   ZZ=            -52.2454
   XY=             -3.1151   XZ=             -1.6194   YZ=             -3.2677

  Exact polarizability:  81.662  -0.360  72.783   0.697  -0.664  69.893
 Approx polarizability: 123.723  -0.211 107.378   4.597   1.024 103.656

                      1                      2                      3
                      A                      A                      A
 Frequencies --    136.6101               165.8248               175.4176
 Red. masses --      3.6648                 1.5694                 1.6465
 Frc consts  --      0.0403                 0.0254                 0.0299
 IR Inten    --     14.1709                 3.5090                14.7902

                      4                      5                      6
                      A                      A                      A
 Frequencies --    223.2899               266.2193               287.4297
 Red. masses --      2.8267                 2.5802                 1.7781
 Frc consts  --      0.0830                 0.1077                 0.0865
 IR Inten    --      8.5350                 4.4566                 0.2873

                      7                      8                      9
                      A                      A                      A
 Frequencies --    310.6116               382.9366               501.6627
 Red. masses --      1.8396                 2.9795                 3.3545
 Frc consts  --      0.1046                 0.2574                 0.4974
 IR Inten    --     51.4476                 3.4104                 0.2980

                     10                     11                     12
                      A                      A                      A
 Frequencies --    525.6051               601.8609               686.4330
 Red. masses --      3.7846                 3.9351                 4.1740
 Frc consts  --      0.6160                 0.8398                 1.1588
 IR Inten    --      1.1287                 0.7355                 2.0127

                     13                     14                     15
                      A                      A                      A
 Frequencies --    702.4003               755.5074               787.3701
 Red. masses --      3.3334                 4.6955                 5.5444
 Frc consts  --      0.9690                 1.5791                 2.0252
 IR Inten    --      2.8791                10.4021                37.2010

                     16                     17                     18
                      A                      A                      A
 Frequencies --    805.8440               866.2200               904.1507
 Red. masses --      2.1677                 1.4256                 2.3884
 Frc consts  --      0.8294                 0.6302                 1.1504
 IR Inten    --      1.7220                 0.9333                 0.5455

                     19                     20                     21
                      A                      A                      A
 Frequencies --    960.5935               991.7308              1010.6124
 Red. masses --      2.2166                 2.4395                 1.5282
 Frc consts  --      1.2051                 1.4136                 0.9196
 IR Inten    --      0.6533                 1.8081                 2.3694

                     22                     23                     24
                      A                      A                      A
 Frequencies --   1025.7625              1088.8859              1107.0530
 Red. masses --      1.4999                 2.0696                 1.6376
 Frc consts  --      0.9298                 1.4458                 1.1825
 IR Inten    --      1.3648                 3.2066                32.5846

                     25                     26                     27
                      A                      A                      A
 Frequencies --   1128.2292              1137.3254              1157.8914
 Red. masses --      2.2308                 1.5845                 1.9366
 Frc consts  --      1.6730                 1.2076                 1.5297
 IR Inten    --      1.2215                52.5038                 8.2842

                     28                     29                     30
                      A                      A                      A
 Frequencies --   1212.8258              1223.1553              1242.6410
 Red. masses --      1.5748                 1.5535                 1.1914
 Frc consts  --      1.3648                 1.3694                 1.0839
 IR Inten    --     10.0840                 7.8802                 2.1253

                     31                     32                     33
                      A                      A                      A
 Frequencies --   1262.5877              1315.6702              1355.2433
 Red. masses --      1.9918                 1.4709                 2.1342
 Frc consts  --      1.8707                 1.5001                 2.3095
 IR Inten    --     17.9962                 1.9781                99.7025

                     34                     35                     36
                      A                      A                      A
 Frequencies --   1373.9287              1409.7587              1418.8793
 Red. masses --      1.6498                 1.2650                 1.5583
 Frc consts  --      1.8349                 1.4812                 1.8484
 IR Inten    --      3.8686                 2.6983                 2.1449

                     37                     38                     39
                      A                      A                      A
 Frequencies --   1486.2305              1496.1395              1508.0137
 Red. masses --      1.0587                 1.0596                 1.0652
 Frc consts  --      1.3778                 1.3974                 1.4272
 IR Inten    --      2.7529                 2.6418                 0.9853

                     40                     41                     42
                      A                      A                      A
 Frequencies --   1520.4066              1887.8584              3039.0906
 Red. masses --      1.1030                12.4639                 1.0377
 Frc consts  --      1.5023                26.1723                 5.6472
 IR Inten    --      5.6411               304.1894                24.2625

                     43                     44                     45
                      A                      A                      A
 Frequencies --   3051.5697              3063.6221              3071.9263
 Red. masses --      1.0828                 1.0583                 1.0598
 Frc consts  --      5.9406                 5.8522                 5.8927
 IR Inten    --     20.4684                27.0655                27.8680

                     46                     47                     48
                      A                      A                      A
 Frequencies --   3100.7116              3101.2321              3116.3761
 Red. masses --      1.1018                 1.1075                 1.1042
 Frc consts  --      6.2414                 6.2759                 6.3183
 IR Inten    --     14.1066                 1.4488                38.7733

                     49                     50                     51
                      A                      A                      A
 Frequencies --   3122.1559              3154.6741              3783.5917
 Red. masses --      1.1017                 1.0911                 1.0659
 Frc consts  --      6.3271                 6.3978                 8.9905
 IR Inten    --     22.6836                18.0147                32.2672

 - Thermochemistry -
 -------------------
 Temperature   298.150 Kelvin.  Pressure   1.00000 Atm.
 Atom     1 has atomic number  6 and mass  12.00000

 Molecular mass:   126.06808 amu.
 Principal axes and moments of inertia in atomic units:
                           1         2         3
     Eigenvalues --   825.647041060.925691236.99949
           X            0.99924  -0.02419  -0.03066
           Y            0.02154   0.99622  -0.08412
           Z            0.03258   0.08339   0.99598
 This molecule is an asymmetric top.
 Rotational symmetry number  1.
 Warning -- assumption of classical behavior for rotation
           may cause significant error
 Rotational temperatures (Kelvin)      0.10490     0.08164     0.07002
 Rotational constants (GHZ):           2.18585     1.70110     1.45897
 Zero-point vibrational energy     418763.4 (Joules/Mol)
                                  100.08684 (Kcal/Mol)
 Warning -- explicit consideration of  11 degrees of freedom as
           vibrations may cause significant error
 Vibrational temperatures:    196.55   238.58   252.39   321.26   383.03
          (Kelvin)            413.55   446.90   550.96   721.78   756.23
                              865.94   987.62  1010.60  1087.01  1132.85
                             1159.43  1246.30  1300.87  1382.08  1426.88
                             1454.04  1475.84  1566.66  1592.80  1623.27
                             1636.36  1665.95  1744.98  1759.85  1787.88
                             1816.58  1892.95  1949.89  1976.77  2028.33
                             2041.45  2138.35  2152.61  2169.69  2187.52
                             2716.20  4372.57  4390.52  4407.86  4419.81
                             4461.23  4461.98  4483.76  4492.08  4538.87
                             5443.74

 Zero-point correction=                           0.159499 (Hartree/Particle)
 Thermal correction to Energy=                    0.167941
 Thermal correction to Enthalpy=                  0.168885
 Thermal correction to Gibbs Free Energy=         0.126947
 Sum of electronic and zero-point Energies=           -423.034350
 Sum of electronic and thermal Energies=              -423.025908
 Sum of electronic and thermal Enthalpies=            -423.024963
 Sum of electronic and thermal Free Energies=         -423.066901

                     E (Thermal)             CV                S
                      KCal/Mol        Cal/Mol-Kelvin    Cal/Mol-Kelvin
 Total                  105.384             32.722             88.265
 Electronic               0.000              0.000              0.000
 Translational            0.889              2.981             40.409
 Rotational               0.889              2.981             28.473
 Vibrational            103.607             26.760             19.384
 Vibration     1          0.614              1.917              2.851
 Vibration     2          0.624              1.884              2.482
 Vibration     3          0.627              1.873              2.377
 Vibration     4          0.649              1.806              1.932
 Vibration     5          0.672              1.735              1.621
 Vibration     6          0.685              1.697              1.489
 Vibration     7          0.699              1.653              1.359
 Vibration     8          0.752              1.507              1.028
 Vibration     9          0.857              1.246              0.654
 Vibration    10          0.881              1.193              0.597
 Vibration    11          0.960              1.028              0.446

 Normal termination of Gaussian 09 at Tue Jan 28 01:30:46 2020.
