 Gaussian 09, Revision D.01,
 Gaussian 09:  ES64L-G09RevD.01 24-Apr-2013

 -----------------------------
 # b3lyp 6-31G(2df,p) opt Freq
 -----------------------------

 -----
 titel
 -----
 Symbolic Z-matrix:
 Charge =  0 Multiplicity = 1

 SCF Done:  E(RB3LYP) =  -423.164958368     A.U. after   13 cycles
 Optimization completed.
    -- Stationary point found.
 Normal termination of Gaussian 09 at Tue Jan 28 09:48:11 2020.

 ----------------------------------------------------------------------
 #N Geom=AllCheck Guess=TCheck SCRF=Check GenChk RB3LYP/6-31G(2df,p) Fr
 eq
 ----------------------------------------------------------------------

 Structure from the checkpoint file:  "/scratch/puck/g09_eb2fbb4f-1dbe-4dc5-a92e-be31d2abc498/Gau-21351.chk"
 -----
 titel
 -----
 Charge =  0 Multiplicity = 1

                         Standard orientation:
 ---------------------------------------------------------------------
 Center     Atomic      Atomic             Coordinates (Angstroms)
 Number     Number       Type             X           Y           Z
 ---------------------------------------------------------------------
      1          6           0       -2.864908   -0.397133   -0.282926
      2          6           0       -1.778783    0.021265    0.716933
      3          6           0       -0.429047    0.200636    0.073363
      4          8           0       -0.250335    1.364465   -0.759795
      5          6           0        0.555167    1.236956    0.423394
      6          6           0        1.979378    0.772052    0.147609
      7          6           0        1.784332   -0.634168   -0.405615
      8          8           0        1.212505   -1.552772    0.538223
      9          6           0        0.358311   -0.973485   -0.460640
     10          1           0       -2.957984    0.343615   -1.082690
     11          1           0       -2.638779   -1.364736   -0.743093
     12          1           0       -3.835448   -0.486911    0.213176
     13          1           0       -2.063127    0.963827    1.196790
     14          1           0       -1.683617   -0.729156    1.511468
     15          1           0        0.354878    1.973496    1.197409
     16          1           0        2.473153    1.423031   -0.581472
     17          1           0        2.583268    0.759861    1.060946
     18          1           0        2.508947   -1.067629   -1.089183
     19          1           0       -0.065350   -1.665679   -1.183485
 ---------------------------------------------------------------------

 SCF Done:  E(RB3LYP) =  -423.164958368     A.U. after    1 cycles

 The electronic state is 1-A.
 Alpha  occ. eigenvalues --  -19.15256 -19.14905 -10.24002 -10.23995 -10.23739
 Alpha  occ. eigenvalues --  -10.23686 -10.19415 -10.19008 -10.17855  -1.08374
 Alpha  occ. eigenvalues --   -1.05853  -0.78314  -0.77528  -0.69938  -0.66203
 Alpha  occ. eigenvalues --   -0.62611  -0.58342  -0.56404  -0.51958  -0.47626
 Alpha  occ. eigenvalues --   -0.46484  -0.43708  -0.43319  -0.42204  -0.40230
 Alpha  occ. eigenvalues --   -0.38334  -0.37873  -0.37573  -0.35637  -0.34341
 Alpha  occ. eigenvalues --   -0.29812  -0.28915  -0.27634  -0.25836
 Alpha virt. eigenvalues --    0.07491   0.08677   0.10326   0.11470   0.12111
 Alpha virt. eigenvalues --    0.12418   0.13978   0.15021   0.15759   0.17015
 Alpha virt. eigenvalues --    0.17711   0.18564   0.19284   0.20200   0.20537

 Mulliken charges:
               1
     1  C   -0.385319
     2  C   -0.290749
     3  C    0.416576
     4  O   -0.307121
     5  C   -0.020882
     6  C   -0.280323
     7  C    0.059092
     8  O   -0.260278
     9  C   -0.053074
    10  H    0.134664
    11  H    0.118393
    12  H    0.116630
    13  H    0.106593
    14  H    0.115615
    15  H    0.096499
    16  H    0.117478
    17  H    0.117155
    18  H    0.099691
    19  H    0.099361
 Sum of Mulliken charges =   0.00000

 Dipole moment (field-independent basis, Debye):
    X=              0.0914    Y=              0.2414    Z=              0.1663  Tot=              0.3071
 Quadrupole moment (field-independent basis, Debye-Ang):
   XX=            -49.0548   YY=            -55.9541   ZZ=            -53.5374
   XY=              3.2399   XZ=             -2.3813   YZ=              5.2015

  Exact polarizability:  88.729   4.699  70.881  -0.121   3.894  62.235
 Approx polarizability: 115.119   6.053 108.405   3.361  -1.791 100.600

                      1                      2                      3
                      A                      A                      A
 Frequencies --     76.1991               154.4346               182.4852
 Red. masses --      2.5742                 2.6123                 1.8715
 Frc consts  --      0.0088                 0.0367                 0.0367
 IR Inten    --      0.0974                 0.8929                 2.6528

                      4                      5                      6
                      A                      A                      A
 Frequencies --    240.7815               267.0496               361.3368
 Red. masses --      1.6776                 2.7567                 2.2642
 Frc consts  --      0.0573                 0.1158                 0.1742
 IR Inten    --      5.0054                 2.9494                 3.6649

                      7                      8                      9
                      A                      A                      A
 Frequencies --    407.9850               457.9216               503.0869
 Red. masses --      2.9407                 4.5555                 5.4130
 Frc consts  --      0.2884                 0.5628                 0.8072
 IR Inten    --      9.5370                 4.3654                 1.2316

                     10                     11                     12
                      A                      A                      A
 Frequencies --    616.5012               721.8162               758.8204
 Red. masses --      3.4685                 4.0400                 3.1401
 Frc consts  --      0.7767                 1.2402                 1.0653
 IR Inten    --      4.2684                 2.2214                 3.5496

                     13                     14                     15
                      A                      A                      A
 Frequencies --    791.1536               824.7133               862.5108
 Red. masses --      1.4999                 4.7937                 2.5222
 Frc consts  --      0.5531                 1.9210                 1.1055
 IR Inten    --      2.0423                 7.3951                 1.6893

                     16                     17                     18
                      A                      A                      A
 Frequencies --    876.4065               932.3414               937.1867
 Red. masses --      2.5832                 2.5528                 2.7890
 Frc consts  --      1.1690                 1.3074                 1.4433
 IR Inten    --     45.6137                14.5504                 4.4730

                     19                     20                     21
                      A                      A                      A
 Frequencies --    960.9150               972.1327              1015.4722
 Red. masses --      3.4806                 2.1257                 1.4931
 Frc consts  --      1.8935                 1.1836                 0.9071
 IR Inten    --     10.7299                 5.0319                 7.5254

                     22                     23                     24
                      A                      A                      A
 Frequencies --   1049.5011              1074.4128              1082.0432
 Red. masses --      1.5034                 2.0782                 1.6994
 Frc consts  --      0.9757                 1.4134                 1.1723
 IR Inten    --      6.4026                15.3000                 1.7300

                     25                     26                     27
                      A                      A                      A
 Frequencies --   1105.6328              1123.3060              1215.9902
 Red. masses --      1.7728                 1.5834                 1.2477
 Frc consts  --      1.2768                 1.1771                 1.0869
 IR Inten    --      3.3372                 0.5949                 1.6541

                     28                     29                     30
                      A                      A                      A
 Frequencies --   1232.1145              1257.9784              1274.4985
 Red. masses --      1.7612                 1.4233                 1.3864
 Frc consts  --      1.5753                 1.3271                 1.3269
 IR Inten    --     10.6458                 6.3210                 4.9285

                     31                     32                     33
                      A                      A                      A
 Frequencies --   1291.9088              1314.2376              1359.5670
 Red. masses --      1.3023                 1.7277                 1.8817
 Frc consts  --      1.2806                 1.7582                 2.0493
 IR Inten    --      0.8763                 9.9919                 2.4489

                     34                     35                     36
                      A                      A                      A
 Frequencies --   1367.5556              1409.6281              1431.7243
 Red. masses --      1.4409                 1.2396                 3.4901
 Frc consts  --      1.5877                 1.4513                 4.2151
 IR Inten    --      2.2600                 2.7853                 8.2192

                     37                     38                     39
                      A                      A                      A
 Frequencies --   1459.8149              1466.9404              1475.5435
 Red. masses --      2.6444                 1.1479                 1.1732
 Frc consts  --      3.3202                 1.4554                 1.5050
 IR Inten    --     12.7462                 2.5749                 4.3341

                     40                     41                     42
                      A                      A                      A
 Frequencies --   1499.9273              1507.9704              3034.0230
 Red. masses --      1.0395                 1.0968                 1.0600
 Frc consts  --      1.3779                 1.4695                 5.7490
 IR Inten    --      4.4429                 5.2879                14.1953

                     43                     44                     45
                      A                      A                      A
 Frequencies --   3039.4051              3048.3683              3074.5462
 Red. masses --      1.0358                 1.0589                 1.1011
 Frc consts  --      5.6378                 5.7976                 6.1325
 IR Inten    --     24.3382                25.3514                 6.3954

                     46                     47                     48
                      A                      A                      A
 Frequencies --   3092.9085              3107.9712              3117.3379
 Red. masses --      1.1043                 1.1011                 1.1025
 Frc consts  --      6.2238                 6.2666                 6.3125
 IR Inten    --     10.9909                36.5096                23.7089

                     49                     50                     51
                      A                      A                      A
 Frequencies --   3146.2331              3147.1084              3159.8998
 Red. masses --      1.0871                 1.0906                 1.0954
 Frc consts  --      6.3402                 6.3641                 6.4443
 IR Inten    --     19.8131                26.9523                26.3664

 - Thermochemistry -
 -------------------
 Temperature   298.150 Kelvin.  Pressure   1.00000 Atm.
 Atom     1 has atomic number  6 and mass  12.00000

 Molecular mass:   126.06808 amu.
 Principal axes and moments of inertia in atomic units:
                           1         2         3
     Eigenvalues --   590.614471248.194911562.88339
           X            0.99920   0.03979  -0.00407
           Y           -0.03943   0.99692   0.06779
           Z            0.00675  -0.06758   0.99769
 This molecule is an asymmetric top.
 Rotational symmetry number  1.
 Warning -- assumption of classical behavior for rotation
           may cause significant error
 Rotational temperatures (Kelvin)      0.14665     0.06939     0.05542
 Rotational constants (GHZ):           3.05570     1.44588     1.15475
 Zero-point vibrational energy     418031.1 (Joules/Mol)
                                   99.91184 (Kcal/Mol)
 Warning -- explicit consideration of  10 degrees of freedom as
           vibrations may cause significant error
 Vibrational temperatures:    109.63   222.20   262.56   346.43   384.22
          (Kelvin)            519.88   587.00   658.85   723.83   887.01
                             1038.53  1091.77  1138.29  1186.58  1240.96
                             1260.95  1341.43  1348.40  1382.54  1398.68
                             1461.04  1510.00  1545.84  1556.82  1590.76
                             1616.18  1749.54  1772.74  1809.95  1833.72
                             1858.77  1890.89  1956.11  1967.61  2028.14
                             2059.93  2100.35  2110.60  2122.98  2158.06
                             2169.63  4365.28  4373.02  4385.92  4423.58
                             4450.00  4471.67  4485.15  4526.72  4527.98
                             4546.39

 Zero-point correction=                           0.159220 (Hartree/Particle)
 Thermal correction to Energy=                    0.167251
 Thermal correction to Enthalpy=                  0.168195
 Thermal correction to Gibbs Free Energy=         0.126571
 Sum of electronic and zero-point Energies=           -423.005739
 Sum of electronic and thermal Energies=              -422.997707
 Sum of electronic and thermal Enthalpies=            -422.996763
 Sum of electronic and thermal Free Energies=         -423.038387

                     E (Thermal)             CV                S
                      KCal/Mol        Cal/Mol-Kelvin    Cal/Mol-Kelvin
 Total                  104.952             31.061             87.605
 Electronic               0.000              0.000              0.000
 Translational            0.889              2.981             40.409
 Rotational               0.889              2.981             28.534
 Vibrational            103.174             25.099             18.662
 Vibration     1          0.599              1.965              3.986
 Vibration     2          0.620              1.898              2.617
 Vibration     3          0.630              1.864              2.303
 Vibration     4          0.658              1.778              1.797
 Vibration     5          0.672              1.734              1.615
 Vibration     6          0.736              1.552              1.116
 Vibration     7          0.773              1.453              0.934
 Vibration     8          0.816              1.343              0.772
 Vibration     9          0.858              1.243              0.650
 Vibration    10          0.976              0.997              0.422

 Normal termination of Gaussian 09 at Tue Jan 28 10:29:56 2020.
