 Gaussian 09, Revision D.01,
 Gaussian 09:  ES64L-G09RevD.01 24-Apr-2013

 -----------------------------
 # b3lyp 6-31G(2df,p) opt Freq
 -----------------------------

 -----
 titel
 -----
 Symbolic Z-matrix:
 Charge =  0 Multiplicity = 1

 SCF Done:  E(RB3LYP) =  -423.199820009     A.U. after   13 cycles
 Optimization completed.
    -- Stationary point found.
 Normal termination of Gaussian 09 at Mon Jan 27 11:28:28 2020.

 ----------------------------------------------------------------------
 #N Geom=AllCheck Guess=TCheck SCRF=Check GenChk RB3LYP/6-31G(2df,p) Fr
 eq
 ----------------------------------------------------------------------

 Structure from the checkpoint file:  "/scratch/puck/g09_9bcc7647-2903-4fb4-bacb-9bd74f0327ca/Gau-61269.chk"
 -----
 titel
 -----
 Charge =  0 Multiplicity = 1

                         Standard orientation:
 ---------------------------------------------------------------------
 Center     Atomic      Atomic             Coordinates (Angstroms)
 Number     Number       Type             X           Y           Z
 ---------------------------------------------------------------------
      1          6           0        1.860793   -0.902843    0.222012
      2          6           0        2.117233    0.324687   -0.623160
      3          6           0        1.199539    1.265608   -0.414242
      4          6           0        0.197277    0.844051    0.640275
      5          6           0       -1.270074    1.223310    0.410016
      6          8           0       -1.877135    0.421868   -0.590261
      7          6           0       -1.743457   -0.934304   -0.266518
      8          8           0       -0.410272   -1.359646   -0.276111
      9          6           0        0.408580   -0.696624    0.688584
     10          1           0        1.951135   -1.845710   -0.326229
     11          1           0        2.550904   -0.952871    1.075603
     12          1           0        2.965891    0.408809   -1.292212
     13          1           0        1.172757    2.242300   -0.885155
     14          1           0        0.491990    1.273389    1.610661
     15          1           0       -1.829437    1.117513    1.355324
     16          1           0       -1.361817    2.262580    0.080660
     17          1           0       -2.202268   -1.128610    0.723832
     18          1           0       -2.262775   -1.505421   -1.038806
     19          1           0        0.203534   -1.113070    1.685506
 ---------------------------------------------------------------------

 SCF Done:  E(RB3LYP) =  -423.199820009     A.U. after    1 cycles

 The electronic state is 1-A.
 Alpha  occ. eigenvalues --  -19.14166 -19.13963 -10.26848 -10.23532 -10.23117
 Alpha  occ. eigenvalues --  -10.19218 -10.18382 -10.17968 -10.17789  -1.07060
 Alpha  occ. eigenvalues --   -1.00367  -0.84506  -0.74786  -0.71707  -0.66532
 Alpha  occ. eigenvalues --   -0.63606  -0.56215  -0.53701  -0.50532  -0.49559
 Alpha  occ. eigenvalues --   -0.49220  -0.45893  -0.45561  -0.41636  -0.38958
 Alpha  occ. eigenvalues --   -0.38733  -0.36832  -0.36024  -0.34648  -0.32696
 Alpha  occ. eigenvalues --   -0.30936  -0.26609  -0.26034  -0.24032
 Alpha virt. eigenvalues --    0.02153   0.09101   0.11228   0.12308   0.12821
 Alpha virt. eigenvalues --    0.14092   0.14229   0.15016   0.16696   0.17134
 Alpha virt. eigenvalues --    0.18449   0.18702   0.20038   0.20880   0.21307

 Mulliken charges:
               1
     1  C   -0.271774
     2  C   -0.065781
     3  C   -0.057775
     4  C   -0.064711
     5  C   -0.112450
     6  O   -0.225791
     7  C    0.020070
     8  O   -0.254170
     9  C    0.098212
    10  H    0.119722
    11  H    0.103333
    12  H    0.093822
    13  H    0.092612
    14  H    0.082415
    15  H    0.086033
    16  H    0.110145
    17  H    0.068230
    18  H    0.115868
    19  H    0.061991
 Sum of Mulliken charges =   0.00000

 Dipole moment (field-independent basis, Debye):
    X=              0.6179    Y=              0.5090    Z=              1.6240  Tot=              1.8106
 Quadrupole moment (field-independent basis, Debye-Ang):
   XX=            -52.2391   YY=            -52.0797   ZZ=            -53.0817
   XY=              0.7853   XZ=             -1.9469   YZ=              0.0725

  Exact polarizability:  84.468  -4.491  77.645  -4.461  -0.651  65.007
 Approx polarizability: 114.845 -13.099 117.161  -5.152   1.252 101.615

                      1                      2                      3
                      A                      A                      A
 Frequencies --    141.8685               158.4366               292.9404
 Red. masses --      2.7630                 5.2113                 2.3760
 Frc consts  --      0.0328                 0.0771                 0.1201
 IR Inten    --      0.3628                 1.5868                 0.9745

                      4                      5                      6
                      A                      A                      A
 Frequencies --    332.7355               402.8230               415.0203
 Red. masses --      3.1177                 2.3882                 2.0562
 Frc consts  --      0.2034                 0.2283                 0.2087
 IR Inten    --      2.1925                 2.3006                 5.4497

                      7                      8                      9
                      A                      A                      A
 Frequencies --    450.3656               579.4908               677.5181
 Red. masses --      4.1261                 4.9770                 2.8581
 Frc consts  --      0.4931                 0.9847                 0.7730
 IR Inten    --      2.2791                 2.6962                12.1471

                     10                     11                     12
                      A                      A                      A
 Frequencies --    705.3384               777.8548               828.4746
 Red. masses --      1.7550                 4.3144                 2.9997
 Frc consts  --      0.5144                 1.5381                 1.2131
 IR Inten    --      7.0673                 0.9170                32.3974

                     13                     14                     15
                      A                      A                      A
 Frequencies --    858.7983               860.6770               914.1432
 Red. masses --      2.5187                 4.4313                 2.0053
 Frc consts  --      1.0945                 1.9340                 0.9873
 IR Inten    --      5.3090                12.8535                 5.1737

                     16                     17                     18
                      A                      A                      A
 Frequencies --    934.1065               964.1812               969.1427
 Red. masses --      2.5710                 1.9427                 1.5067
 Frc consts  --      1.3217                 1.0641                 0.8338
 IR Inten    --      3.2089                 8.2310                 3.8822

                     19                     20                     21
                      A                      A                      A
 Frequencies --   1008.1429              1024.6127              1057.2277
 Red. masses --      2.3017                 2.0079                 3.3580
 Frc consts  --      1.3783                 1.2419                 2.2114
 IR Inten    --     15.3882                21.7215                96.8391

                     22                     23                     24
                      A                      A                      A
 Frequencies --   1085.2066              1098.3479              1133.7790
 Red. masses --      2.6308                 1.9832                 1.2028
 Frc consts  --      1.8254                 1.4096                 0.9110
 IR Inten    --     30.0910                17.3829                 8.6824

                     25                     26                     27
                      A                      A                      A
 Frequencies --   1150.9546              1186.3897              1218.6254
 Red. masses --      2.1631                 1.4678                 1.7089
 Frc consts  --      1.6883                 1.2172                 1.4953
 IR Inten    --     48.8509                22.0952                86.0534

                     28                     29                     30
                      A                      A                      A
 Frequencies --   1254.2539              1280.0184              1296.8243
 Red. masses --      1.5491                 1.6361                 1.3208
 Frc consts  --      1.4358                 1.5794                 1.3087
 IR Inten    --     26.3798                13.1163                 4.4191

                     31                     32                     33
                      A                      A                      A
 Frequencies --   1309.9677              1325.4135              1344.9761
 Red. masses --      1.4093                 1.4806                 1.3241
 Frc consts  --      1.4248                 1.5325                 1.4112
 IR Inten    --      1.3090                 2.9053                 1.3505

                     34                     35                     36
                      A                      A                      A
 Frequencies --   1368.5682              1383.2776              1411.9146
 Red. masses --      1.2283                 1.6541                 1.3358
 Frc consts  --      1.3554                 1.8648                 1.5690
 IR Inten    --      4.9398                 6.0603                16.3940

                     37                     38                     39
                      A                      A                      A
 Frequencies --   1447.8681              1471.4878              1493.4665
 Red. masses --      1.2362                 1.0981                 1.0881
 Frc consts  --      1.5269                 1.4009                 1.4299
 IR Inten    --     15.8242                 2.8543                 2.8137

                     40                     41                     42
                      A                      A                      A
 Frequencies --   1509.7562              1683.8839              2902.4505
 Red. masses --      1.1102                 6.4374                 1.0705
 Frc consts  --      1.4910                10.7544                 5.3134
 IR Inten    --      3.2008                 0.9044                84.2056

                     43                     44                     45
                      A                      A                      A
 Frequencies --   2958.8294              2980.9618              2999.8455
 Red. masses --      1.0712                 1.0814                 1.0818
 Frc consts  --      5.5255                 5.6619                 5.7359
 IR Inten    --     46.8563                27.7505                65.9151

                     46                     47                     48
                      A                      A                      A
 Frequencies --   3020.1575              3080.9013              3081.8182
 Red. masses --      1.0712                 1.0919                 1.0935
 Frc consts  --      5.7570                 6.1066                 6.1192
 IR Inten    --     62.3737                24.1473                19.2116

                     49                     50                     51
                      A                      A                      A
 Frequencies --   3110.3312              3182.8263              3209.4182
 Red. masses --      1.0924                 1.0849                 1.1042
 Frc consts  --      6.2267                 6.4755                 6.7009
 IR Inten    --     36.0419                 5.5749                21.6235

 - Thermochemistry -
 -------------------
 Temperature   298.150 Kelvin.  Pressure   1.00000 Atm.
 Atom     1 has atomic number  6 and mass  12.00000

 Molecular mass:   126.06808 amu.
 Principal axes and moments of inertia in atomic units:
                           1         2         3
     Eigenvalues --   600.251271094.106391407.54928
           X            0.99986  -0.00736  -0.01498
           Y            0.00731   0.99997  -0.00320
           Z            0.01500   0.00309   0.99988
 This molecule is an asymmetric top.
 Rotational symmetry number  1.
 Warning -- assumption of classical behavior for rotation
           may cause significant error
 Rotational temperatures (Kelvin)      0.14430     0.07916     0.06154
 Rotational constants (GHZ):           3.00664     1.64951     1.28219
 Zero-point vibrational energy     426686.5 (Joules/Mol)
                                  101.98053 (Kcal/Mol)
 Warning -- explicit consideration of   8 degrees of freedom as
           vibrations may cause significant error
 Vibrational temperatures:    204.12   227.95   421.48   478.73   579.57
          (Kelvin)            597.12   647.97   833.76   974.80  1014.82
                             1119.16  1191.99  1235.62  1238.32  1315.25
                             1343.97  1387.24  1394.38  1450.49  1474.19
                             1521.11  1561.37  1580.28  1631.25  1655.96
                             1706.95  1753.33  1804.59  1841.66  1865.84
                             1884.75  1906.97  1935.12  1969.06  1990.23
                             2031.43  2083.16  2117.14  2148.76  2172.20
                             2422.73  4175.97  4257.09  4288.93  4316.10
                             4345.33  4432.72  4434.04  4475.07  4579.37
                             4617.63

 Zero-point correction=                           0.162516 (Hartree/Particle)
 Thermal correction to Energy=                    0.169518
 Thermal correction to Enthalpy=                  0.170462
 Thermal correction to Gibbs Free Energy=         0.131216
 Sum of electronic and zero-point Energies=           -423.037304
 Sum of electronic and thermal Energies=              -423.030302
 Sum of electronic and thermal Enthalpies=            -423.029358
 Sum of electronic and thermal Free Energies=         -423.068604

                     E (Thermal)             CV                S
                      KCal/Mol        Cal/Mol-Kelvin    Cal/Mol-Kelvin
 Total                  106.374             28.357             82.600
 Electronic               0.000              0.000              0.000
 Translational            0.889              2.981             40.409
 Rotational               0.889              2.981             28.315
 Vibrational            104.597             22.396             13.876
 Vibration     1          0.615              1.911              2.779
 Vibration     2          0.621              1.893              2.568
 Vibration     3          0.688              1.687              1.457
 Vibration     4          0.715              1.610              1.247
 Vibration     5          0.768              1.464              0.952
 Vibration     6          0.778              1.438              0.909
 Vibration     7          0.809              1.360              0.795
 Vibration     8          0.936              1.076              0.486

 Optimization completed.
    -- Stationary point found.
 Normal termination of Gaussian 09 at Mon Jan 27 13:48:39 2020.
