 Gaussian 09, Revision D.01,
 Gaussian 09:  ES64L-G09RevD.01 24-Apr-2013

 -----------------------------
 # b3lyp 6-31G(2df,p) opt Freq
 -----------------------------

 -----
 titel
 -----
 Symbolic Z-matrix:
 Charge =  0 Multiplicity = 1

 SCF Done:  E(RB3LYP) =  -423.136252767     A.U. after   14 cycles
 SCF Done:  E(RB3LYP) =  -423.136252608     A.U. after    7 cycles
 SCF Done:  E(RB3LYP) =  -423.136252860     A.U. after    7 cycles
 SCF Done:  E(RB3LYP) =  -423.136252730     A.U. after    7 cycles
 SCF Done:  E(RB3LYP) =  -423.136252902     A.U. after    7 cycles
 Optimization completed.
    -- Stationary point found.
 Normal termination of Gaussian 09 at Mon Jan 27 16:32:15 2020.

 ----------------------------------------------------------------------
 #N Geom=AllCheck Guess=TCheck SCRF=Check GenChk RB3LYP/6-31G(2df,p) Fr
 eq
 ----------------------------------------------------------------------

 Structure from the checkpoint file:  "/scratch/puck/g09_1ba89add-338f-453d-a74e-229b068b4c85/Gau-47082.chk"
 -----
 titel
 -----
 Charge =  0 Multiplicity = 1

                         Standard orientation:
 ---------------------------------------------------------------------
 Center     Atomic      Atomic             Coordinates (Angstroms)
 Number     Number       Type             X           Y           Z
 ---------------------------------------------------------------------
      1          6           0        2.359436   -1.284134   -0.005713
      2          6           0        1.281989   -0.216879   -0.006208
      3          8           0        1.858250    1.097554   -0.084367
      4          6           0        0.168148   -0.256508   -1.082041
      5          6           0       -0.842023    0.261752    0.000150
      6          8           0       -0.961996    1.671390   -0.000300
      7          6           0        0.169678   -0.257076    1.082620
      8          6           0       -2.171841   -0.325444    0.004289
      9          6           0       -3.247996   -0.860098    0.008755
     10          1           0        2.999790   -1.193998    0.880744
     11          1           0        1.919594   -2.285867    0.003653
     12          1           0        2.992790   -1.188569   -0.893062
     13          1           0        2.395589    1.231487    0.705088
     14          1           0        0.304989    0.388085   -1.952463
     15          1           0       -0.058650   -1.276653   -1.396921
     16          1           0       -0.055788    2.008498   -0.050095
     17          1           0        0.295065    0.388247    1.956193
     18          1           0       -0.060876   -1.276130    1.401370
     19          1           0       -4.206876   -1.316333    0.011714
 ---------------------------------------------------------------------

 SCF Done:  E(RB3LYP) =  -423.136252902     A.U. after    1 cycles

 The electronic state is 1-A.
 Alpha  occ. eigenvalues --  -19.15614 -19.12779 -10.25763 -10.24985 -10.18609
 Alpha  occ. eigenvalues --  -10.18588 -10.18477 -10.17552 -10.17101  -1.04059
 Alpha  occ. eigenvalues --   -1.01359  -0.83812  -0.75350  -0.72406  -0.67645
 Alpha  occ. eigenvalues --   -0.64545  -0.57254  -0.52305  -0.50398  -0.49977
 Alpha  occ. eigenvalues --   -0.47789  -0.45197  -0.43008  -0.41428  -0.39819
 Alpha  occ. eigenvalues --   -0.38872  -0.37565  -0.36235  -0.33960  -0.30867
 Alpha  occ. eigenvalues --   -0.27982  -0.27508  -0.26529  -0.24493
 Alpha virt. eigenvalues --    0.04638   0.05065   0.05599   0.10445   0.11540
 Alpha virt. eigenvalues --    0.11813   0.13123   0.14854   0.15701   0.16442
 Alpha virt. eigenvalues --    0.16652   0.17088   0.19242   0.21233   0.22497

 Mulliken charges:
               1
     1  C   -0.466351
     2  C    0.369779
     3  O   -0.471807
     4  C   -0.282380
     5  C    0.201910
     6  O   -0.487664
     7  C   -0.309529
     8  C    0.319988
     9  C   -0.433164
    10  H    0.109905
    11  H    0.121758
    12  H    0.130210
    13  H    0.280989
    14  H    0.117498
    15  H    0.111517
    16  H    0.283833
    17  H    0.100909
    18  H    0.110646
    19  H    0.191952
 Sum of Mulliken charges =   0.00000

 Dipole moment (field-independent basis, Debye):
    X=              2.3946    Y=             -1.6876    Z=              0.9690  Tot=              3.0857
 Quadrupole moment (field-independent basis, Debye-Ang):
   XX=            -49.7034   YY=            -53.8084   ZZ=            -52.4920
   XY=              4.9207   XZ=              3.0092   YZ=              1.6047

  Exact polarizability: 101.264   8.137  69.983   1.260   0.601  63.180
 Approx polarizability: 138.439  19.410 107.425   1.639   0.170  94.164

                      1                      2                      3
                      A                      A                      A
 Frequencies --    105.4689               144.4260               201.6395
 Red. masses --      3.6568                 3.6719                 4.3995
 Frc consts  --      0.0240                 0.0451                 0.1054
 IR Inten    --      0.3656                 1.4150                 3.6444

                      4                      5                      6
                      A                      A                      A
 Frequencies --    226.8160               249.6808               330.0916
 Red. masses --      1.6528                 1.5056                 3.8309
 Frc consts  --      0.0501                 0.0553                 0.2459
 IR Inten    --      0.5200                 0.5170                 2.3790

                      7                      8                      9
                      A                      A                      A
 Frequencies --    343.9346               378.5261               389.3518
 Red. masses --      1.4426                 2.8592                 2.5768
 Frc consts  --      0.1005                 0.2414                 0.2301
 IR Inten    --     30.4391                25.5641                25.8115

                     10                     11                     12
                      A                      A                      A
 Frequencies --    441.9305               448.6839               525.5794
 Red. masses --      1.7583                 2.0496                 3.7521
 Frc consts  --      0.2023                 0.2431                 0.6107
 IR Inten    --      0.2694                 4.1197                 9.4714

                     13                     14                     15
                      A                      A                      A
 Frequencies --    549.2863               558.8972               593.0033
 Red. masses --      1.8553                 1.6756                 5.9594
 Frc consts  --      0.3298                 0.3084                 1.2347
 IR Inten    --     32.1486                72.2712                 3.0180

                     16                     17                     18
                      A                      A                      A
 Frequencies --    619.6446               661.5783               700.1769
 Red. masses --      1.2222                 1.2639                 3.1837
 Frc consts  --      0.2765                 0.3259                 0.9196
 IR Inten    --     42.9961                34.6233                 0.9064

                     19                     20                     21
                      A                      A                      A
 Frequencies --    834.1768               866.5954               899.0586
 Red. masses --      1.9099                 4.5347                 2.1312
 Frc consts  --      0.7830                 2.0065                 1.0150
 IR Inten    --      0.6273                14.5648                 0.4848

                     22                     23                     24
                      A                      A                      A
 Frequencies --    927.9950               934.9649               988.3224
 Red. masses --      2.7268                 2.3291                 1.5035
 Frc consts  --      1.3835                 1.1996                 0.8653
 IR Inten    --     26.8304                17.1605                 7.4684

                     25                     26                     27
                      A                      A                      A
 Frequencies --   1004.3351              1057.8057              1071.8617
 Red. masses --      2.5185                 2.1421                 1.2699
 Frc consts  --      1.4968                 1.4122                 0.8596
 IR Inten    --     10.3248                19.9077                 5.0917

                     28                     29                     30
                      A                      A                      A
 Frequencies --   1130.1489              1203.9871              1211.5351
 Red. masses --      1.6789                 2.1172                 3.6092
 Frc consts  --      1.2634                 1.8082                 3.1212
 IR Inten    --     21.8618                43.1956               173.2215

                     31                     32                     33
                      A                      A                      A
 Frequencies --   1213.4988              1256.4611              1288.7916
 Red. masses --      1.3981                 1.8698                 1.8551
 Frc consts  --      1.2130                 1.7392                 1.8155
 IR Inten    --      0.8610                19.2252                14.2337

                     34                     35                     36
                      A                      A                      A
 Frequencies --   1366.2803              1407.6962              1446.5000
 Red. masses --      1.7413                 1.3165                 1.2921
 Frc consts  --      1.9152                 1.5370                 1.5929
 IR Inten    --     41.9936                19.2584                51.1241

                     37                     38                     39
                      A                      A                      A
 Frequencies --   1450.5152              1476.5160              1488.3823
 Red. masses --      1.2219                 1.1996                 1.0547
 Frc consts  --      1.5147                 1.5409                 1.3766
 IR Inten    --     39.0792                 8.0199                 2.0123

                     40                     41                     42
                      A                      A                      A
 Frequencies --   1491.2491              2241.9218              3024.2551
 Red. masses --      1.0641                 5.9439                 1.0385
 Frc consts  --      1.3942                17.6021                 5.5964
 IR Inten    --      5.6172                 0.8690                21.6558

                     43                     44                     45
                      A                      A                      A
 Frequencies --   3060.3363              3076.5341              3091.4542
 Red. masses --      1.0577                 1.0585                 1.0966
 Frc consts  --      5.8363                 5.9028                 6.1748
 IR Inten    --     24.0495                 6.5089                19.9089

                     46                     47                     48
                      A                      A                      A
 Frequencies --   3114.8942              3126.9141              3142.6780
 Red. masses --      1.1025                 1.1086                 1.1097
 Frc consts  --      6.3023                 6.3867                 6.4574
 IR Inten    --     12.9574                18.1796                12.9626

                     49                     50                     51
                      A                      A                      A
 Frequencies --   3503.5726              3731.0579              3792.8098
 Red. masses --      1.1623                 1.0652                 1.0659
 Frc consts  --      8.4058                 8.7367                 9.0338
 IR Inten    --     66.5447                72.0874                15.7985

 - Thermochemistry -
 -------------------
 Temperature   298.150 Kelvin.  Pressure   1.00000 Atm.
 Atom     1 has atomic number  6 and mass  12.00000

 Molecular mass:   126.06808 amu.
 Principal axes and moments of inertia in atomic units:
                           1         2         3
     Eigenvalues --   563.061191557.780521821.25460
           X            0.99993  -0.01072   0.00451
           Y            0.01068   0.99990   0.00958
           Z           -0.00461  -0.00954   0.99994
 This molecule is an asymmetric top.
 Rotational symmetry number  1.
 Warning -- assumption of classical behavior for rotation
           may cause significant error
 Rotational temperatures (Kelvin)      0.15383     0.05560     0.04756
 Rotational constants (GHZ):           3.20523     1.15853     0.99093
 Zero-point vibrational energy     409073.9 (Joules/Mol)
                                   97.77102 (Kcal/Mol)
 Warning -- explicit consideration of  16 degrees of freedom as
           vibrations may cause significant error
 Vibrational temperatures:    151.75   207.80   290.11   326.34   359.23
          (Kelvin)            474.93   494.84   544.61   560.19   635.84
                              645.56   756.19   790.30   804.13   853.20
                              891.53   951.86  1007.40  1200.19  1246.84
                             1293.54  1335.18  1345.20  1421.97  1445.01
                             1521.94  1542.17  1626.03  1732.27  1743.13
                             1745.95  1807.77  1854.28  1965.77  2025.36
                             2081.19  2086.97  2124.37  2141.45  2145.57
                             3225.62  4351.22  4403.14  4426.44  4447.91
                             4481.63  4498.93  4521.61  5040.85  5368.15
                             5457.00

 Zero-point correction=                           0.155808 (Hartree/Particle)
 Thermal correction to Energy=                    0.165208
 Thermal correction to Enthalpy=                  0.166152
 Thermal correction to Gibbs Free Energy=         0.122511
 Sum of electronic and zero-point Energies=           -422.980445
 Sum of electronic and thermal Energies=              -422.971045
 Sum of electronic and thermal Enthalpies=            -422.970101
 Sum of electronic and thermal Free Energies=         -423.013742

                     E (Thermal)             CV                S
                      KCal/Mol        Cal/Mol-Kelvin    Cal/Mol-Kelvin
 Total                  103.670             37.162             91.850
 Electronic               0.000              0.000              0.000
 Translational            0.889              2.981             40.409
 Rotational               0.889              2.981             28.859
 Vibrational            101.892             31.200             22.582
 Vibration     1          0.605              1.945              3.351
 Vibration     2          0.616              1.909              2.744
 Vibration     3          0.639              1.838              2.118
 Vibration     4          0.650              1.800              1.904
 Vibration     5          0.662              1.763              1.733
 Vibration     6          0.713              1.615              1.260
 Vibration     7          0.723              1.588              1.194
 Vibration     8          0.749              1.516              1.045
 Vibration     9          0.757              1.493              1.003
 Vibration    10          0.802              1.379              0.821
 Vibration    11          0.808              1.364              0.800
 Vibration    12          0.881              1.193              0.597
 Vibration    13          0.905              1.141              0.546
 Vibration    14          0.914              1.120              0.526
 Vibration    15          0.951              1.047              0.462
 Vibration    16          0.980              0.990              0.417

 Optimization completed.
    -- Stationary point found.
 Normal termination of Gaussian 09 at Mon Jan 27 17:13:24 2020.
