 Gaussian 09, Revision D.01,
 Gaussian 09:  ES64L-G09RevD.01 24-Apr-2013

 -----------------------------
 # b3lyp 6-31G(2df,p) opt Freq
 -----------------------------

 -----
 titel
 -----
 Symbolic Z-matrix:
 Charge =  0 Multiplicity = 1

 SCF Done:  E(RB3LYP) =  -423.158179792     A.U. after   14 cycles
 Optimization completed.
    -- Stationary point found.
 Normal termination of Gaussian 09 at Tue Jan 28 12:08:42 2020.

 ----------------------------------------------------------------------
 #N Geom=AllCheck Guess=TCheck SCRF=Check GenChk RB3LYP/6-31G(2df,p) Fr
 eq
 ----------------------------------------------------------------------

 Structure from the checkpoint file:  "/scratch/puck/g09_6b6cd45f-4b4b-46b7-92b9-7f360b5dde1b/Gau-1498.chk"
 -----
 titel
 -----
 Charge =  0 Multiplicity = 1

                         Standard orientation:
 ---------------------------------------------------------------------
 Center     Atomic      Atomic             Coordinates (Angstroms)
 Number     Number       Type             X           Y           Z
 ---------------------------------------------------------------------
      1          6           0       -3.320125   -0.719012    0.479570
      2          6           0       -2.164144   -0.020693   -0.239238
      3          6           0       -0.921359    0.141123    0.661398
      4          6           0        0.179770    0.892525   -0.063406
      5          8           0        0.192016    2.092551   -0.178347
      6          6           0        1.311336    0.041765   -0.710152
      7          8           0        0.782802   -1.115952   -1.350610
      8          6           0        2.299372   -0.288113    0.310176
      9          6           0        3.064041   -0.601017    1.184243
     10          1           0       -3.634549   -0.156991    1.365751
     11          1           0       -4.188517   -0.817799   -0.179063
     12          1           0       -3.035585   -1.724768    0.808215
     13          1           0       -1.880037   -0.584543   -1.133791
     14          1           0       -2.477318    0.973832   -0.576081
     15          1           0       -1.185653    0.723823    1.550030
     16          1           0       -0.565766   -0.842118    0.987127
     17          1           0        1.761556    0.674534   -1.482854
     18          1           0        0.953246   -1.876527   -0.786170
     19          1           0        3.760732   -0.861708    1.942942
 ---------------------------------------------------------------------

 SCF Done:  E(RB3LYP) =  -423.158179792     A.U. after    1 cycles

 The electronic state is 1-A.
 Alpha  occ. eigenvalues --  -19.16154 -19.13626 -10.27322 -10.26840 -10.20290
 Alpha  occ. eigenvalues --  -10.19859 -10.19206 -10.18923 -10.17859  -1.05288
 Alpha  occ. eigenvalues --   -1.03818  -0.80086  -0.78594  -0.72702  -0.69957
 Alpha  occ. eigenvalues --   -0.60371  -0.57585  -0.54802  -0.52149  -0.48813
 Alpha  occ. eigenvalues --   -0.48061  -0.44709  -0.43021  -0.42548  -0.39693
 Alpha  occ. eigenvalues --   -0.38246  -0.36890  -0.35730  -0.33870  -0.33624
 Alpha  occ. eigenvalues --   -0.31735  -0.29692  -0.29156  -0.23859
 Alpha virt. eigenvalues --   -0.03050   0.01968   0.04856   0.07838   0.10293
 Alpha virt. eigenvalues --    0.11223   0.13369   0.14326   0.14815   0.15916
 Alpha virt. eigenvalues --    0.17163   0.17674   0.18913   0.20415   0.22003

 Mulliken charges:
               1
     1  C   -0.382724
     2  C   -0.166621
     3  C   -0.264953
     4  C    0.367035
     5  O   -0.304368
     6  C   -0.094244
     7  O   -0.417634
     8  C    0.269153
     9  C   -0.456444
    10  H    0.117943
    11  H    0.117604
    12  H    0.113439
    13  H    0.120495
    14  H    0.118045
    15  H    0.123212
    16  H    0.092873
    17  H    0.137672
    18  H    0.296846
    19  H    0.212671
 Sum of Mulliken charges =   0.00000

 Dipole moment (field-independent basis, Debye):
    X=              0.2283    Y=             -2.6624    Z=              1.4484  Tot=              3.0394
 Quadrupole moment (field-independent basis, Debye-Ang):
   XX=            -48.1026   YY=            -57.3589   ZZ=            -52.9034
   XY=             -2.3806   XZ=              3.0715   YZ=             -1.8071

  Exact polarizability:  94.417  -2.633  71.424   9.757  -4.519  70.629
 Approx polarizability: 118.030  -7.183 114.846  22.080  -9.615 114.016

                      1                      2                      3
                      A                      A                      A
 Frequencies --     35.2921                58.2745                92.8276
 Red. masses --      5.3166                 3.0166                 1.8289
 Frc consts  --      0.0039                 0.0060                 0.0093
 IR Inten    --      1.4139                 0.6299                 0.5109

                      4                      5                      6
                      A                      A                      A
 Frequencies --    120.1574               139.4627               181.8455
 Red. masses --      4.7437                 1.2538                 3.9592
 Frc consts  --      0.0404                 0.0144                 0.0771
 IR Inten    --     10.6937                90.3827                 7.9113

                      7                      8                      9
                      A                      A                      A
 Frequencies --    215.1708               240.2182               255.3914
 Red. masses --      3.5866                 1.5955                 1.7368
 Frc consts  --      0.0978                 0.0542                 0.0667
 IR Inten    --      4.6232                 0.2709                 0.0586

                     10                     11                     12
                      A                      A                      A
 Frequencies --    330.4577               373.1671               457.1802
 Red. masses --      3.9963                 3.9527                 6.9426
 Frc consts  --      0.2571                 0.3243                 0.8550
 IR Inten    --      0.0198                 0.2310                 7.6360

                     13                     14                     15
                      A                      A                      A
 Frequencies --    539.3390               604.1633               632.7702
 Red. masses --      3.4185                 4.8389                 1.2477
 Frc consts  --      0.5859                 1.0407                 0.2943
 IR Inten    --     25.2770                 5.5511                49.2313

                     16                     17                     18
                      A                      A                      A
 Frequencies --    687.7291               741.9563               755.3040
 Red. masses --      1.2491                 5.4636                 1.1341
 Frc consts  --      0.3481                 1.7721                 0.3812
 IR Inten    --     32.5031                 8.8452                 6.4301

                     19                     20                     21
                      A                      A                      A
 Frequencies --    803.2084               890.0384               904.7758
 Red. masses --      3.8986                 1.3193                 2.0299
 Frc consts  --      1.4819                 0.6157                 0.9790
 IR Inten    --      5.1374                 1.3611                 0.5325

                     22                     23                     24
                      A                      A                      A
 Frequencies --    947.2450              1044.1898              1063.2087
 Red. masses --      3.3106                 2.8734                 3.3792
 Frc consts  --      1.7502                 1.8459                 2.2506
 IR Inten    --     25.1896                 0.7810                87.3759

                     25                     26                     27
                      A                      A                      A
 Frequencies --   1079.4955              1103.2323              1188.7422
 Red. masses --      2.1266                 2.0963                 2.4245
 Frc consts  --      1.4601                 1.5033                 2.0186
 IR Inten    --     25.3848                 7.9640                56.3268

                     28                     29                     30
                      A                      A                      A
 Frequencies --   1249.9211              1264.9051              1283.6064
 Red. masses --      1.2492                 1.3477                 1.3007
 Frc consts  --      1.1499                 1.2704                 1.2627
 IR Inten    --      6.4924                11.1815                 4.1329

                     31                     32                     33
                      A                      A                      A
 Frequencies --   1300.1567              1326.9525              1369.7777
 Red. masses --      1.5099                 1.1208                 1.4248
 Frc consts  --      1.5038                 1.1627                 1.5751
 IR Inten    --     22.2930                10.5158                13.9606

                     34                     35                     36
                      A                      A                      A
 Frequencies --   1387.8864              1414.1049              1476.9621
 Red. masses --      1.2356                 1.2337                 1.1074
 Frc consts  --      1.4023                 1.4536                 1.4233
 IR Inten    --     59.2653                 0.6348                 3.8903

                     37                     38                     39
                      A                      A                      A
 Frequencies --   1495.5498              1498.9231              1509.2329
 Red. masses --      1.0488                 1.0400                 1.0853
 Frc consts  --      1.3821                 1.3767                 1.4565
 IR Inten    --      0.5372                 5.5148                 4.3391

                     40                     41                     42
                      A                      A                      A
 Frequencies --   1820.8854              2227.6147              3030.3805
 Red. masses --     11.5946                 5.9296                 1.0359
 Frc consts  --     22.6501                17.3363                 5.6046
 IR Inten    --    155.3479                 1.5514                24.9520

                     43                     44                     45
                      A                      A                      A
 Frequencies --   3038.5814              3049.0014              3057.4003
 Red. masses --      1.0574                 1.0590                 1.0839
 Frc consts  --      5.7523                 5.8007                 5.9694
 IR Inten    --      0.3205                27.5082                 9.4727

                     46                     47                     48
                      A                      A                      A
 Frequencies --   3074.7457              3092.6917              3104.3542
 Red. masses --      1.1007                 1.1036                 1.1011
 Frc consts  --      6.1312                 6.2193                 6.2522
 IR Inten    --      1.9987                 0.2447                35.8243

                     49                     50                     51
                      A                      A                      A
 Frequencies --   3109.0748              3500.5376              3829.5117
 Red. masses --      1.1045                 1.1619                 1.0668
 Frc consts  --      6.2904                 8.3889                 9.2177
 IR Inten    --     53.7012                71.4861                32.9985

 - Thermochemistry -
 -------------------
 Temperature   298.150 Kelvin.  Pressure   1.00000 Atm.
 Atom     1 has atomic number  6 and mass  12.00000

 Molecular mass:   126.06808 amu.
 Principal axes and moments of inertia in atomic units:
                           1         2         3
     Eigenvalues --   709.805251971.166312134.34296
           X            0.99993   0.01114  -0.00492
           Y           -0.01138   0.99861  -0.05149
           Z            0.00434   0.05155   0.99866
 This molecule is an asymmetric top.
 Rotational symmetry number  1.
 Warning -- assumption of classical behavior for rotation
           may cause significant error
 Rotational temperatures (Kelvin)      0.12202     0.04394     0.04058
 Rotational constants (GHZ):           2.54259     0.91557     0.84557
 Zero-point vibrational energy     406716.0 (Joules/Mol)
                                   97.20745 (Kcal/Mol)
 Warning -- explicit consideration of  14 degrees of freedom as
           vibrations may cause significant error
 Vibrational temperatures:     50.78    83.84   133.56   172.88   200.66
          (Kelvin)            261.63   309.58   345.62   367.45   475.45
                              536.90   657.78   775.99   869.26   910.41
                              989.49  1067.51  1086.71  1155.64  1280.57
                             1301.77  1362.87  1502.35  1529.72  1553.15
                             1587.30  1710.33  1798.36  1819.91  1846.82
                             1870.63  1909.19  1970.80  1996.86  2034.58
                             2125.02  2151.76  2156.61  2171.45  2619.84
                             3205.04  4360.04  4371.84  4386.83  4398.91
                             4423.87  4449.69  4466.47  4473.26  5036.49
                             5509.81

 Zero-point correction=                           0.154910 (Hartree/Particle)
 Thermal correction to Energy=                    0.165887
 Thermal correction to Enthalpy=                  0.166831
 Thermal correction to Gibbs Free Energy=         0.117543
 Sum of electronic and zero-point Energies=           -423.003270
 Sum of electronic and thermal Energies=              -422.992293
 Sum of electronic and thermal Enthalpies=            -422.991349
 Sum of electronic and thermal Free Energies=         -423.040637

                     E (Thermal)             CV                S
                      KCal/Mol        Cal/Mol-Kelvin    Cal/Mol-Kelvin
 Total                  104.095             37.868            103.736
 Electronic               0.000              0.000              0.000
 Translational            0.889              2.981             40.409
 Rotational               0.889              2.981             29.481
 Vibrational            102.318             31.906             33.847
 Vibration     1          0.594              1.982              5.507
 Vibration     2          0.596              1.974              4.515
 Vibration     3          0.602              1.954              3.600
 Vibration     4          0.609              1.932              3.098
 Vibration     5          0.615              1.914              2.811
 Vibration     6          0.630              1.864              2.309
 Vibration     7          0.645              1.818              1.999
 Vibration     8          0.657              1.779              1.801
 Vibration     9          0.666              1.754              1.693
 Vibration    10          0.713              1.615              1.258
 Vibration    11          0.745              1.527              1.067
 Vibration    12          0.815              1.345              0.774
 Vibration    13          0.894              1.163              0.567
 Vibration    14          0.963              1.023              0.443

 Optimization completed.
    -- Stationary point found.
 Normal termination of Gaussian 09 at Tue Jan 28 12:50:54 2020.
