 Gaussian 09, Revision D.01,
 Gaussian 09:  ES64L-G09RevD.01 24-Apr-2013

 -----------------------------
 # b3lyp 6-31G(2df,p) opt Freq
 -----------------------------

 -----
 titel
 -----
 Symbolic Z-matrix:
 Charge =  0 Multiplicity = 1

 SCF Done:  E(RB3LYP) =  -423.197648419     A.U. after   15 cycles
 Optimization completed.
    -- Stationary point found.
 Normal termination of Gaussian 09 at Tue Jan 28 08:08:14 2020.

 ----------------------------------------------------------------------
 #N Geom=AllCheck Guess=TCheck SCRF=Check GenChk RB3LYP/6-31G(2df,p) Fr
 eq
 ----------------------------------------------------------------------

 Structure from the checkpoint file:  "/scratch/puck/g09_d923816a-5a9b-441f-8b9a-b21c1286cb06/Gau-127822.chk"
 -----
 titel
 -----
 Charge =  0 Multiplicity = 1

                         Standard orientation:
 ---------------------------------------------------------------------
 Center     Atomic      Atomic             Coordinates (Angstroms)
 Number     Number       Type             X           Y           Z
 ---------------------------------------------------------------------
      1          6           0        4.226094    0.474988    0.740045
      2          6           0        3.497881    0.140148   -0.574165
      3          6           0        2.096824   -0.217744   -0.383339
      4          6           0        0.941646   -0.506294   -0.206149
      5          6           0       -0.440923   -0.895328    0.003353
      6          8           0       -1.281633    0.276749   -0.104566
      7          6           0       -2.600103    0.045102    0.073236
      8          6           0       -3.387507    1.326153   -0.059678
      9          8           0       -3.059650   -1.044910    0.304706
     10          1           0        3.748401    1.319120    1.244479
     11          1           0        4.209431   -0.379039    1.422486
     12          1           0        5.269361    0.737023    0.540808
     13          1           0        3.558195    0.996520   -1.257976
     14          1           0        4.013594   -0.684855   -1.082215
     15          1           0       -0.768190   -1.635185   -0.735385
     16          1           0       -0.588153   -1.347095    0.990475
     17          1           0       -3.231330    1.760212   -1.051260
     18          1           0       -4.445602    1.118060    0.093742
     19          1           0       -3.038916    2.058371    0.673918
 ---------------------------------------------------------------------

 SCF Done:  E(RB3LYP) =  -423.197648419     A.U. after    1 cycles

 The electronic state is 1-A.
 Alpha  occ. eigenvalues --  -19.18122 -19.12423 -10.30628 -10.25893 -10.21152
 Alpha  occ. eigenvalues --  -10.19402 -10.18540 -10.18122 -10.17482  -1.10013
 Alpha  occ. eigenvalues --   -1.01214  -0.80344  -0.78057  -0.73869  -0.69280
 Alpha  occ. eigenvalues --   -0.63642  -0.57271  -0.51519  -0.49215  -0.48265
 Alpha  occ. eigenvalues --   -0.47107  -0.45888  -0.43718  -0.43382  -0.40636
 Alpha  occ. eigenvalues --   -0.39915  -0.37407  -0.37123  -0.36649  -0.36155
 Alpha  occ. eigenvalues --   -0.30490  -0.27783  -0.25721  -0.25467
 Alpha virt. eigenvalues --    0.01563   0.03395   0.05138   0.10568   0.10943
 Alpha virt. eigenvalues --    0.12328   0.14563   0.14615   0.15766   0.16465
 Alpha virt. eigenvalues --    0.17055   0.18099   0.19035   0.20712   0.21924

 Mulliken charges:
               1
     1  C   -0.365873
     2  C   -0.317117
     3  C    0.156398
     4  C   -0.011075
     5  C   -0.232123
     6  O   -0.236262
     7  C    0.441387
     8  C   -0.476707
     9  O   -0.347921
    10  H    0.130527
    11  H    0.129323
    12  H    0.116142
    13  H    0.134209
    14  H    0.132757
    15  H    0.147391
    16  H    0.147079
    17  H    0.151905
    18  H    0.148344
    19  H    0.151614
 Sum of Mulliken charges =   0.00000

 Dipole moment (field-independent basis, Debye):
    X=              1.7585    Y=              1.4899    Z=             -0.3485  Tot=              2.3310
 Quadrupole moment (field-independent basis, Debye-Ang):
   XX=            -48.6863   YY=            -53.1578   ZZ=            -52.1839
   XY=             -6.3363   XZ=              0.5605   YZ=              0.5519

  Exact polarizability: 122.047   4.585  69.021  -3.472  -1.524  58.922
 Approx polarizability: 155.392  16.634 104.158  -9.996  -5.060  85.739

                      1                      2                      3
                      A                      A                      A
 Frequencies --     29.0510                29.2683                65.7096
 Red. masses --      4.8131                 2.6702                 1.1036
 Frc consts  --      0.0024                 0.0013                 0.0028
 IR Inten    --      1.1247                 0.0189                 0.3250

                      4                      5                      6
                      A                      A                      A
 Frequencies --     76.3363               122.0141               175.4902
 Red. masses --      2.8732                 3.6053                 2.6254
 Frc consts  --      0.0099                 0.0316                 0.0476
 IR Inten    --      0.7249                 0.8844                 6.6259

                      7                      8                      9
                      A                      A                      A
 Frequencies --    198.4757               240.7996               289.7336
 Red. masses --      1.7951                 2.4795                 2.7584
 Frc consts  --      0.0417                 0.0847                 0.1364
 IR Inten    --      4.0158                 6.4759                 3.0790

                     10                     11                     12
                      A                      A                      A
 Frequencies --    328.2625               391.8476               499.5232
 Red. masses --      3.2116                 3.2539                 4.5952
 Frc consts  --      0.2039                 0.2944                 0.6756
 IR Inten    --      1.5639                 3.9089                 2.7708

                     13                     14                     15
                      A                      A                      A
 Frequencies --    534.3811               607.9436               626.4833
 Red. masses --      4.9272                 2.6108                 5.0682
 Frc consts  --      0.8290                 0.5685                 1.1720
 IR Inten    --      1.1508                 4.6037                 8.4007

                     16                     17                     18
                      A                      A                      A
 Frequencies --    756.0401               784.5664               935.4112
 Red. masses --      3.2698                 1.1886                 4.7561
 Frc consts  --      1.1012                 0.4311                 2.4519
 IR Inten    --      4.8663                 2.0774                15.8504

                     19                     20                     21
                      A                      A                      A
 Frequencies --    956.4983               988.4338              1010.7394
 Red. masses --      2.6849                 2.9458                 1.6592
 Frc consts  --      1.4473                 1.6957                 0.9987
 IR Inten    --      4.5975                14.2776                 0.9487

                     22                     23                     24
                      A                      A                      A
 Frequencies --   1046.4497              1065.3609              1081.0322
 Red. masses --      2.6614                 1.8245                 1.8880
 Frc consts  --      1.7171                 1.2201                 1.2999
 IR Inten    --    150.0769                 7.2244                 1.1310

                     25                     26                     27
                      A                      A                      A
 Frequencies --   1103.5288              1179.0675              1250.5068
 Red. masses --      1.4808                 2.7160                 1.0692
 Frc consts  --      1.0625                 2.2246                 0.9851
 IR Inten    --      0.4961                 9.0921                 2.1488

                     28                     29                     30
                      A                      A                      A
 Frequencies --   1264.5955              1286.9803              1352.4437
 Red. masses --      3.6075                 1.1474                 1.5132
 Frc consts  --      3.3990                 1.1197                 1.6307
 IR Inten    --    530.4096                 0.0148                16.2987

                     31                     32                     33
                      A                      A                      A
 Frequencies --   1385.5399              1408.2734              1410.8404
 Red. masses --      1.2890                 1.6248                 1.2124
 Frc consts  --      1.4580                 1.8986                 1.4218
 IR Inten    --     45.6620                21.4353                 0.7082

                     34                     35                     36
                      A                      A                      A
 Frequencies --   1469.4721              1471.4029              1475.8076
 Red. masses --      1.0524                 1.0733                 1.0464
 Frc consts  --      1.3390                 1.3691                 1.3427
 IR Inten    --     11.6544                 2.6405                 6.3701

                     37                     38                     39
                      A                      A                      A
 Frequencies --   1489.4749              1495.3009              1505.3461
 Red. masses --      1.0751                 1.0394                 1.0559
 Frc consts  --      1.4053                 1.3693                 1.4098
 IR Inten    --      5.9529                 4.7299                 1.4887

                     40                     41                     42
                      A                      A                      A
 Frequencies --   1821.9068              2374.6255              3022.3085
 Red. masses --     11.2247                11.8766                 1.0591
 Frc consts  --     21.9521                39.4579                 5.6996
 IR Inten    --    248.6343                15.0156                21.3320

                     43                     44                     45
                      A                      A                      A
 Frequencies --   3041.9245              3045.5793              3049.8104
 Red. masses --      1.0565                 1.0344                 1.1008
 Frc consts  --      5.7597                 5.6532                 6.0324
 IR Inten    --     11.8362                28.0925                 7.9946

                     46                     47                     48
                      A                      A                      A
 Frequencies --   3058.0860              3074.5901              3119.1269
 Red. masses --      1.0361                 1.1051                 1.1021
 Frc consts  --      5.7091                 6.1551                 6.3176
 IR Inten    --      2.4004                10.1123                29.1396

                     49                     50                     51
                      A                      A                      A
 Frequencies --   3123.4371              3125.0626              3169.7089
 Red. masses --      1.0993                 1.1029                 1.1030
 Frc consts  --      6.3190                 6.3462                 6.5292
 IR Inten    --      4.7051                23.6696                 7.6266

 - Thermochemistry -
 -------------------
 Temperature   298.150 Kelvin.  Pressure   1.00000 Atm.
 Atom     1 has atomic number  6 and mass  12.00000

 Molecular mass:   126.06808 amu.
 Principal axes and moments of inertia in atomic units:
                           1         2         3
     Eigenvalues --   347.337533482.498903656.22111
           X            0.99995  -0.00747   0.00598
           Y            0.00741   0.99992   0.00985
           Z           -0.00605  -0.00981   0.99993
 This molecule is an asymmetric top.
 Rotational symmetry number  1.
 Rotational temperatures (Kelvin)      0.24936     0.02487     0.02369
 Rotational constants (GHZ):           5.19593     0.51823     0.49361
 Zero-point vibrational energy     409210.2 (Joules/Mol)
                                   97.80358 (Kcal/Mol)
 Warning -- explicit consideration of  14 degrees of freedom as
           vibrations may cause significant error
 Vibrational temperatures:     41.80    42.11    94.54   109.83   175.55
          (Kelvin)            252.49   285.56   346.46   416.86   472.30
                              563.78   718.70   768.85   874.69   901.37
                             1087.77  1128.81  1345.85  1376.19  1422.13
                             1454.23  1505.61  1532.81  1555.36  1587.73
                             1696.41  1799.20  1819.47  1851.68  1945.86
                             1993.48  2026.19  2029.88  2114.24  2117.02
                             2123.36  2143.02  2151.40  2165.85  2621.31
                             3416.55  4348.42  4376.65  4381.90  4387.99
                             4399.90  4423.64  4487.72  4493.92  4496.26
                             4560.50

 Zero-point correction=                           0.155860 (Hartree/Particle)
 Thermal correction to Energy=                    0.166824
 Thermal correction to Enthalpy=                  0.167768
 Thermal correction to Gibbs Free Energy=         0.116941
 Sum of electronic and zero-point Energies=           -423.041788
 Sum of electronic and thermal Energies=              -423.030824
 Sum of electronic and thermal Enthalpies=            -423.029880
 Sum of electronic and thermal Free Energies=         -423.080707

                     E (Thermal)             CV                S
                      KCal/Mol        Cal/Mol-Kelvin    Cal/Mol-Kelvin
 Total                  104.684             36.413            106.975
 Electronic               0.000              0.000              0.000
 Translational            0.889              2.981             40.409
 Rotational               0.889              2.981             29.871
 Vibrational            102.906             30.452             36.696
 Vibration     1          0.593              1.984              5.893
 Vibration     2          0.593              1.984              5.878
 Vibration     3          0.597              1.971              4.278
 Vibration     4          0.599              1.965              3.983
 Vibration     5          0.610              1.931              3.068
 Vibration     6          0.627              1.873              2.376
 Vibration     7          0.637              1.842              2.147
 Vibration     8          0.658              1.778              1.797
 Vibration     9          0.686              1.693              1.476
 Vibration    10          0.711              1.619              1.269
 Vibration    11          0.759              1.488              0.993
 Vibration    12          0.855              1.251              0.659
 Vibration    13          0.889              1.174              0.578
 Vibration    14          0.967              1.015              0.436

 Optimization completed.
    -- Stationary point found.
 Normal termination of Gaussian 09 at Tue Jan 28 08:36:43 2020.
