 Gaussian 09, Revision D.01,
 Gaussian 09:  ES64L-G09RevD.01 24-Apr-2013

 -----------------------------
 # b3lyp 6-31G(2df,p) opt Freq
 -----------------------------

 -----
 titel
 -----
 Symbolic Z-matrix:
 Charge =  0 Multiplicity = 1

 SCF Done:  E(RB3LYP) =  -423.181656341     A.U. after   14 cycles
 Optimization completed.
    -- Stationary point found.
 Normal termination of Gaussian 09 at Mon Jan 27 15:48:37 2020.

 ----------------------------------------------------------------------
 #N Geom=AllCheck Guess=TCheck SCRF=Check GenChk RB3LYP/6-31G(2df,p) Fr
 eq
 ----------------------------------------------------------------------

 Structure from the checkpoint file:  "/scratch/puck/g09_71db7755-640b-4aa3-886b-5775b7bcd4ec/Gau-82056.chk"
 -----
 titel
 -----
 Charge =  0 Multiplicity = 1

                         Standard orientation:
 ---------------------------------------------------------------------
 Center     Atomic      Atomic             Coordinates (Angstroms)
 Number     Number       Type             X           Y           Z
 ---------------------------------------------------------------------
      1          6           0        1.205267    1.923956   -0.025208
      2          6           0        0.571833    0.555749   -0.300684
      3          6           0       -0.920217    0.605035    0.004951
      4          8           0       -1.509802   -0.653109   -0.392020
      5          6           0       -2.823121   -0.782987   -0.163341
      6          8           0       -3.537399    0.042778    0.334405
      7          6           0        1.256799   -0.573162    0.508427
      8          6           0        2.657278   -0.767849    0.156007
      9          6           0        3.809156   -0.917360   -0.154136
     10          1           0        0.753409    2.702907   -0.647216
     11          1           0        1.076410    2.214621    1.024115
     12          1           0        2.276943    1.896652   -0.235819
     13          1           0        0.687590    0.319349   -1.365299
     14          1           0       -1.111829    0.765836    1.071922
     15          1           0       -1.412465    1.412915   -0.545018
     16          1           0       -3.145550   -1.777484   -0.509049
     17          1           0        1.176267   -0.344397    1.580542
     18          1           0        0.707398   -1.507336    0.349073
     19          1           0        4.827464   -1.060716   -0.418432
 ---------------------------------------------------------------------

 SCF Done:  E(RB3LYP) =  -423.181656341     A.U. after    1 cycles

 The electronic state is 1-A.
 Alpha  occ. eigenvalues --  -19.19437 -19.13719 -10.31163 -10.24670 -10.21096
 Alpha  occ. eigenvalues --  -10.20719 -10.18399 -10.18355 -10.17239  -1.11003
 Alpha  occ. eigenvalues --   -1.02523  -0.83286  -0.76239  -0.71600  -0.69670
 Alpha  occ. eigenvalues --   -0.61273  -0.58298  -0.53281  -0.52491  -0.49998
 Alpha  occ. eigenvalues --   -0.47731  -0.46070  -0.45715  -0.42864  -0.41578
 Alpha  occ. eigenvalues --   -0.39230  -0.37748  -0.36259  -0.35622  -0.34415
 Alpha  occ. eigenvalues --   -0.31117  -0.28381  -0.26648  -0.26492
 Alpha virt. eigenvalues --    0.00515   0.04940   0.05674   0.08695   0.10341
 Alpha virt. eigenvalues --    0.12140   0.12740   0.13487   0.14351   0.15466
 Alpha virt. eigenvalues --    0.16645   0.17300   0.18243   0.19136   0.22707

 Mulliken charges:
               1
     1  C   -0.405464
     2  C   -0.000704
     3  C   -0.070034
     4  O   -0.211966
     5  C    0.182434
     6  O   -0.298788
     7  C   -0.354902
     8  C    0.299232
     9  C   -0.441883
    10  H    0.118530
    11  H    0.117960
    12  H    0.139627
    13  H    0.099892
    14  H    0.123654
    15  H    0.125188
    16  H    0.112070
    17  H    0.125919
    18  H    0.143585
    19  H    0.195649
 Sum of Mulliken charges =   0.00000

 Dipole moment (field-independent basis, Debye):
    X=              1.3601    Y=             -0.0987    Z=             -0.4975  Tot=              1.4516
 Quadrupole moment (field-independent basis, Debye-Ang):
   XX=            -60.4772   YY=            -51.6697   ZZ=            -52.8212
   XY=              3.8117   XZ=              1.7003   YZ=             -0.2486

  Exact polarizability: 108.332  -2.407  70.802  -5.773   2.431  57.827
 Approx polarizability: 148.198  -9.268  99.602 -15.667   6.557  91.563

                      1                      2                      3
                      A                      A                      A
 Frequencies --     31.3451                63.7870               109.8661
 Red. masses --      8.7840                 3.5768                 2.8436
 Frc consts  --      0.0051                 0.0086                 0.0202
 IR Inten    --      2.1150                 0.5300                 0.4473

                      4                      5                      6
                      A                      A                      A
 Frequencies --    143.8769               165.5579               226.0772
 Red. masses --      3.0816                 3.7285                 1.2807
 Frc consts  --      0.0376                 0.0602                 0.0386
 IR Inten    --      0.4349                 1.6982                 1.8062

                      7                      8                      9
                      A                      A                      A
 Frequencies --    239.3348               338.2073               341.1842
 Red. masses --      2.9758                 3.0551                 2.4363
 Frc consts  --      0.1004                 0.2059                 0.1671
 IR Inten    --      3.5023                 3.8536                18.1674

                     10                     11                     12
                      A                      A                      A
 Frequencies --    352.4340               409.3581               433.4813
 Red. masses --      2.6838                 2.6854                 3.0499
 Frc consts  --      0.1964                 0.2651                 0.3377
 IR Inten    --      1.6611                 3.4605                 1.2529

                     13                     14                     15
                      A                      A                      A
 Frequencies --    537.9947               616.9150               640.9768
 Red. masses --      4.6678                 1.2022                 1.2251
 Frc consts  --      0.7960                 0.2696                 0.2966
 IR Inten    --      5.9248                44.1666                41.3598

                     16                     17                     18
                      A                      A                      A
 Frequencies --    781.6369               838.9263               884.2159
 Red. masses --      4.9352                 3.0187                 1.4980
 Frc consts  --      1.7765                 1.2518                 0.6900
 IR Inten    --      3.3027                 1.0268                 1.2018

                     19                     20                     21
                      A                      A                      A
 Frequencies --    917.9382               951.1328               978.7512
 Red. masses --      1.4908                 2.8027                 2.1792
 Frc consts  --      0.7401                 1.4938                 1.2300
 IR Inten    --      7.8777                13.1177                 9.4660

                     22                     23                     24
                      A                      A                      A
 Frequencies --    993.6625              1045.2767              1109.1053
 Red. masses --      2.9209                 1.6588                 2.4058
 Frc consts  --      1.6992                 1.0678                 1.7437
 IR Inten    --      6.2423                 0.2153                 3.5689

                     25                     26                     27
                      A                      A                      A
 Frequencies --   1130.1042              1173.8976              1212.1874
 Red. masses --      1.8587                 2.0408                 7.8450
 Frc consts  --      1.3986                 1.6570                 6.7917
 IR Inten    --      0.5566                17.7145               441.7204

                     28                     29                     30
                      A                      A                      A
 Frequencies --   1236.1742              1272.0504              1314.8201
 Red. masses --      1.1957                 1.2124                 1.2248
 Frc consts  --      1.0766                 1.1559                 1.2475
 IR Inten    --      2.5078                 2.9544                 5.8645

                     31                     32                     33
                      A                      A                      A
 Frequencies --   1342.1244              1377.5570              1404.7904
 Red. masses --      1.3428                 1.3897                 1.4047
 Frc consts  --      1.4252                 1.5537                 1.6332
 IR Inten    --      1.1753                 4.3740                 4.4683

                     34                     35                     36
                      A                      A                      A
 Frequencies --   1406.9396              1416.6908              1473.8517
 Red. masses --      1.2046                 1.2521                 1.0903
 Frc consts  --      1.4049                 1.4806                 1.3954
 IR Inten    --      0.6262                 6.8093                 1.9126

                     37                     38                     39
                      A                      A                      A
 Frequencies --   1497.1082              1502.2357              1506.5301
 Red. masses --      1.0641                 1.0463                 1.0742
 Frc consts  --      1.4052                 1.3911                 1.4364
 IR Inten    --      2.0146                 7.8825                 9.6017

                     40                     41                     42
                      A                      A                      A
 Frequencies --   1823.3132              2237.5659              3012.3160
 Red. masses --      9.4397                 5.9363                 1.0667
 Frc consts  --     18.4898                17.5113                 5.7026
 IR Inten    --    309.4759                 2.8953                11.0880

                     43                     44                     45
                      A                      A                      A
 Frequencies --   3029.8583              3032.5470              3038.4913
 Red. masses --      1.0905                 1.0412                 1.0727
 Frc consts  --      5.8981                 5.6414                 5.8348
 IR Inten    --     66.7895                11.4838                 2.5852

                     46                     47                     48
                      A                      A                      A
 Frequencies --   3048.1404              3071.6846              3091.6854
 Red. masses --      1.0635                 1.0936                 1.1053
 Frc consts  --      5.8221                 6.0796                 6.2250
 IR Inten    --     27.3134                 9.3310                 2.5795

                     49                     50                     51
                      A                      A                      A
 Frequencies --   3101.3839              3125.2981              3506.3700
 Red. masses --      1.1012                 1.1002                 1.1620
 Frc consts  --      6.2404                 6.3316                 8.4171
 IR Inten    --     48.0287                14.2600                69.2366

 - Thermochemistry -
 -------------------
 Temperature   298.150 Kelvin.  Pressure   1.00000 Atm.
 Atom     1 has atomic number  6 and mass  12.00000

 Molecular mass:   126.06808 amu.
 Principal axes and moments of inertia in atomic units:
                           1         2         3
     Eigenvalues --   465.236822516.519712858.28884
           X            0.99996   0.00920   0.00061
           Y           -0.00920   0.99996  -0.00021
           Z           -0.00062   0.00020   1.00000
 This molecule is an asymmetric top.
 Rotational symmetry number  1.
 Warning -- assumption of classical behavior for rotation
           may cause significant error
 Rotational temperatures (Kelvin)      0.18617     0.03442     0.03030
 Rotational constants (GHZ):           3.87919     0.71716     0.63141
 Zero-point vibrational energy     409940.8 (Joules/Mol)
                                   97.97821 (Kcal/Mol)
 Warning -- explicit consideration of  14 degrees of freedom as
           vibrations may cause significant error
 Vibrational temperatures:     45.10    91.78   158.07   207.01   238.20
          (Kelvin)            325.27   344.35   486.60   490.89   507.07
                              588.97   623.68   774.05   887.60   922.22
                             1124.60  1207.03  1272.19  1320.71  1368.47
                             1408.20  1429.66  1503.92  1595.75  1625.97
                             1688.97  1744.07  1778.58  1830.19  1891.73
                             1931.02  1981.99  2021.18  2024.27  2038.30
                             2120.54  2154.00  2161.38  2167.56  2623.34
                             3219.35  4334.05  4359.28  4363.15  4371.71
                             4385.59  4419.46  4448.24  4462.19  4496.60
                             5044.88

 Zero-point correction=                           0.156138 (Hartree/Particle)
 Thermal correction to Energy=                    0.166422
 Thermal correction to Enthalpy=                  0.167367
 Thermal correction to Gibbs Free Energy=         0.119593
 Sum of electronic and zero-point Energies=           -423.025518
 Sum of electronic and thermal Energies=              -423.015234
 Sum of electronic and thermal Enthalpies=            -423.014290
 Sum of electronic and thermal Free Energies=         -423.062064

                     E (Thermal)             CV                S
                      KCal/Mol        Cal/Mol-Kelvin    Cal/Mol-Kelvin
 Total                  104.432             36.087            100.549
 Electronic               0.000              0.000              0.000
 Translational            0.889              2.981             40.409
 Rotational               0.889              2.981             29.594
 Vibrational            102.654             30.126             30.547
 Vibration     1          0.594              1.983              5.742
 Vibration     2          0.597              1.972              4.336
 Vibration     3          0.606              1.941              3.271
 Vibration     4          0.616              1.909              2.752
 Vibration     5          0.624              1.885              2.485
 Vibration     6          0.650              1.801              1.910
 Vibration     7          0.657              1.780              1.808
 Vibration     8          0.719              1.599              1.221
 Vibration     9          0.721              1.593              1.207
 Vibration    10          0.729              1.570              1.155
 Vibration    11          0.774              1.450              0.929
 Vibration    12          0.794              1.397              0.847
 Vibration    13          0.893              1.166              0.570
 Vibration    14          0.977              0.996              0.421

 Optimization completed.
    -- Stationary point found.
 Normal termination of Gaussian 09 at Mon Jan 27 16:21:38 2020.
