 Gaussian 09, Revision D.01,
 Gaussian 09:  ES64L-G09RevD.01 24-Apr-2013

 -----------------------------
 # b3lyp 6-31G(2df,p) opt Freq
 -----------------------------

 -----
 titel
 -----
 Symbolic Z-matrix:
 Charge =  0 Multiplicity = 1

 SCF Done:  E(RB3LYP) =  -423.169228710     A.U. after   14 cycles
 Optimization completed.
    -- Stationary point found.
 Normal termination of Gaussian 09 at Mon Jan 27 22:08:05 2020.

 ----------------------------------------------------------------------
 #N Geom=AllCheck Guess=TCheck SCRF=Check GenChk RB3LYP/6-31G(2df,p) Fr
 eq
 ----------------------------------------------------------------------

 Structure from the checkpoint file:  "/scratch/puck/g09_e93d6e10-bd5a-410e-9cd6-446e8160cda3/Gau-51320.chk"
 -----
 titel
 -----
 Charge =  0 Multiplicity = 1

                         Standard orientation:
 ---------------------------------------------------------------------
 Center     Atomic      Atomic             Coordinates (Angstroms)
 Number     Number       Type             X           Y           Z
 ---------------------------------------------------------------------
      1          6           0       -0.974912    2.003717   -0.010511
      2          6           0       -0.733385    0.601450   -0.550749
      3          6           0       -1.632893   -0.539185   -0.045980
      4          8           0       -2.794666   -0.608768    0.232589
      5          6           0       -0.435730   -1.490133    0.105921
      6          6           0        0.493288   -0.260801   -0.099638
      7          6           0        1.425029    0.194291    1.045648
      8          8           0        2.589824    0.075640    0.205632
      9          6           0        1.792514   -0.336958   -0.920824
     10          1           0       -0.210363    2.704716   -0.360380
     11          1           0       -1.950456    2.369206   -0.343529
     12          1           0       -0.974741    2.017055    1.083676
     13          1           0       -0.771630    0.609444   -1.649689
     14          1           0       -0.364500   -2.029258    1.054852
     15          1           0       -0.380029   -2.217510   -0.711943
     16          1           0        1.284511    1.221632    1.404128
     17          1           0        1.469944   -0.480426    1.910616
     18          1           0        1.862589    0.372891   -1.756608
     19          1           0        2.069951   -1.337009   -1.280088
 ---------------------------------------------------------------------

 SCF Done:  E(RB3LYP) =  -423.169228710     A.U. after    1 cycles

 The electronic state is 1-A.
 Alpha  occ. eigenvalues --  -19.14133 -19.13731 -10.27272 -10.23677 -10.23655
 Alpha  occ. eigenvalues --  -10.21338 -10.20445 -10.19891 -10.19080  -1.05011
 Alpha  occ. eigenvalues --   -1.04348  -0.85887  -0.74769  -0.70035  -0.69889
 Alpha  occ. eigenvalues --   -0.64421  -0.54885  -0.52854  -0.49832  -0.48958
 Alpha  occ. eigenvalues --   -0.47803  -0.44746  -0.43319  -0.43003  -0.41689
 Alpha  occ. eigenvalues --   -0.40255  -0.38873  -0.38150  -0.36695  -0.32959
 Alpha  occ. eigenvalues --   -0.32016  -0.30210  -0.25613  -0.24261
 Alpha virt. eigenvalues --   -0.02563   0.06336   0.07663   0.10645   0.11545
 Alpha virt. eigenvalues --    0.12349   0.12960   0.13201   0.14324   0.16211
 Alpha virt. eigenvalues --    0.16600   0.17839   0.18508   0.20348   0.22116

 Mulliken charges:
               1
     1  C   -0.416146
     2  C   -0.164228
     3  C    0.395665
     4  O   -0.295273
     5  C   -0.425773
     6  C    0.265584
     7  C   -0.125587
     8  O   -0.270822
     9  C   -0.135273
    10  H    0.125926
    11  H    0.139152
    12  H    0.125765
    13  H    0.104890
    14  H    0.133232
    15  H    0.132373
    16  H    0.105197
    17  H    0.102457
    18  H    0.100560
    19  H    0.102300
 Sum of Mulliken charges =   0.00000

 Dipole moment (field-independent basis, Debye):
    X=              0.7890    Y=              0.1627    Z=             -0.8797  Tot=              1.1928
 Quadrupole moment (field-independent basis, Debye-Ang):
   XX=            -70.6562   YY=            -50.5933   ZZ=            -49.6124
   XY=             -3.0766   XZ=              0.4866   YZ=              0.4801

  Exact polarizability:  81.295  -1.602  76.143  -2.039  -0.465  68.527
 Approx polarizability: 118.218  -0.233 105.323  -4.322  -0.959 104.199

                      1                      2                      3
                      A                      A                      A
 Frequencies --     47.6267                52.8006               175.6173
 Red. masses --      4.0799                 4.0347                 2.6967
 Frc consts  --      0.0055                 0.0066                 0.0490
 IR Inten    --      7.0251                 5.4074                 2.0081

                      4                      5                      6
                      A                      A                      A
 Frequencies --    182.6323               221.2591               271.3106
 Red. masses --      1.1564                 2.2275                 2.5558
 Frc consts  --      0.0227                 0.0643                 0.1108
 IR Inten    --      0.8589                 0.7009                 0.9143

                      7                      8                      9
                      A                      A                      A
 Frequencies --    342.8902               392.0885               458.3301
 Red. masses --      2.1767                 3.5873                 5.1418
 Frc consts  --      0.1508                 0.3249                 0.6364
 IR Inten    --      0.3936                 0.3313                 0.4604

                     10                     11                     12
                      A                      A                      A
 Frequencies --    488.8928               563.4674               717.1412
 Red. masses --      2.2811                 2.6128                 3.2036
 Frc consts  --      0.3212                 0.4888                 0.9707
 IR Inten    --      1.1101                 0.5294                 0.8316

                     13                     14                     15
                      A                      A                      A
 Frequencies --    740.1154               830.9216               848.1379
 Red. masses --      2.7478                 1.9148                 2.7668
 Frc consts  --      0.8868                 0.7789                 1.1727
 IR Inten    --      1.2028                 5.4030                 7.6146

                     16                     17                     18
                      A                      A                      A
 Frequencies --    856.9403               948.5397               954.1271
 Red. masses --      3.3771                 1.3879                 1.2847
 Frc consts  --      1.4611                 0.7357                 0.6891
 IR Inten    --     10.2559                 0.6357                 0.0402

                     19                     20                     21
                      A                      A                      A
 Frequencies --    987.6416              1036.1348              1044.1618
 Red. masses --      4.1912                 3.7099                10.7442
 Frc consts  --      2.4087                 2.3466                 6.9018
 IR Inten    --     14.6351                40.4592                84.3979

                     22                     23                     24
                      A                      A                      A
 Frequencies --   1049.3243              1101.3274              1125.0714
 Red. masses --      1.3178                 2.8565                 1.9533
 Frc consts  --      0.8549                 2.0414                 1.4567
 IR Inten    --      7.0151                20.0271                 7.4498

                     25                     26                     27
                      A                      A                      A
 Frequencies --   1150.8350              1158.9325              1170.9655
 Red. masses --      1.3976                 1.1532                 1.9472
 Frc consts  --      1.0906                 0.9126                 1.5730
 IR Inten    --      0.5708                 0.7420                 2.5272

                     28                     29                     30
                      A                      A                      A
 Frequencies --   1178.3702              1219.9735              1252.3473
 Red. masses --      1.6138                 1.9809                 1.8282
 Frc consts  --      1.3202                 1.7371                 1.6894
 IR Inten    --      0.0163                 6.9376                 2.9707

                     31                     32                     33
                      A                      A                      A
 Frequencies --   1271.9234              1310.9725              1331.8921
 Red. masses --      2.7090                 1.2813                 1.8000
 Frc consts  --      2.5821                 1.2974                 1.8813
 IR Inten    --      7.5455                 1.3948                 3.5397

                     34                     35                     36
                      A                      A                      A
 Frequencies --   1384.4154              1407.6668              1437.4401
 Red. masses --      1.5871                 1.2182                 1.1092
 Frc consts  --      1.7922                 1.4222                 1.3504
 IR Inten    --      2.8505                 2.5482                 9.0896

                     37                     38                     39
                      A                      A                      A
 Frequencies --   1491.2488              1494.4095              1507.4823
 Red. masses --      1.0482                 1.0473                 1.0781
 Frc consts  --      1.3734                 1.3780                 1.4435
 IR Inten    --      5.1653                 6.6783                 0.7291

                     40                     41                     42
                      A                      A                      A
 Frequencies --   1532.1803              1891.6524              2993.7793
 Red. masses --      1.1100                12.7060                 1.0531
 Frc consts  --      1.5352                26.7881                 5.5612
 IR Inten    --      0.2701               264.1848               102.4083

                     43                     44                     45
                      A                      A                      A
 Frequencies --   3008.8675              3010.8431              3038.0793
 Red. masses --      1.0716                 1.0668                 1.1053
 Frc consts  --      5.7157                 5.6980                 6.0106
 IR Inten    --     26.6281                 0.8827                28.3945

                     46                     47                     48
                      A                      A                      A
 Frequencies --   3038.3856              3047.0878              3050.5668
 Red. masses --      1.0419                 1.0608                 1.1071
 Frc consts  --      5.6671                 5.8029                 6.0702
 IR Inten    --     20.1325                 8.8318                50.4425

                     49                     50                     51
                      A                      A                      A
 Frequencies --   3104.7376              3107.3519              3116.0417
 Red. masses --      1.1038                 1.1021                 1.1009
 Frc consts  --      6.2686                 6.2699                 6.2981
 IR Inten    --      4.7557                19.6730                14.7417

 - Thermochemistry -
 -------------------
 Temperature   298.150 Kelvin.  Pressure   1.00000 Atm.
 Atom     1 has atomic number  6 and mass  12.00000

 Molecular mass:   126.06808 amu.
 Principal axes and moments of inertia in atomic units:
                           1         2         3
     Eigenvalues --   593.849891473.824661746.39759
           X            0.99958  -0.02895  -0.00165
           Y            0.02897   0.99954   0.00880
           Z            0.00139  -0.00884   0.99996
 This molecule is an asymmetric top.
 Rotational symmetry number  1.
 Warning -- assumption of classical behavior for rotation
           may cause significant error
 Rotational temperatures (Kelvin)      0.14585     0.05877     0.04960
 Rotational constants (GHZ):           3.03905     1.22453     1.03341
 Zero-point vibrational energy     413578.6 (Joules/Mol)
                                   98.84767 (Kcal/Mol)
 Warning -- explicit consideration of  11 degrees of freedom as
           vibrations may cause significant error
 Vibrational temperatures:     68.52    75.97   252.67   262.77   318.34
          (Kelvin)            390.35   493.34   564.13   659.43   703.41
                              810.70  1031.80  1064.86  1195.51  1220.28
                             1232.94  1364.74  1372.77  1420.99  1490.76
                             1502.31  1509.74  1584.56  1618.72  1655.79
                             1667.44  1684.76  1695.41  1755.27  1801.85
                             1830.01  1886.19  1916.29  1991.86  2025.32
                             2068.15  2145.57  2150.12  2168.93  2204.46
                             2721.66  4307.38  4329.08  4331.93  4371.11
                             4371.55  4384.07  4389.08  4467.02  4470.78
                             4483.28

 Zero-point correction=                           0.157524 (Hartree/Particle)
 Thermal correction to Energy=                    0.166408
 Thermal correction to Enthalpy=                  0.167352
 Thermal correction to Gibbs Free Energy=         0.122966
 Sum of electronic and zero-point Energies=           -423.011705
 Sum of electronic and thermal Energies=              -423.002821
 Sum of electronic and thermal Enthalpies=            -423.001877
 Sum of electronic and thermal Free Energies=         -423.046262

                     E (Thermal)             CV                S
                      KCal/Mol        Cal/Mol-Kelvin    Cal/Mol-Kelvin
 Total                  104.422             32.414             93.417
 Electronic               0.000              0.000              0.000
 Translational            0.889              2.981             40.409
 Rotational               0.889              2.981             28.815
 Vibrational            102.645             26.453             24.194
 Vibration     1          0.595              1.978              4.914
 Vibration     2          0.596              1.976              4.710
 Vibration     3          0.628              1.872              2.375
 Vibration     4          0.630              1.863              2.301
 Vibration     5          0.648              1.809              1.949
 Vibration     6          0.675              1.726              1.588
 Vibration     7          0.722              1.590              1.199
 Vibration     8          0.760              1.487              0.992
 Vibration     9          0.816              1.342              0.771
 Vibration    10          0.845              1.275              0.686
 Vibration    11          0.919              1.110              0.517

 Optimization completed.
    -- Stationary point found.
 Normal termination of Gaussian 09 at Mon Jan 27 23:49:41 2020.
