 Gaussian 09, Revision D.01,
 Gaussian 09:  ES64L-G09RevD.01 24-Apr-2013

 -----------------------------
 # b3lyp 6-31G(2df,p) opt Freq
 -----------------------------

 -----
 titel
 -----
 Symbolic Z-matrix:
 Charge =  0 Multiplicity = 1

 SCF Done:  E(RB3LYP) =  -423.195318345     A.U. after   14 cycles
 Optimization completed.
    -- Stationary point found.
 Normal termination of Gaussian 09 at Tue Jan 28 03:58:24 2020.

 ----------------------------------------------------------------------
 #N Geom=AllCheck Guess=TCheck SCRF=Check GenChk RB3LYP/6-31G(2df,p) Fr
 eq
 ----------------------------------------------------------------------

 Structure from the checkpoint file:  "/scratch/puck/g09_4d6c9942-9be7-41e1-8751-ff8c49061326/Gau-95031.chk"
 -----
 titel
 -----
 Charge =  0 Multiplicity = 1

                         Standard orientation:
 ---------------------------------------------------------------------
 Center     Atomic      Atomic             Coordinates (Angstroms)
 Number     Number       Type             X           Y           Z
 ---------------------------------------------------------------------
      1          8           0        2.959317    0.130708   -0.534074
      2          6           0        1.847773    0.058495    0.343848
      3          6           0        0.955060   -1.206705    0.140936
      4          6           0       -0.452877   -0.724476    0.502079
      5          8           0       -1.509825   -1.154032   -0.352613
      6          6           0       -2.511529   -0.136278   -0.287938
      7          6           0       -1.786524    1.228300   -0.031777
      8          6           0       -0.393965    0.761704    0.266385
      9          6           0        0.857243    1.202005    0.177621
     10          1           0        2.612559    0.175197   -1.432569
     11          1           0        2.302369    0.057043    1.342750
     12          1           0        0.963378   -1.469174   -0.922790
     13          1           0        1.299178   -2.072601    0.710359
     14          1           0       -0.705429   -0.965984    1.550286
     15          1           0       -3.065349   -0.157019   -1.229785
     16          1           0       -3.216879   -0.348952    0.529236
     17          1           0       -1.820559    1.888976   -0.902351
     18          1           0       -2.246566    1.766327    0.804031
     19          1           0        1.190271    2.214512   -0.022600
 ---------------------------------------------------------------------

 SCF Done:  E(RB3LYP) =  -423.195318345     A.U. after    1 cycles

 The electronic state is 1-A.
 Alpha  occ. eigenvalues --  -19.13688 -19.13333 -10.23469 -10.23186 -10.22825
 Alpha  occ. eigenvalues --  -10.19618 -10.18886 -10.18088 -10.17934  -1.03474
 Alpha  occ. eigenvalues --   -1.01589  -0.83611  -0.77282  -0.69766  -0.69211
 Alpha  occ. eigenvalues --   -0.60915  -0.58592  -0.53903  -0.49992  -0.48397
 Alpha  occ. eigenvalues --   -0.47884  -0.46190  -0.43467  -0.41481  -0.39282
 Alpha  occ. eigenvalues --   -0.38069  -0.37550  -0.36399  -0.34010  -0.32204
 Alpha  occ. eigenvalues --   -0.31212  -0.26738  -0.25341  -0.24638
 Alpha virt. eigenvalues --    0.00716   0.09157   0.09365   0.11434   0.11639
 Alpha virt. eigenvalues --    0.12778   0.13812   0.14934   0.16168   0.16347
 Alpha virt. eigenvalues --    0.17967   0.19010   0.20975   0.21919   0.23685

 Mulliken charges:
               1
     1  O   -0.431307
     2  C    0.122719
     3  C   -0.291358
     4  C    0.066873
     5  O   -0.270419
     6  C   -0.069064
     7  C   -0.379008
     8  C    0.358892
     9  C   -0.308180
    10  H    0.274031
    11  H    0.095854
    12  H    0.108542
    13  H    0.102921
    14  H    0.069142
    15  H    0.112683
    16  H    0.094941
    17  H    0.124052
    18  H    0.120138
    19  H    0.098549
 Sum of Mulliken charges =   0.00000

 Dipole moment (field-independent basis, Debye):
    X=             -1.5814    Y=              1.2738    Z=              0.0106  Tot=              2.0306
 Quadrupole moment (field-independent basis, Debye-Ang):
   XX=            -57.7381   YY=            -54.1305   ZZ=            -49.8015
   XY=             -3.1582   XZ=             -1.1995   YZ=             -1.8590

  Exact polarizability:  99.426  -0.396  71.378  -0.102  -2.919  62.274
 Approx polarizability: 137.692   4.100 103.781  -1.819  -3.168  97.877

                      1                      2                      3
                      A                      A                      A
 Frequencies --     70.2452               128.0801               173.2686
 Red. masses --      2.5248                 2.5475                 3.1057
 Frc consts  --      0.0073                 0.0246                 0.0549
 IR Inten    --      0.4058                 2.5532                 3.6693

                      4                      5                      6
                      A                      A                      A
 Frequencies --    303.3999               332.6356               365.3987
 Red. masses --      2.4125                 2.9075                 1.3366
 Frc consts  --      0.1308                 0.1895                 0.1051
 IR Inten    --      9.9460                11.5682                56.0071

                      7                      8                      9
                      A                      A                      A
 Frequencies --    440.5843               470.5575               572.4235
 Red. masses --      3.6844                 3.3981                 2.5073
 Frc consts  --      0.4214                 0.4433                 0.4841
 IR Inten    --     17.0072                 6.7125                 6.4244

                     10                     11                     12
                      A                      A                      A
 Frequencies --    618.4996               689.0626               713.0209
 Red. masses --      3.4266                 4.0139                 4.0937
 Frc consts  --      0.7723                 1.1229                 1.2262
 IR Inten    --      2.2405                 5.2569                 2.0916

                     13                     14                     15
                      A                      A                      A
 Frequencies --    805.5984               846.8022               857.4607
 Red. masses --      1.5471                 2.8176                 2.0070
 Frc consts  --      0.5916                 1.1904                 0.8694
 IR Inten    --     10.4208                 1.5493                 7.6174

                     16                     17                     18
                      A                      A                      A
 Frequencies --    878.9824               929.8209               956.9104
 Red. masses --      1.6395                 2.8276                 2.6493
 Frc consts  --      0.7463                 1.4404                 1.4293
 IR Inten    --      8.9220                 4.7455                 7.2990

                     19                     20                     21
                      A                      A                      A
 Frequencies --    995.6509              1027.3736              1047.6995
 Red. masses --      2.4519                 2.8966                 2.4454
 Frc consts  --      1.4321                 1.8014                 1.5815
 IR Inten    --     22.4655                24.3051                63.1057

                     22                     23                     24
                      A                      A                      A
 Frequencies --   1069.5411              1077.4464              1099.5177
 Red. masses --      2.4140                 2.6305                 3.0210
 Frc consts  --      1.6270                 1.7992                 2.1518
 IR Inten    --     62.9827                52.5654                56.5006

                     25                     26                     27
                      A                      A                      A
 Frequencies --   1152.8818              1190.1556              1207.9020
 Red. masses --      1.6407                 1.7266                 1.2775
 Frc consts  --      1.2848                 1.4409                 1.0982
 IR Inten    --     17.5451                 4.2806                 1.1495

                     28                     29                     30
                      A                      A                      A
 Frequencies --   1238.8162              1242.9984              1253.7506
 Red. masses --      1.6031                 1.3471                 1.1700
 Frc consts  --      1.4495                 1.2263                 1.0836
 IR Inten    --      2.6224                12.1303                 3.1539

                     31                     32                     33
                      A                      A                      A
 Frequencies --   1281.8000              1292.6456              1313.5824
 Red. masses --      1.3858                 1.5177                 1.3705
 Frc consts  --      1.3415                 1.4942                 1.3932
 IR Inten    --      2.5007                 3.1787                 7.0268

                     34                     35                     36
                      A                      A                      A
 Frequencies --   1348.5316              1363.5112              1390.5544
 Red. masses --      1.8623                 1.3259                 1.3334
 Frc consts  --      1.9954                 1.4523                 1.5191
 IR Inten    --     18.1324                17.2540                18.8637

                     37                     38                     39
                      A                      A                      A
 Frequencies --   1432.8690              1476.8845              1482.2277
 Red. masses --      1.2153                 1.0873                 1.0958
 Frc consts  --      1.4701                 1.3973                 1.4184
 IR Inten    --     80.0408                 2.9770                 2.8935

                     40                     41                     42
                      A                      A                      A
 Frequencies --   1517.4332              1739.5293              2934.8774
 Red. masses --      1.0943                 8.8070                 1.0810
 Frc consts  --      1.4846                15.7015                 5.4860
 IR Inten    --      0.4039                 6.5728                53.2854

                     43                     44                     45
                      A                      A                      A
 Frequencies --   2989.9767              3026.8213              3047.8471
 Red. masses --      1.0716                 1.0839                 1.0626
 Frc consts  --      5.6444                 5.8507                 5.8160
 IR Inten    --     78.3820                33.0287                26.9970

                     46                     47                     48
                      A                      A                      A
 Frequencies --   3053.8451              3084.4737              3101.0102
 Red. masses --      1.0623                 1.0961                 1.0986
 Frc consts  --      5.8371                 6.1443                 6.2244
 IR Inten    --     17.6225                 9.3351                38.3743

                     49                     50                     51
                      A                      A                      A
 Frequencies --   3116.5795              3193.6545              3791.6575
 Red. masses --      1.1026                 1.0952                 1.0658
 Frc consts  --      6.3098                 6.5812                 9.0279
 IR Inten    --     32.5492                 9.4415                10.6967

 - Thermochemistry -
 -------------------
 Temperature   298.150 Kelvin.  Pressure   1.00000 Atm.
 Atom     1 has atomic number  8 and mass  15.99491

 Molecular mass:   126.06808 amu.
 Principal axes and moments of inertia in atomic units:
                           1         2         3
     Eigenvalues --   470.014311518.195901814.16086
           X            0.99979  -0.02032   0.00080
           Y            0.02034   0.99947  -0.02528
           Z           -0.00029   0.02529   0.99968
 This molecule is an asymmetric top.
 Rotational symmetry number  1.
 Warning -- assumption of classical behavior for rotation
           may cause significant error
 Rotational temperatures (Kelvin)      0.18428     0.05705     0.04774
 Rotational constants (GHZ):           3.83976     1.18874     0.99481
 Zero-point vibrational energy     423100.0 (Joules/Mol)
                                  101.12333 (Kcal/Mol)
 Warning -- explicit consideration of  10 degrees of freedom as
           vibrations may cause significant error
 Vibrational temperatures:    101.07   184.28   249.29   436.52   478.59
          (Kelvin)            525.73   633.90   677.03   823.59   889.88
                              991.41  1025.88  1159.07  1218.36  1233.69
                             1264.66  1337.80  1376.78  1432.52  1478.16
                             1507.40  1538.83  1550.20  1581.96  1658.74
                             1712.37  1737.90  1782.38  1788.40  1803.87
                             1844.22  1859.83  1889.95  1940.23  1961.79
                             2000.70  2061.58  2124.90  2132.59  2183.25
                             2502.79  4222.63  4301.90  4354.92  4385.17
                             4393.80  4437.86  4461.66  4484.06  4594.95
                             5455.34

 Zero-point correction=                           0.161150 (Hartree/Particle)
 Thermal correction to Energy=                    0.168990
 Thermal correction to Enthalpy=                  0.169934
 Thermal correction to Gibbs Free Energy=         0.128485
 Sum of electronic and zero-point Energies=           -423.034168
 Sum of electronic and thermal Energies=              -423.026329
 Sum of electronic and thermal Enthalpies=            -423.025384
 Sum of electronic and thermal Free Energies=         -423.066833

                     E (Thermal)             CV                S
                      KCal/Mol        Cal/Mol-Kelvin    Cal/Mol-Kelvin
 Total                  106.043             30.473             87.237
 Electronic               0.000              0.000              0.000
 Translational            0.889              2.981             40.409
 Rotational               0.889              2.981             28.650
 Vibrational            104.265             24.511             18.178
 Vibration     1          0.598              1.968              4.146
 Vibration     2          0.611              1.925              2.975
 Vibration     3          0.627              1.875              2.400
 Vibration     4          0.695              1.667              1.398
 Vibration     5          0.715              1.610              1.247
 Vibration     6          0.739              1.543              1.099
 Vibration     7          0.800              1.382              0.825
 Vibration     8          0.828              1.315              0.736
 Vibration     9          0.929              1.091              0.500
 Vibration    10          0.978              0.993              0.419

 Optimization completed.
    -- Stationary point found.
 Normal termination of Gaussian 09 at Tue Jan 28 04:44:39 2020.
