 Gaussian 09, Revision D.01,
 Gaussian 09:  ES64L-G09RevD.01 24-Apr-2013

 -----------------------------
 # b3lyp 6-31G(2df,p) opt Freq
 -----------------------------

 -----
 titel
 -----
 Symbolic Z-matrix:
 Charge =  0 Multiplicity = 1

 SCF Done:  E(RB3LYP) =  -423.193555703     A.U. after   14 cycles
 Optimization completed.
    -- Stationary point found.
 Normal termination of Gaussian 09 at Tue Jan 28 04:02:23 2020.

 ----------------------------------------------------------------------
 #N Geom=AllCheck Guess=TCheck SCRF=Check GenChk RB3LYP/6-31G(2df,p) Fr
 eq
 ----------------------------------------------------------------------

 Structure from the checkpoint file:  "/scratch/puck/g09_26bcb5b1-27b2-47d8-8acf-6a94367d5954/Gau-93617.chk"
 -----
 titel
 -----
 Charge =  0 Multiplicity = 1

                         Standard orientation:
 ---------------------------------------------------------------------
 Center     Atomic      Atomic             Coordinates (Angstroms)
 Number     Number       Type             X           Y           Z
 ---------------------------------------------------------------------
      1          6           0       -1.035915   -1.370663   -1.441567
      2          6           0       -0.730118   -1.026303    0.006265
      3          6           0       -1.772062   -0.274613    0.871467
      4          6           0       -0.628132    0.552497    1.507140
      5          6           0        0.313753    0.147933    0.345490
      6          6           0        0.380940    1.160831   -0.777344
      7          8           0       -0.380949    2.089670   -0.888660
      8          6           0        1.677627   -0.409196    0.666736
      9          8           0        2.557061   -0.571197   -0.142684
     10          1           0       -1.400473   -0.499569   -1.994481
     11          1           0       -0.151829   -1.760879   -1.956407
     12          1           0       -1.813847   -2.140854   -1.483169
     13          1           0       -0.388065   -1.924653    0.533311
     14          1           0       -2.419746    0.354134    0.255551
     15          1           0       -2.391518   -0.883044    1.533888
     16          1           0       -0.795883    1.624357    1.614225
     17          1           0       -0.283994    0.137724    2.459740
     18          1           0        1.189396    0.977453   -1.511662
     19          1           0        1.810504   -0.715355    1.730639
 ---------------------------------------------------------------------

 SCF Done:  E(RB3LYP) =  -423.193555703     A.U. after    1 cycles

 The electronic state is 1-A.
 Alpha  occ. eigenvalues --  -19.15178 -19.14709 -10.28211 -10.27521 -10.22114
 Alpha  occ. eigenvalues --  -10.21329 -10.19738 -10.19388 -10.18943  -1.05993
 Alpha  occ. eigenvalues --   -1.05233  -0.87233  -0.74847  -0.72729  -0.63812
 Alpha  occ. eigenvalues --   -0.63243  -0.59102  -0.53754  -0.50431  -0.48277
 Alpha  occ. eigenvalues --   -0.46326  -0.44822  -0.44130  -0.42770  -0.42492
 Alpha  occ. eigenvalues --   -0.40146  -0.38609  -0.37825  -0.35457  -0.34677
 Alpha  occ. eigenvalues --   -0.33394  -0.31333  -0.27193  -0.24666
 Alpha virt. eigenvalues --   -0.04317  -0.02572   0.08204   0.10175   0.10898
 Alpha virt. eigenvalues --    0.11465   0.12650   0.14271   0.14862   0.16202
 Alpha virt. eigenvalues --    0.16682   0.18347   0.18598   0.20900   0.22312

 Mulliken charges:
               1
     1  C   -0.425209
     2  C    0.012835
     3  C   -0.231743
     4  C   -0.279202
     5  C    0.109029
     6  C    0.105690
     7  O   -0.262623
     8  C    0.086007
     9  O   -0.256586
    10  H    0.136427
    11  H    0.133817
    12  H    0.125338
    13  H    0.089509
    14  H    0.126370
    15  H    0.103103
    16  H    0.128696
    17  H    0.103070
    18  H    0.113341
    19  H    0.082130
 Sum of Mulliken charges =   0.00000

 Dipole moment (field-independent basis, Debye):
    X=             -1.3873    Y=             -1.8710    Z=              1.5754  Tot=              2.8120
 Quadrupole moment (field-independent basis, Debye-Ang):
   XX=            -59.1924   YY=            -57.2510   ZZ=            -51.3363
   XY=              4.2793   XZ=              1.3335   YZ=              1.6104

  Exact polarizability:  81.617  -1.864  71.991  -2.495  -1.244  76.029
 Approx polarizability: 122.817  -9.078 111.515  -6.959  -4.802 110.338

                      1                      2                      3
                      A                      A                      A
 Frequencies --     43.2897                88.6724                99.2940
 Red. masses --      3.8077                 5.1742                 2.4968
 Frc consts  --      0.0042                 0.0240                 0.0145
 IR Inten    --      5.8325                 9.0944                 0.2255

                      4                      5                      6
                      A                      A                      A
 Frequencies --    186.6926               216.2745               231.1277
 Red. masses --      2.1640                 3.8805                 2.3203
 Frc consts  --      0.0444                 0.1069                 0.0730
 IR Inten    --      1.3792                 4.6287                 6.9172

                      7                      8                      9
                      A                      A                      A
 Frequencies --    267.5654               290.9148               371.6353
 Red. masses --      1.2108                 2.5977                 2.2244
 Frc consts  --      0.0511                 0.1295                 0.1810
 IR Inten    --      0.2884                 2.3386                 1.8395

                     10                     11                     12
                      A                      A                      A
 Frequencies --    435.6256               462.1178               572.9498
 Red. masses --      3.7961                 3.3503                 3.2154
 Frc consts  --      0.4244                 0.4215                 0.6219
 IR Inten    --      1.0786                 5.2707                 2.5908

                     13                     14                     15
                      A                      A                      A
 Frequencies --    688.9306               729.3465               769.9232
 Red. masses --      3.6989                 3.0788                 1.5751
 Frc consts  --      1.0344                 0.9649                 0.5501
 IR Inten    --     15.4679                 3.6888                15.8985

                     16                     17                     18
                      A                      A                      A
 Frequencies --    837.9455               896.7999               921.1116
 Red. masses --      3.1077                 2.0829                 1.4192
 Frc consts  --      1.2856                 0.9870                 0.7094
 IR Inten    --     22.4982                 0.8406                20.3852

                     19                     20                     21
                      A                      A                      A
 Frequencies --    963.7157               994.5019              1002.7979
 Red. masses --      2.3107                 1.6370                 1.5923
 Frc consts  --      1.2644                 0.9539                 0.9434
 IR Inten    --      7.0951                21.8360                11.0318

                     22                     23                     24
                      A                      A                      A
 Frequencies --   1062.9578              1086.1820              1127.8837
 Red. masses --      1.4876                 2.3733                 2.3299
 Frc consts  --      0.9903                 1.6497                 1.7463
 IR Inten    --      9.5239                 7.7890                 1.3924

                     25                     26                     27
                      A                      A                      A
 Frequencies --   1178.3605              1181.0821              1215.3309
 Red. masses --      2.4322                 2.5925                 1.8742
 Frc consts  --      1.9898                 2.1308                 1.6310
 IR Inten    --     23.1735                11.5610                14.1861

                     28                     29                     30
                      A                      A                      A
 Frequencies --   1245.0802              1274.4073              1282.0412
 Red. masses --      1.5458                 1.3281                 1.4946
 Frc consts  --      1.4119                 1.2708                 1.4474
 IR Inten    --     11.1032                 1.3160                 2.6088

                     31                     32                     33
                      A                      A                      A
 Frequencies --   1307.6533              1365.6448              1407.8007
 Red. masses --      1.4994                 1.3969                 1.2386
 Frc consts  --      1.5106                 1.5349                 1.4464
 IR Inten    --     15.1443                 9.7721                 4.5738

                     34                     35                     36
                      A                      A                      A
 Frequencies --   1411.5410              1421.2634              1468.6967
 Red. masses --      1.2512                 1.2202                 1.0946
 Frc consts  --      1.4688                 1.4522                 1.3911
 IR Inten    --      3.4371                 2.0837                 4.4992

                     37                     38                     39
                      A                      A                      A
 Frequencies --   1491.3642              1496.3325              1503.0921
 Red. masses --      1.0921                 1.0659                 1.0533
 Frc consts  --      1.4312                 1.4061                 1.4020
 IR Inten    --      0.9669                10.1938                 1.6830

                     40                     41                     42
                      A                      A                      A
 Frequencies --   1800.7496              1818.1492              2857.7987
 Red. masses --     10.6702                10.3501                 1.0831
 Frc consts  --     20.3858                20.1582                 5.2118
 IR Inten    --    208.4856               101.7626               101.0443

                     43                     44                     45
                      A                      A                      A
 Frequencies --   2948.6009              3031.5588              3033.8756
 Red. masses --      1.0853                 1.0697                 1.0489
 Frc consts  --      5.5596                 5.7925                 5.6883
 IR Inten    --     49.0128                14.9005                15.5301

                     46                     47                     48
                      A                      A                      A
 Frequencies --   3056.9444              3067.2607              3099.8354
 Red. masses --      1.0639                 1.0582                 1.1009
 Frc consts  --      5.8577                 5.8660                 6.2327
 IR Inten    --     26.2695                30.4482                15.3744

                     49                     50                     51
                      A                      A                      A
 Frequencies --   3111.8447              3120.2936              3136.7383
 Red. masses --      1.1024                 1.1061                 1.1036
 Frc consts  --      6.2895                 6.3450                 6.3976
 IR Inten    --     14.8671                18.6307                16.5998

 - Thermochemistry -
 -------------------
 Temperature   298.150 Kelvin.  Pressure   1.00000 Atm.
 Atom     1 has atomic number  6 and mass  12.00000

 Molecular mass:   126.06808 amu.
 Principal axes and moments of inertia in atomic units:
                           1         2         3
     Eigenvalues --   944.906781222.002911350.80761
           X            0.99746   0.07014   0.01258
           Y           -0.07124   0.98552   0.15387
           Z           -0.00161  -0.15438   0.98801
 This molecule is an asymmetric top.
 Rotational symmetry number  1.
 Warning -- assumption of classical behavior for rotation
           may cause significant error
 Rotational temperatures (Kelvin)      0.09166     0.07088     0.06412
 Rotational constants (GHZ):           1.90997     1.47687     1.33605
 Zero-point vibrational energy     410807.2 (Joules/Mol)
                                   98.18527 (Kcal/Mol)
 Warning -- explicit consideration of  12 degrees of freedom as
           vibrations may cause significant error
 Vibrational temperatures:     62.28   127.58   142.86   268.61   311.17
          (Kelvin)            332.54   384.97   418.56   534.70   626.77
                              664.88   824.35   991.22  1049.37  1107.75
                             1205.62  1290.29  1325.27  1386.57  1430.86
                             1442.80  1529.36  1562.77  1622.77  1695.40
                             1699.31  1748.59  1791.39  1833.59  1844.57
                             1881.42  1964.86  2025.51  2030.89  2044.88
                             2113.12  2145.74  2152.89  2162.61  2590.87
                             2615.91  4111.73  4242.37  4361.73  4365.06
                             4398.26  4413.10  4459.97  4477.24  4489.40
                             4513.06

 Zero-point correction=                           0.156468 (Hartree/Particle)
 Thermal correction to Energy=                    0.166038
 Thermal correction to Enthalpy=                  0.166982
 Thermal correction to Gibbs Free Energy=         0.121361
 Sum of electronic and zero-point Energies=           -423.037088
 Sum of electronic and thermal Energies=              -423.027518
 Sum of electronic and thermal Enthalpies=            -423.026574
 Sum of electronic and thermal Free Energies=         -423.072195

                     E (Thermal)             CV                S
                      KCal/Mol        Cal/Mol-Kelvin    Cal/Mol-Kelvin
 Total                  104.190             34.073             96.018
 Electronic               0.000              0.000              0.000
 Translational            0.889              2.981             40.409
 Rotational               0.889              2.981             28.835
 Vibrational            102.413             28.111             26.774
 Vibration     1          0.595              1.980              5.103
 Vibration     2          0.601              1.957              3.689
 Vibration     3          0.604              1.950              3.468
 Vibration     4          0.632              1.858              2.260
 Vibration     5          0.645              1.816              1.990
 Vibration     6          0.653              1.793              1.870
 Vibration     7          0.673              1.733              1.612
 Vibration     8          0.687              1.691              1.469
 Vibration     9          0.743              1.530              1.073
 Vibration    10          0.796              1.393              0.840
 Vibration    11          0.820              1.334              0.760
 Vibration    12          0.929              1.090              0.499

 Optimization completed.
    -- Stationary point found.
 Normal termination of Gaussian 09 at Tue Jan 28 04:46:07 2020.
