 Gaussian 09, Revision D.01,
 Gaussian 09:  ES64L-G09RevD.01 24-Apr-2013

 -----------------------------
 # b3lyp 6-31G(2df,p) opt Freq
 -----------------------------

 -----
 titel
 -----
 Symbolic Z-matrix:
 Charge =  0 Multiplicity = 1

 SCF Done:  E(RB3LYP) =  -423.166453080     A.U. after   13 cycles
 SCF Done:  E(RB3LYP) =  -423.166453543     A.U. after    6 cycles
 SCF Done:  E(RB3LYP) =  -423.166453759     A.U. after    6 cycles
 Optimization completed.
    -- Stationary point found.
 Normal termination of Gaussian 09 at Mon Jan 27 18:52:22 2020.

 ----------------------------------------------------------------------
 #N Geom=AllCheck Guess=TCheck SCRF=Check GenChk RB3LYP/6-31G(2df,p) Fr
 eq
 ----------------------------------------------------------------------

 Structure from the checkpoint file:  "/scratch/puck/g09_0b211028-c73d-4810-aec1-b891a58cf91c/Gau-172449.chk"
 -----
 titel
 -----
 Charge =  0 Multiplicity = 1

                         Standard orientation:
 ---------------------------------------------------------------------
 Center     Atomic      Atomic             Coordinates (Angstroms)
 Number     Number       Type             X           Y           Z
 ---------------------------------------------------------------------
      1          8           0        0.938720    1.603248   -0.915006
      2          6           0        0.672924    0.555722   -0.011390
      3          6           0        1.914460   -0.218698    0.529906
      4          6           0        1.257799   -1.556759    0.087194
      5          6           0        0.188157   -0.753313   -0.711260
      6          6           0       -1.247163   -0.957736   -0.302264
      7          8           0       -2.078303    0.168436   -0.605555
      8          6           0       -1.598005    0.023272    0.736114
      9          6           0       -0.409068    0.914194    1.050514
     10          1           0        1.265757    2.358410   -0.414090
     11          1           0        2.796072    0.023534   -0.068402
     12          1           0        2.158743   -0.104546    1.589806
     13          1           0        1.887010   -2.233091   -0.493642
     14          1           0        0.824042   -2.120654    0.918184
     15          1           0        0.342317   -0.748451   -1.791769
     16          1           0       -1.724781   -1.932678   -0.379895
     17          1           0       -2.365644   -0.158073    1.485426
     18          1           0       -0.680930    1.972073    0.972724
     19          1           0       -0.060550    0.729905    2.073264
 ---------------------------------------------------------------------

 SCF Done:  E(RB3LYP) =  -423.166453759     A.U. after    1 cycles

 The electronic state is 1-A.
 Alpha  occ. eigenvalues --  -19.14358 -19.13417 -10.23574 -10.23258 -10.22980
 Alpha  occ. eigenvalues --  -10.18560 -10.18548 -10.18356 -10.17950  -1.06703
 Alpha  occ. eigenvalues --   -1.01884  -0.84466  -0.74869  -0.70207  -0.64627
 Alpha  occ. eigenvalues --   -0.61729  -0.58172  -0.53644  -0.52234  -0.50008
 Alpha  occ. eigenvalues --   -0.45816  -0.44003  -0.42957  -0.41680  -0.39974
 Alpha  occ. eigenvalues --   -0.38132  -0.36499  -0.34061  -0.33439  -0.32758
 Alpha  occ. eigenvalues --   -0.29763  -0.28281  -0.26853  -0.24605
 Alpha virt. eigenvalues --    0.07751   0.09014   0.10104   0.10645   0.11314
 Alpha virt. eigenvalues --    0.12595   0.14365   0.15293   0.16562   0.17112
 Alpha virt. eigenvalues --    0.17506   0.18156   0.19439   0.21203   0.22031

 Mulliken charges:
               1
     1  O   -0.476536
     2  C    0.411743
     3  C   -0.289365
     4  C   -0.247034
     5  C   -0.063473
     6  C    0.026168
     7  O   -0.256266
     8  C    0.059937
     9  C   -0.325235
    10  H    0.274123
    11  H    0.107597
    12  H    0.090876
    13  H    0.107323
    14  H    0.099751
    15  H    0.090477
    16  H    0.091947
    17  H    0.090443
    18  H    0.109465
    19  H    0.098060
 Sum of Mulliken charges =   0.00000

 Dipole moment (field-independent basis, Debye):
    X=              1.3816    Y=             -0.5740    Z=              2.3360  Tot=              2.7740
 Quadrupole moment (field-independent basis, Debye-Ang):
   XX=            -55.2625   YY=            -48.8839   ZZ=            -54.0447
   XY=              2.9563   XZ=             -2.2696   YZ=              3.4815

  Exact polarizability:  77.470   0.080  75.291  -1.527   3.953  67.994
 Approx polarizability: 105.138  -1.318 110.182   0.696   3.730 108.235

                      1                      2                      3
                      A                      A                      A
 Frequencies --     76.7737               192.0758               236.4449
 Red. masses --      2.7197                 2.8113                 1.1036
 Frc consts  --      0.0094                 0.0611                 0.0364
 IR Inten    --      0.6055                 1.8111                86.0973

                      4                      5                      6
                      A                      A                      A
 Frequencies --    273.0765               376.9295               380.3340
 Red. masses --      3.0081                 3.0667                 2.4608
 Frc consts  --      0.1322                 0.2567                 0.2097
 IR Inten    --      9.6435                 2.4080                 3.0379

                      7                      8                      9
                      A                      A                      A
 Frequencies --    407.6876               452.8760               602.6216
 Red. masses --      3.6845                 4.4587                 4.0872
 Frc consts  --      0.3608                 0.5388                 0.8745
 IR Inten    --     15.5775                16.9925                 3.0566

                     10                     11                     12
                      A                      A                      A
 Frequencies --    647.1310               687.9216               757.7860
 Red. masses --      2.8926                 2.9709                 2.0838
 Frc consts  --      0.7137                 0.8284                 0.7050
 IR Inten    --      3.1123                 1.1525                 1.2696

                     13                     14                     15
                      A                      A                      A
 Frequencies --    818.7160               833.1226               852.4301
 Red. masses --      2.8192                 2.3290                 1.9710
 Frc consts  --      1.1134                 0.9524                 0.8438
 IR Inten    --      2.0831                 2.7702                15.7676

                     16                     17                     18
                      A                      A                      A
 Frequencies --    878.4059               904.7324               948.5525
 Red. masses --      2.4752                 2.3577                 2.6772
 Frc consts  --      1.1253                 1.1370                 1.4193
 IR Inten    --     17.2651                 4.5519                 1.6719

                     19                     20                     21
                      A                      A                      A
 Frequencies --    976.1216               982.5627              1019.0681
 Red. masses --      2.0588                 2.1787                 1.6707
 Frc consts  --      1.1558                 1.2393                 1.0223
 IR Inten    --      2.8596                 5.6044                41.6663

                     22                     23                     24
                      A                      A                      A
 Frequencies --   1027.6190              1044.1227              1081.8926
 Red. masses --      1.7910                 1.7617                 1.7615
 Frc consts  --      1.1143                 1.1316                 1.2148
 IR Inten    --      5.6223                 6.6917                 9.3171

                     25                     26                     27
                      A                      A                      A
 Frequencies --   1143.5321              1150.9310              1159.9003
 Red. masses --      1.6540                 2.4154                 2.3122
 Frc consts  --      1.2743                 1.8851                 1.8328
 IR Inten    --      1.2683                42.8030                10.2752

                     28                     29                     30
                      A                      A                      A
 Frequencies --   1205.6609              1220.7568              1241.1448
 Red. masses --      1.3459                 1.3166                 1.3709
 Frc consts  --      1.1527                 1.1560                 1.2442
 IR Inten    --      2.4212                 6.1838                 2.4206

                     31                     32                     33
                      A                      A                      A
 Frequencies --   1250.8083              1270.0475              1288.1046
 Red. masses --      1.3250                 1.4214                 1.6028
 Frc consts  --      1.2213                 1.3509                 1.5669
 IR Inten    --      5.0989                 0.4606                52.6335

                     34                     35                     36
                      A                      A                      A
 Frequencies --   1295.0007              1305.6906              1348.4318
 Red. masses --      1.7912                 1.3489                 1.8483
 Frc consts  --      1.7699                 1.3549                 1.9800
 IR Inten    --     29.6636                 3.5078                10.5196

                     37                     38                     39
                      A                      A                      A
 Frequencies --   1376.7715              1436.2629              1466.6408
 Red. masses --      1.7872                 3.1001                 1.1069
 Frc consts  --      1.9960                 3.7678                 1.4028
 IR Inten    --      8.7654                19.1301                 2.2920

                     40                     41                     42
                      A                      A                      A
 Frequencies --   1477.1816              1497.9430              3035.9744
 Red. masses --      1.0918                 1.1247                 1.0597
 Frc consts  --      1.4037                 1.4869                 5.7546
 IR Inten    --      0.6445                 4.1492                21.6490

                     43                     44                     45
                      A                      A                      A
 Frequencies --   3052.8940              3061.4440              3083.1293
 Red. masses --      1.0584                 1.0621                 1.1037
 Frc consts  --      5.8120                 5.8651                 6.1813
 IR Inten    --     41.1093                28.7437                15.4723

                     46                     47                     48
                      A                      A                      A
 Frequencies --   3097.6978              3107.9317              3124.3452
 Red. masses --      1.0898                 1.1036                 1.1049
 Frc consts  --      6.1611                 6.2809                 6.3547
 IR Inten    --      9.8902                 3.9017                38.4735

                     49                     50                     51
                      A                      A                      A
 Frequencies --   3127.0424              3140.5108              3801.0413
 Red. masses --      1.0869                 1.0952                 1.0659
 Frc consts  --      6.2618                 6.3642                 9.0737
 IR Inten    --     29.9678                43.3531                15.4533

 - Thermochemistry -
 -------------------
 Temperature   298.150 Kelvin.  Pressure   1.00000 Atm.
 Atom     1 has atomic number  8 and mass  15.99491

 Molecular mass:   126.06808 amu.
 Principal axes and moments of inertia in atomic units:
                           1         2         3
     Eigenvalues --   681.813351053.230161277.61271
           X            0.99990  -0.01012  -0.00973
           Y            0.01061   0.99865   0.05088
           Z            0.00921  -0.05097   0.99866
 This molecule is an asymmetric top.
 Rotational symmetry number  1.
 Warning -- assumption of classical behavior for rotation
           may cause significant error
 Rotational temperatures (Kelvin)      0.12703     0.08224     0.06779
 Rotational constants (GHZ):           2.64697     1.71353     1.41259
 Zero-point vibrational energy     420043.7 (Joules/Mol)
                                  100.39286 (Kcal/Mol)
 Warning -- explicit consideration of   9 degrees of freedom as
           vibrations may cause significant error
 Vibrational temperatures:    110.46   276.35   340.19   392.90   542.32
          (Kelvin)            547.22   586.57   651.59   867.04   931.08
                              989.76  1090.28  1177.95  1198.68  1226.46
                             1263.83  1301.71  1364.75  1404.42  1413.69
                             1466.21  1478.51  1502.26  1556.60  1645.29
                             1655.93  1668.84  1734.67  1756.39  1785.73
                             1799.63  1827.31  1853.29  1863.21  1878.60
                             1940.09  1980.86  2066.46  2110.17  2125.33
                             2155.20  4368.08  4392.43  4404.73  4435.93
                             4456.89  4471.61  4495.23  4499.11  4518.49
                             5468.84

 Zero-point correction=                           0.159986 (Hartree/Particle)
 Thermal correction to Energy=                    0.167637
 Thermal correction to Enthalpy=                  0.168581
 Thermal correction to Gibbs Free Energy=         0.127970
 Sum of electronic and zero-point Energies=           -423.006468
 Sum of electronic and thermal Energies=              -422.998817
 Sum of electronic and thermal Enthalpies=            -422.997873
 Sum of electronic and thermal Free Energies=         -423.038484

                     E (Thermal)             CV                S
                      KCal/Mol        Cal/Mol-Kelvin    Cal/Mol-Kelvin
 Total                  105.194             30.692             85.474
 Electronic               0.000              0.000              0.000
 Translational            0.889              2.981             40.409
 Rotational               0.889              2.981             28.308
 Vibrational            103.416             24.730             16.757
 Vibration     1          0.599              1.965              3.972
 Vibration     2          0.634              1.851              2.208
 Vibration     3          0.655              1.785              1.829
 Vibration     4          0.676              1.723              1.577
 Vibration     5          0.747              1.519              1.051
 Vibration     6          0.750              1.512              1.038
 Vibration     7          0.772              1.454              0.935
 Vibration     8          0.811              1.355              0.787
 Vibration     9          0.961              1.026              0.445

 Normal termination of Gaussian 09 at Mon Jan 27 19:36:52 2020.
