 Gaussian 09, Revision D.01,
 Gaussian 09:  ES64L-G09RevD.01 24-Apr-2013

 -----------------------------
 # b3lyp 6-31G(2df,p) opt Freq
 -----------------------------

 -----
 titel
 -----
 Symbolic Z-matrix:
 Charge =  0 Multiplicity = 1

 SCF Done:  E(RB3LYP) =  -423.154307222     A.U. after   13 cycles
 Optimization completed.
    -- Stationary point found.
 Normal termination of Gaussian 09 at Mon Jan 27 22:01:19 2020.

 ----------------------------------------------------------------------
 #N Geom=AllCheck Guess=TCheck SCRF=Check GenChk RB3LYP/6-31G(2df,p) Fr
 eq
 ----------------------------------------------------------------------

 Structure from the checkpoint file:  "/scratch/puck/g09_72dc95c5-fd71-4587-8f0b-f00e8f611406/Gau-26424.chk"
 -----
 titel
 -----
 Charge =  0 Multiplicity = 1

                         Standard orientation:
 ---------------------------------------------------------------------
 Center     Atomic      Atomic             Coordinates (Angstroms)
 Number     Number       Type             X           Y           Z
 ---------------------------------------------------------------------
      1          8           0        2.414053    0.363683    0.133049
      2          6           0        1.022826    0.227438    0.003208
      3          6           0        0.273655    1.529869   -0.208596
      4          6           0       -1.251949    1.375802   -0.371642
      5          6           0       -1.856329    0.309117    0.556965
      6          6           0       -1.051281   -0.981521    0.455062
      7          8           0       -0.679864   -1.265878   -0.938291
      8          6           0        0.695671   -1.111796   -0.609971
      9          6           0        0.427006   -0.875332    0.857862
     10          1           0        2.593044    0.804867    0.971538
     11          1           0        0.487022    2.160902    0.668290
     12          1           0        0.695216    2.054637   -1.073316
     13          1           0       -1.737202    2.342573   -0.202866
     14          1           0       -1.469007    1.082732   -1.401398
     15          1           0       -1.852532    0.635408    1.605596
     16          1           0       -2.901754    0.131473    0.281281
     17          1           0       -1.569974   -1.845168    0.882429
     18          1           0        1.427809   -1.715106   -1.133819
     19          1           0        0.896269   -1.276208    1.746878
 ---------------------------------------------------------------------

 SCF Done:  E(RB3LYP) =  -423.154307222     A.U. after    1 cycles

 The electronic state is 1-A.
 Alpha  occ. eigenvalues --  -19.14561 -19.13429 -10.23845 -10.23749 -10.23370
 Alpha  occ. eigenvalues --  -10.18620 -10.18262 -10.18237 -10.17974  -1.05341
 Alpha  occ. eigenvalues --   -1.02594  -0.82721  -0.78819  -0.73224  -0.65495
 Alpha  occ. eigenvalues --   -0.61133  -0.55852  -0.54487  -0.52656  -0.47145
 Alpha  occ. eigenvalues --   -0.46670  -0.44843  -0.44250  -0.42459  -0.39459
 Alpha  occ. eigenvalues --   -0.38059  -0.37066  -0.34311  -0.33350  -0.32135
 Alpha  occ. eigenvalues --   -0.30657  -0.30065  -0.24749  -0.22560
 Alpha virt. eigenvalues --    0.06885   0.08338   0.09559   0.11861   0.12795
 Alpha virt. eigenvalues --    0.14149   0.15004   0.15744   0.16312   0.16872
 Alpha virt. eigenvalues --    0.18451   0.20230   0.20922   0.21763   0.22246

 Mulliken charges:
               1
     1  O   -0.472472
     2  C    0.373562
     3  C   -0.272418
     4  C   -0.205132
     5  C   -0.218780
     6  C    0.093041
     7  O   -0.307057
     8  C    0.064573
     9  C   -0.228112
    10  H    0.280903
    11  H    0.082636
    12  H    0.108190
    13  H    0.089397
    14  H    0.124895
    15  H    0.097821
    16  H    0.102808
    17  H    0.083062
    18  H    0.111266
    19  H    0.091816
 Sum of Mulliken charges =   0.00000

 Dipole moment (field-independent basis, Debye):
    X=             -0.2267    Y=              0.9473    Z=              2.3033  Tot=              2.5008
 Quadrupole moment (field-independent basis, Debye-Ang):
   XX=            -53.9260   YY=            -52.4603   ZZ=            -51.8024
   XY=             -0.1769   XZ=              1.2785   YZ=             -0.6596

  Exact polarizability:  80.513   0.842  74.053  -1.413  -0.205  66.383
 Approx polarizability: 111.396   4.231 104.035  -1.535   3.706 109.192

                      1                      2                      3
                      A                      A                      A
 Frequencies --    182.9494               248.2927               290.7423
 Red. masses --      2.4992                 1.9279                 1.2756
 Frc consts  --      0.0493                 0.0700                 0.0635
 IR Inten    --      0.4506                 6.6585                41.1571

                      4                      5                      6
                      A                      A                      A
 Frequencies --    326.5578               363.8332               374.6507
 Red. masses --      4.1087                 4.2579                 2.5854
 Frc consts  --      0.2582                 0.3321                 0.2138
 IR Inten    --      7.8744                40.9700                 7.7418

                      7                      8                      9
                      A                      A                      A
 Frequencies --    422.3758               482.7800               557.8971
 Red. masses --      2.5839                 4.0600                 4.8317
 Frc consts  --      0.2716                 0.5575                 0.8861
 IR Inten    --      2.7868                 4.7928                 5.2144

                     10                     11                     12
                      A                      A                      A
 Frequencies --    635.6767               685.4213               722.7366
 Red. masses --      2.2941                 2.9048                 3.6274
 Frc consts  --      0.5462                 0.8040                 1.1164
 IR Inten    --      1.9151                 3.2723                 6.5064

                     13                     14                     15
                      A                      A                      A
 Frequencies --    817.9509               850.4534               868.4701
 Red. masses --      1.3749                 2.4755                 1.9384
 Frc consts  --      0.5420                 1.0549                 0.8614
 IR Inten    --      4.9779                 3.9671                 8.9991

                     16                     17                     18
                      A                      A                      A
 Frequencies --    900.3790               913.2518               937.7315
 Red. masses --      2.2012                 2.8336                 2.1149
 Frc consts  --      1.0514                 1.3924                 1.0957
 IR Inten    --     18.3194                23.0589                13.9609

                     19                     20                     21
                      A                      A                      A
 Frequencies --    949.2336              1012.9187              1026.6115
 Red. masses --      2.5549                 1.5694                 2.2055
 Frc consts  --      1.3564                 0.9487                 1.3695
 IR Inten    --      3.4721                 9.8344                 9.0294

                     22                     23                     24
                      A                      A                      A
 Frequencies --   1055.5896              1059.8118              1087.6313
 Red. masses --      1.7509                 3.0386                 2.1028
 Frc consts  --      1.1495                 2.0109                 1.4656
 IR Inten    --      2.8403                52.4945                 8.5714

                     25                     26                     27
                      A                      A                      A
 Frequencies --   1111.9627              1146.0711              1166.5294
 Red. masses --      2.3272                 1.6425                 1.8107
 Frc consts  --      1.6953                 1.2711                 1.4518
 IR Inten    --      4.9135                67.4567                16.3432

                     28                     29                     30
                      A                      A                      A
 Frequencies --   1215.4703              1231.8687              1248.4832
 Red. masses --      1.6913                 1.4860                 1.6073
 Frc consts  --      1.4722                 1.3286                 1.4761
 IR Inten    --      3.5749                12.5429                 3.4780

                     31                     32                     33
                      A                      A                      A
 Frequencies --   1267.9954              1276.8361              1334.9120
 Red. masses --      1.4407                 1.4233                 1.4892
 Frc consts  --      1.3648                 1.3672                 1.5636
 IR Inten    --     19.3225                33.4519                22.6561

                     34                     35                     36
                      A                      A                      A
 Frequencies --   1356.0638              1372.8251              1380.7754
 Red. masses --      1.4490                 1.4234                 1.8584
 Frc consts  --      1.5699                 1.5805                 2.0876
 IR Inten    --      5.0669                 0.2301                 2.1119

                     37                     38                     39
                      A                      A                      A
 Frequencies --   1392.3304              1442.0320              1477.2428
 Red. masses --      1.4525                 2.5129                 1.0921
 Frc consts  --      1.6590                 3.0788                 1.4041
 IR Inten    --      1.3783                 9.5989                 2.5574

                     40                     41                     42
                      A                      A                      A
 Frequencies --   1486.7512              1498.3631              2986.3043
 Red. masses --      1.1274                 1.1117                 1.0699
 Frc consts  --      1.4682                 1.4706                 5.6216
 IR Inten    --      6.2558                 1.0680                44.7208

                     43                     44                     45
                      A                      A                      A
 Frequencies --   3022.3158              3050.6731              3056.5046
 Red. masses --      1.0622                 1.0698                 1.0893
 Frc consts  --      5.7163                 5.8659                 5.9961
 IR Inten    --     19.8691                22.2956                55.6593

                     46                     47                     48
                      A                      A                      A
 Frequencies --   3060.6039              3069.7600              3106.7566
 Red. masses --      1.0875                 1.0968                 1.0995
 Frc consts  --      6.0020                 6.0898                 6.2527
 IR Inten    --     31.1259                42.8657                24.5855

                     49                     50                     51
                      A                      A                      A
 Frequencies --   3183.2278              3197.9602              3782.3848
 Red. masses --      1.0893                 1.0989                 1.0660
 Frc consts  --      6.5033                 6.6213                 8.9857
 IR Inten    --     15.9157                11.5348                12.6027

 - Thermochemistry -
 -------------------
 Temperature   298.150 Kelvin.  Pressure   1.00000 Atm.
 Atom     1 has atomic number  8 and mass  15.99491

 Molecular mass:   126.06808 amu.
 Principal axes and moments of inertia in atomic units:
                           1         2         3
     Eigenvalues --   674.28657 978.039771307.08061
           X            0.99917  -0.04059  -0.00379
           Y            0.04046   0.99875  -0.02934
           Z            0.00497   0.02916   0.99956
 This molecule is an asymmetric top.
 Rotational symmetry number  1.
 Warning -- assumption of classical behavior for rotation
           may cause significant error
 Rotational temperatures (Kelvin)      0.12845     0.08856     0.06627
 Rotational constants (GHZ):           2.67652     1.84526     1.38074
 Zero-point vibrational energy     422861.7 (Joules/Mol)
                                  101.06636 (Kcal/Mol)
 Warning -- explicit consideration of   9 degrees of freedom as
           vibrations may cause significant error
 Vibrational temperatures:    263.22   357.24   418.31   469.84   523.47
          (Kelvin)            539.04   607.70   694.61   802.69   914.60
                              986.17  1039.86  1176.85  1223.61  1249.53
                             1295.44  1313.96  1349.18  1365.73  1457.36
                             1477.06  1518.76  1524.83  1564.86  1599.86
                             1648.94  1678.37  1748.79  1772.38  1796.29
                             1824.36  1837.08  1920.64  1951.07  1975.19
                             1986.63  2003.25  2074.76  2125.42  2139.10
                             2155.81  4296.62  4348.43  4389.23  4397.62
                             4403.52  4416.69  4469.92  4579.95  4601.15
                             5442.00

 Zero-point correction=                           0.161060 (Hartree/Particle)
 Thermal correction to Energy=                    0.168291
 Thermal correction to Enthalpy=                  0.169235
 Thermal correction to Gibbs Free Energy=         0.129980
 Sum of electronic and zero-point Energies=           -422.993248
 Sum of electronic and thermal Energies=              -422.986017
 Sum of electronic and thermal Enthalpies=            -422.985072
 Sum of electronic and thermal Free Energies=         -423.024327

                     E (Thermal)             CV                S
                      KCal/Mol        Cal/Mol-Kelvin    Cal/Mol-Kelvin
 Total                  105.604             30.193             82.618
 Electronic               0.000              0.000              0.000
 Translational            0.889              2.981             40.409
 Rotational               0.889              2.981             28.246
 Vibrational            103.827             24.231             13.964
 Vibration     1          0.630              1.863              2.298
 Vibration     2          0.662              1.766              1.743
 Vibration     3          0.687              1.691              1.470
 Vibration     4          0.710              1.622              1.277
 Vibration     5          0.737              1.547              1.106
 Vibration     6          0.746              1.524              1.061
 Vibration     7          0.785              1.422              0.884
 Vibration     8          0.839              1.288              0.703
 Vibration     9          0.913              1.122              0.528

 Optimization completed.
    -- Stationary point found.
 Normal termination of Gaussian 09 at Mon Jan 27 22:51:16 2020.
