 Gaussian 09, Revision D.01,
 Gaussian 09:  ES64L-G09RevD.01 24-Apr-2013

 -----------------------------
 # b3lyp 6-31G(2df,p) opt Freq
 -----------------------------

 -----
 titel
 -----
 Symbolic Z-matrix:
 Charge =  0 Multiplicity = 1

 SCF Done:  E(RB3LYP) =  -423.171920489     A.U. after   14 cycles
 Optimization completed.
    -- Stationary point found.
 Normal termination of Gaussian 09 at Tue Jan 28 14:09:48 2020.

 ----------------------------------------------------------------------
 #N Geom=AllCheck Guess=TCheck SCRF=Check GenChk RB3LYP/6-31G(2df,p) Fr
 eq
 ----------------------------------------------------------------------

 Structure from the checkpoint file:  "/scratch/puck/g09_f87d6d07-5d6b-4555-8cff-afc4033af4c6/Gau-91397.chk"
 -----
 titel
 -----
 Charge =  0 Multiplicity = 1

                         Standard orientation:
 ---------------------------------------------------------------------
 Center     Atomic      Atomic             Coordinates (Angstroms)
 Number     Number       Type             X           Y           Z
 ---------------------------------------------------------------------
      1          8           0        2.830180   -0.355236    0.278612
      2          6           0        1.855451    0.382308   -0.449995
      3          6           0        0.501011   -0.314702   -0.462297
      4          6           0       -0.200848   -0.496493    0.916633
      5          6           0       -1.497229   -1.197739    0.407899
      6          8           0       -1.777556   -0.546037   -0.838614
      7          6           0       -0.722174    0.446358   -1.012967
      8          6           0       -0.939684    1.509477    0.053150
      9          6           0       -0.624978    0.931335    1.218067
     10          1           0        2.967672   -1.192132   -0.176731
     11          1           0        1.787640    1.353242    0.045783
     12          1           0        2.188174    0.562256   -1.484845
     13          1           0        0.599847   -1.273321   -0.988938
     14          1           0        0.345732   -1.032420    1.690243
     15          1           0       -1.334986   -2.268612    0.230875
     16          1           0       -2.341028   -1.075617    1.096436
     17          1           0       -0.727001    0.755359   -2.057150
     18          1           0       -1.385050    2.481549   -0.112742
     19          1           0       -0.751282    1.336616    2.214140
 ---------------------------------------------------------------------

 SCF Done:  E(RB3LYP) =  -423.171920489     A.U. after    1 cycles

 The electronic state is 1-A.
 Alpha  occ. eigenvalues --  -19.13524 -19.13116 -10.23397 -10.22522 -10.22439
 Alpha  occ. eigenvalues --  -10.19528 -10.18990 -10.18567 -10.18014  -1.02890
 Alpha  occ. eigenvalues --   -1.01472  -0.84225  -0.74096  -0.73686  -0.65980
 Alpha  occ. eigenvalues --   -0.61098  -0.57132  -0.53389  -0.52115  -0.49484
 Alpha  occ. eigenvalues --   -0.47553  -0.45540  -0.42746  -0.41809  -0.39309
 Alpha  occ. eigenvalues --   -0.37562  -0.36546  -0.35256  -0.34381  -0.32389
 Alpha  occ. eigenvalues --   -0.30696  -0.26999  -0.25337  -0.23881
 Alpha virt. eigenvalues --    0.00483   0.07169   0.10753   0.11554   0.13364
 Alpha virt. eigenvalues --    0.14493   0.14962   0.15843   0.16074   0.16803
 Alpha virt. eigenvalues --    0.17178   0.18089   0.19345   0.20475   0.21709

 Mulliken charges:
               1
     1  O   -0.416538
     2  C   -0.104654
     3  C   -0.000562
     4  C   -0.093998
     5  C   -0.084222
     6  O   -0.280979
     7  C    0.040521
     8  C   -0.079364
     9  C   -0.080196
    10  H    0.280628
    11  H    0.117840
    12  H    0.085199
    13  H    0.066517
    14  H    0.078912
    15  H    0.096886
    16  H    0.098417
    17  H    0.073281
    18  H    0.101658
    19  H    0.100653
 Sum of Mulliken charges =   0.00000

 Dipole moment (field-independent basis, Debye):
    X=              0.4032    Y=             -0.3502    Z=             -0.1294  Tot=              0.5495
 Quadrupole moment (field-independent basis, Debye-Ang):
   XX=            -60.0997   YY=            -48.9249   ZZ=            -51.5823
   XY=             -3.9986   XZ=             -6.0813   YZ=             -0.8672

  Exact polarizability:  73.022  -1.998  76.563  -1.688  -2.607  73.745
 Approx polarizability: 100.763  -3.319 115.880   4.938  -7.080 121.803

                      1                      2                      3
                      A                      A                      A
 Frequencies --     92.6810               164.8418               248.2654
 Red. masses --      3.4049                 4.2144                 1.9503
 Frc consts  --      0.0172                 0.0675                 0.0708
 IR Inten    --      3.3890                 1.7700                25.5631

                      4                      5                      6
                      A                      A                      A
 Frequencies --    295.2919               317.0811               371.0291
 Red. masses --      2.3746                 1.3254                 4.1111
 Frc consts  --      0.1220                 0.0785                 0.3334
 IR Inten    --     14.2667                73.0123                13.1998

                      7                      8                      9
                      A                      A                      A
 Frequencies --    433.4586               507.8885               560.9033
 Red. masses --      3.0821                 3.0657                 3.2270
 Frc consts  --      0.3412                 0.4659                 0.5982
 IR Inten    --      2.9855                 3.9398                16.1559

                     10                     11                     12
                      A                      A                      A
 Frequencies --    702.6750               747.2225               764.7247
 Red. masses --      4.6212                 1.8269                 2.6315
 Frc consts  --      1.3444                 0.6010                 0.9067
 IR Inten    --      3.2987                13.3327                 4.2468

                     13                     14                     15
                      A                      A                      A
 Frequencies --    824.0410               864.2779               879.8745
 Red. masses --      4.6876                 2.1584                 3.4639
 Frc consts  --      1.8754                 0.9499                 1.5800
 IR Inten    --      4.0492                 7.1083                58.5573

                     16                     17                     18
                      A                      A                      A
 Frequencies --    897.6697               925.0657               947.4733
 Red. masses --      3.1087                 1.7951                 3.2446
 Frc consts  --      1.4759                 0.9051                 1.7161
 IR Inten    --      9.7506                 5.1197                10.4059

                     19                     20                     21
                      A                      A                      A
 Frequencies --    954.0007               993.4328              1005.0085
 Red. masses --      1.6937                 2.4636                 1.6915
 Frc consts  --      0.9082                 1.4325                 1.0066
 IR Inten    --      2.2477                20.4441                 5.9112

                     22                     23                     24
                      A                      A                      A
 Frequencies --   1028.7097              1058.7067              1066.7953
 Red. masses --      2.2800                 3.0025                 1.5264
 Frc consts  --      1.4216                 1.9828                 1.0235
 IR Inten    --     46.5842                61.9628                 1.5717

                     25                     26                     27
                      A                      A                      A
 Frequencies --   1111.0004              1124.4114              1171.3396
 Red. masses --      2.0724                 1.3490                 1.4824
 Frc consts  --      1.5071                 1.0049                 1.1983
 IR Inten    --      7.6083                 2.3861                13.0012

                     28                     29                     30
                      A                      A                      A
 Frequencies --   1200.0938              1204.6567              1233.6803
 Red. masses --      1.4777                 1.2929                 1.4637
 Frc consts  --      1.2539                 1.1055                 1.3125
 IR Inten    --     14.9969                 8.2552                 6.9339

                     31                     32                     33
                      A                      A                      A
 Frequencies --   1269.2638              1289.7928              1300.8078
 Red. masses --      1.3414                 1.2428                 1.6848
 Frc consts  --      1.2732                 1.2181                 1.6797
 IR Inten    --      3.8276                 1.0774                 0.9699

                     34                     35                     36
                      A                      A                      A
 Frequencies --   1345.2299              1352.9470              1383.9443
 Red. masses --      1.2736                 1.6100                 1.3509
 Frc consts  --      1.3579                 1.7363                 1.5244
 IR Inten    --      6.7064                14.7872                 2.5628

                     37                     38                     39
                      A                      A                      A
 Frequencies --   1402.4379              1420.1980              1509.5618
 Red. masses --      1.3677                 1.3132                 1.0831
 Frc consts  --      1.5849                 1.5606                 1.4542
 IR Inten    --     14.1915                26.9387                 2.0957

                     40                     41                     42
                      A                      A                      A
 Frequencies --   1520.0848              1633.7714              2976.1333
 Red. masses --      1.0909                 5.6200                 1.0726
 Frc consts  --      1.4852                 8.8383                 5.5973
 IR Inten    --      0.4458                 1.4789                60.2293

                     43                     44                     45
                      A                      A                      A
 Frequencies --   3014.1538              3021.7022              3059.4786
 Red. masses --      1.0604                 1.0801                 1.1080
 Frc consts  --      5.6759                 5.8105                 6.1104
 IR Inten    --     54.5247                43.1009                41.4039

                     46                     47                     48
                      A                      A                      A
 Frequencies --   3105.7797              3133.6210              3139.6018
 Red. masses --      1.0905                 1.0893                 1.0895
 Frc consts  --      6.1973                 6.3021                 6.3276
 IR Inten    --     19.9300                38.5475                10.7059

                     49                     50                     51
                      A                      A                      A
 Frequencies --   3201.7219              3227.9395              3812.9583
 Red. masses --      1.0864                 1.1066                 1.0662
 Frc consts  --      6.5615                 6.7937                 9.1328
 IR Inten    --      6.3440                12.2087                16.2275

 - Thermochemistry -
 -------------------
 Temperature   298.150 Kelvin.  Pressure   1.00000 Atm.
 Atom     1 has atomic number  8 and mass  15.99491

 Molecular mass:   126.06808 amu.
 Principal axes and moments of inertia in atomic units:
                           1         2         3
     Eigenvalues --   597.831811342.027301397.33250
           X            0.99957  -0.00541  -0.02876
           Y            0.00240   0.99460  -0.10375
           Z            0.02917   0.10364   0.99419
 This molecule is an asymmetric top.
 Rotational symmetry number  1.
 Warning -- assumption of classical behavior for rotation
           may cause significant error
 Rotational temperatures (Kelvin)      0.14488     0.06454     0.06199
 Rotational constants (GHZ):           3.01881     1.34479     1.29156
 Zero-point vibrational energy     423582.3 (Joules/Mol)
                                  101.23860 (Kcal/Mol)
 Warning -- explicit consideration of   9 degrees of freedom as
           vibrations may cause significant error
 Vibrational temperatures:    133.35   237.17   357.20   424.86   456.21
          (Kelvin)            533.83   623.65   730.74   807.01  1010.99
                             1075.09  1100.27  1185.61  1243.50  1265.94
                             1291.54  1330.96  1363.20  1372.59  1429.33
                             1445.98  1480.08  1523.24  1534.88  1598.48
                             1617.78  1685.29  1726.67  1733.23  1774.99
                             1826.19  1855.72  1871.57  1935.48  1946.59
                             1991.18  2017.79  2043.35  2171.92  2187.06
                             2350.63  4281.99  4336.69  4347.55  4401.90
                             4468.52  4508.58  4517.18  4606.56  4644.28
                             5485.99

 Zero-point correction=                           0.161334 (Hartree/Particle)
 Thermal correction to Energy=                    0.168911
 Thermal correction to Enthalpy=                  0.169856
 Thermal correction to Gibbs Free Energy=         0.129323
 Sum of electronic and zero-point Energies=           -423.010587
 Sum of electronic and thermal Energies=              -423.003009
 Sum of electronic and thermal Enthalpies=            -423.002065
 Sum of electronic and thermal Free Energies=         -423.042598

                     E (Thermal)             CV                S
                      KCal/Mol        Cal/Mol-Kelvin    Cal/Mol-Kelvin
 Total                  105.994             30.271             85.309
 Electronic               0.000              0.000              0.000
 Translational            0.889              2.981             40.409
 Rotational               0.889              2.981             28.507
 Vibrational            104.216             24.309             16.393
 Vibration     1          0.602              1.954              3.603
 Vibration     2          0.623              1.886              2.493
 Vibration     3          0.662              1.766              1.743
 Vibration     4          0.690              1.683              1.443
 Vibration     5          0.704              1.641              1.325
 Vibration     6          0.743              1.532              1.076
 Vibration     7          0.794              1.397              0.847
 Vibration     8          0.863              1.233              0.639
 Vibration     9          0.917              1.116              0.522

 Optimization completed.
    -- Stationary point found.
 Normal termination of Gaussian 09 at Tue Jan 28 14:57:35 2020.
