 Gaussian 09, Revision D.01,
 Gaussian 09:  ES64L-G09RevD.01 24-Apr-2013

 -----------------------------
 # b3lyp 6-31G(2df,p) opt Freq
 -----------------------------

 -----
 titel
 -----
 Symbolic Z-matrix:
 Charge =  0 Multiplicity = 1

 SCF Done:  E(RB3LYP) =  -423.177538389     A.U. after   14 cycles
 Optimization completed.
    -- Stationary point found.
 Normal termination of Gaussian 09 at Tue Jan 28 09:16:40 2020.

 ----------------------------------------------------------------------
 #N Geom=AllCheck Guess=TCheck SCRF=Check GenChk RB3LYP/6-31G(2df,p) Fr
 eq
 ----------------------------------------------------------------------

 Structure from the checkpoint file:  "/scratch/puck/g09_67873a8f-86cd-4ffe-888c-47ba336be412/Gau-82390.chk"
 -----
 titel
 -----
 Charge =  0 Multiplicity = 1

                         Standard orientation:
 ---------------------------------------------------------------------
 Center     Atomic      Atomic             Coordinates (Angstroms)
 Number     Number       Type             X           Y           Z
 ---------------------------------------------------------------------
      1          6           0        1.109061    2.044781   -0.324743
      2          6           0        0.856807    0.614139    0.068421
      3          6           0        2.005099   -0.400192    0.008285
      4          6           0        1.300731   -1.730175   -0.152751
      5          6           0       -0.023408   -1.589334   -0.231462
      6          6           0       -0.402833   -0.147749   -0.099420
      7          6           0       -1.723148    0.364991   -0.603264
      8          8           0       -2.796397   -0.168911    0.158061
      9          8           0       -0.005866    0.401673    1.197252
     10          1           0        1.858813    2.492222    0.337463
     11          1           0        1.489453    2.106134   -1.349648
     12          1           0        0.198739    2.642948   -0.250498
     13          1           0        2.678441   -0.187784   -0.832533
     14          1           0        2.613860   -0.359957    0.919963
     15          1           0        1.836938   -2.672312   -0.166363
     16          1           0       -0.755272   -2.379102   -0.342688
     17          1           0       -1.731176    1.463642   -0.591967
     18          1           0       -1.887856    0.035890   -1.634837
     19          1           0       -2.617688    0.057458    1.078206
 ---------------------------------------------------------------------

 SCF Done:  E(RB3LYP) =  -423.177538389     A.U. after    1 cycles

 The electronic state is 1-A.
 Alpha  occ. eigenvalues --  -19.14294 -19.13469 -10.24181 -10.23413 -10.23055
 Alpha  occ. eigenvalues --  -10.19202 -10.18874 -10.18694 -10.18147  -1.06413
 Alpha  occ. eigenvalues --   -1.01434  -0.81911  -0.75543  -0.72923  -0.67703
 Alpha  occ. eigenvalues --   -0.62542  -0.55882  -0.54883  -0.50780  -0.47832
 Alpha  occ. eigenvalues --   -0.45163  -0.44934  -0.43767  -0.42449  -0.40512
 Alpha  occ. eigenvalues --   -0.38898  -0.37610  -0.36163  -0.35784  -0.34060
 Alpha  occ. eigenvalues --   -0.30648  -0.26707  -0.25649  -0.24500
 Alpha virt. eigenvalues --    0.00276   0.08544   0.09574   0.10340   0.11717
 Alpha virt. eigenvalues --    0.13580   0.14248   0.15427   0.16299   0.17112
 Alpha virt. eigenvalues --    0.17343   0.18524   0.20010   0.20953   0.22158

 Mulliken charges:
               1
     1  C   -0.486363
     2  C    0.331520
     3  C   -0.332863
     4  C   -0.083883
     5  C   -0.123355
     6  C    0.294375
     7  C   -0.164255
     8  O   -0.419491
     9  O   -0.348184
    10  H    0.129519
    11  H    0.123699
    12  H    0.130939
    13  H    0.110493
    14  H    0.124559
    15  H    0.101938
    16  H    0.112193
    17  H    0.092262
    18  H    0.112694
    19  H    0.294203
 Sum of Mulliken charges =   0.00000

 Dipole moment (field-independent basis, Debye):
    X=              1.8762    Y=              0.5524    Z=             -1.0039  Tot=              2.1984
 Quadrupole moment (field-independent basis, Debye-Ang):
   XX=            -54.8888   YY=            -50.5542   ZZ=            -53.7282
   XY=             -1.2990   XZ=             -1.4391   YZ=             -0.5090

  Exact polarizability:  90.727   1.174  79.024   0.937   0.757  58.175
 Approx polarizability: 136.121   3.029 106.788   0.083   4.160  96.648

                      1                      2                      3
                      A                      A                      A
 Frequencies --     66.4450               144.3300               173.8096
 Red. masses --      3.6087                 2.5536                 1.2628
 Frc consts  --      0.0094                 0.0313                 0.0225
 IR Inten    --      4.5674                 0.1973                 0.4229

                      4                      5                      6
                      A                      A                      A
 Frequencies --    213.0121               265.0860               295.5275
 Red. masses --      2.1012                 2.4493                 3.3183
 Frc consts  --      0.0562                 0.1014                 0.1708
 IR Inten    --      0.2945                 1.3949                 2.0505

                      7                      8                      9
                      A                      A                      A
 Frequencies --    355.2237               399.2367               431.6062
 Red. masses --      2.2598                 1.8870                 1.5105
 Frc consts  --      0.1680                 0.1772                 0.1658
 IR Inten    --     16.5052                43.3573                62.2878

                     10                     11                     12
                      A                      A                      A
 Frequencies --    497.7949               525.4613               593.5330
 Red. masses --      3.5913                 2.9519                 3.9636
 Frc consts  --      0.5243                 0.4802                 0.8227
 IR Inten    --      7.2851                 9.3417                 4.3144

                     13                     14                     15
                      A                      A                      A
 Frequencies --    700.9636               727.0281               742.9753
 Red. masses --      4.0059                 2.2485                 2.9500
 Frc consts  --      1.1597                 0.7002                 0.9594
 IR Inten    --      4.5524                37.4183                 0.6804

                     16                     17                     18
                      A                      A                      A
 Frequencies --    830.2041               869.2002               929.7549
 Red. masses --      3.3610                 2.5605                 2.5993
 Frc consts  --      1.3649                 1.1398                 1.3239
 IR Inten    --      6.4039                13.9792                30.6037

                     19                     20                     21
                      A                      A                      A
 Frequencies --    941.6826               953.7782               959.4067
 Red. masses --      1.7771                 2.2840                 1.3674
 Frc consts  --      0.9285                 1.2241                 0.7416
 IR Inten    --     10.6630                 2.8230                 2.3536

                     22                     23                     24
                      A                      A                      A
 Frequencies --    977.5018              1036.4596              1075.6848
 Red. masses --      1.7133                 2.5437                 2.2530
 Frc consts  --      0.9645                 1.6100                 1.5360
 IR Inten    --      3.6824                84.5306                10.2291

                     25                     26                     27
                      A                      A                      A
 Frequencies --   1093.1771              1140.8158              1188.7553
 Red. masses --      1.7090                 1.3806                 1.5846
 Frc consts  --      1.2033                 1.0587                 1.3193
 IR Inten    --     19.4958                 2.4205                 7.2447

                     28                     29                     30
                      A                      A                      A
 Frequencies --   1192.8451              1213.3692              1261.5946
 Red. masses --      1.3296                 1.9962                 1.8007
 Frc consts  --      1.1147                 1.7316                 1.6886
 IR Inten    --      6.7488                 2.6233                14.6650

                     31                     32                     33
                      A                      A                      A
 Frequencies --   1315.1874              1362.9457              1380.7811
 Red. masses --      2.2461                 1.6149                 1.5269
 Frc consts  --      2.2890                 1.7675                 1.7152
 IR Inten    --     12.3566                16.3328                 6.4336

                     34                     35                     36
                      A                      A                      A
 Frequencies --   1409.0444              1426.7911              1447.5870
 Red. masses --      1.3217                 1.3706                 1.7388
 Frc consts  --      1.5461                 1.6439                 2.1468
 IR Inten    --      2.5563                35.5255                33.3513

                     37                     38                     39
                      A                      A                      A
 Frequencies --   1460.7907              1486.0297              1490.9212
 Red. masses --      1.3092                 1.1531                 1.0853
 Frc consts  --      1.6460                 1.5002                 1.4213
 IR Inten    --      3.6032                 6.0597                 1.0950

                     40                     41                     42
                      A                      A                      A
 Frequencies --   1500.3214              1666.6780              3008.8391
 Red. masses --      1.1684                 6.4383                 1.0650
 Frc consts  --      1.5496                10.5372                 5.6804
 IR Inten    --      4.4616                 4.0159                42.3994

                     43                     44                     45
                      A                      A                      A
 Frequencies --   3023.4222              3036.8560              3059.7547
 Red. masses --      1.0603                 1.0385                 1.0999
 Frc consts  --      5.7107                 5.6431                 6.0668
 IR Inten    --     21.2605                30.3002                10.8498

                     46                     47                     48
                      A                      A                      A
 Frequencies --   3076.1142              3096.5253              3130.7761
 Red. masses --      1.0975                 1.1000                 1.0998
 Frc consts  --      6.1189                 6.2143                 6.3511
 IR Inten    --     24.5701                17.6381                15.7531

                     49                     50                     51
                      A                      A                      A
 Frequencies --   3193.3364              3224.5867              3797.3292
 Red. masses --      1.0870                 1.1025                 1.0659
 Frc consts  --      6.5311                 6.7543                 9.0556
 IR Inten    --      7.9930                11.8040                22.3732

 - Thermochemistry -
 -------------------
 Temperature   298.150 Kelvin.  Pressure   1.00000 Atm.
 Atom     1 has atomic number  6 and mass  12.00000

 Molecular mass:   126.06808 amu.
 Principal axes and moments of inertia in atomic units:
                           1         2         3
     Eigenvalues --   709.181771178.189691616.86284
           X            0.99997   0.00816  -0.00048
           Y           -0.00816   0.99976  -0.02028
           Z            0.00031   0.02029   0.99979
 This molecule is an asymmetric top.
 Rotational symmetry number  1.
 Warning -- assumption of classical behavior for rotation
           may cause significant error
 Rotational temperatures (Kelvin)      0.12213     0.07351     0.05357
 Rotational constants (GHZ):           2.54482     1.53179     1.11620
 Zero-point vibrational energy     415049.6 (Joules/Mol)
                                   99.19924 (Kcal/Mol)
 Warning -- explicit consideration of  12 degrees of freedom as
           vibrations may cause significant error
 Vibrational temperatures:     95.60   207.66   250.07   306.48   381.40
          (Kelvin)            425.20   511.09   574.41   620.98   716.21
                              756.02   853.96  1008.53  1046.03  1068.97
                             1194.48  1250.58  1337.71  1354.87  1372.27
                             1380.37  1406.41  1491.23  1547.67  1572.84
                             1641.38  1710.35  1716.24  1745.77  1815.15
                             1892.26  1960.97  1986.63  2027.30  2052.83
                             2082.75  2101.75  2138.06  2145.10  2158.63
                             2397.97  4329.04  4350.02  4369.35  4402.30
                             4425.84  4455.20  4504.48  4594.49  4639.46
                             5463.50

 Zero-point correction=                           0.158084 (Hartree/Particle)
 Thermal correction to Energy=                    0.166850
 Thermal correction to Enthalpy=                  0.167795
 Thermal correction to Gibbs Free Energy=         0.124742
 Sum of electronic and zero-point Energies=           -423.019454
 Sum of electronic and thermal Energies=              -423.010688
 Sum of electronic and thermal Enthalpies=            -423.009744
 Sum of electronic and thermal Free Energies=         -423.052796

                     E (Thermal)             CV                S
                      KCal/Mol        Cal/Mol-Kelvin    Cal/Mol-Kelvin
 Total                  104.700             33.533             90.611
 Electronic               0.000              0.000              0.000
 Translational            0.889              2.981             40.409
 Rotational               0.889              2.981             28.693
 Vibrational            102.923             27.571             21.510
 Vibration     1          0.598              1.970              4.256
 Vibration     2          0.616              1.909              2.746
 Vibration     3          0.627              1.875              2.394
 Vibration     4          0.644              1.821              2.018
 Vibration     5          0.671              1.737              1.628
 Vibration     6          0.690              1.682              1.442
 Vibration     7          0.731              1.565              1.143
 Vibration     8          0.765              1.472              0.965
 Vibration     9          0.793              1.401              0.853
 Vibration    10          0.853              1.255              0.664
 Vibration    11          0.880              1.194              0.597
 Vibration    12          0.951              1.046              0.461

 Normal termination of Gaussian 09 at Tue Jan 28 10:07:59 2020.
