 Gaussian 09, Revision D.01,
 Gaussian 09:  ES64L-G09RevD.01 24-Apr-2013

 -----------------------------
 # b3lyp 6-31G(2df,p) opt Freq
 -----------------------------

 -----
 titel
 -----
 Symbolic Z-matrix:
 Charge =  0 Multiplicity = 1

 SCF Done:  E(RB3LYP) =  -423.138164759     A.U. after   14 cycles
 Optimization completed.
    -- Stationary point found.
 Normal termination of Gaussian 09 at Mon Jan 27 22:06:29 2020.

 ----------------------------------------------------------------------
 #N Geom=AllCheck Guess=TCheck SCRF=Check GenChk RB3LYP/6-31G(2df,p) Fr
 eq
 ----------------------------------------------------------------------

 Structure from the checkpoint file:  "/scratch/puck/g09_b4e72495-c351-4a12-b4e6-0d895d89eaec/Gau-46855.chk"
 -----
 titel
 -----
 Charge =  0 Multiplicity = 1

                         Standard orientation:
 ---------------------------------------------------------------------
 Center     Atomic      Atomic             Coordinates (Angstroms)
 Number     Number       Type             X           Y           Z
 ---------------------------------------------------------------------
      1          6           0        2.401039   -0.992199   -0.174819
      2          6           0        1.024459   -0.716192    0.419529
      3          6           0        0.767192    0.763779    0.804720
      4          8           0        0.970146    1.445769   -0.468974
      5          6           0       -0.271525    0.832441   -0.831122
      6          6           0       -0.796423    0.848100    0.621685
      7          6           0       -1.363406   -0.565559    0.438719
      8          8           0       -2.636048   -0.446727   -0.168678
      9          6           0       -0.180384   -0.749490   -0.550160
     10          1           0        2.464214   -2.020173   -0.546706
     11          1           0        2.610324   -0.309360   -1.000452
     12          1           0        3.185344   -0.863932    0.579903
     13          1           0        0.846407   -1.379816    1.274022
     14          1           0        1.309725    1.215519    1.634827
     15          1           0       -0.755751    1.223884   -1.721384
     16          1           0       -1.347812    1.672228    1.069372
     17          1           0       -1.393723   -1.244950    1.302090
     18          1           0       -2.875010   -1.308967   -0.523409
     19          1           0       -0.202213   -1.502049   -1.338365
 ---------------------------------------------------------------------

 SCF Done:  E(RB3LYP) =  -423.138164759     A.U. after    1 cycles

 The electronic state is 1-A.
 Alpha  occ. eigenvalues --  -19.14125 -19.13321 -10.23833 -10.23469 -10.23438
 Alpha  occ. eigenvalues --  -10.19050 -10.18956 -10.18805 -10.16991  -1.05477
 Alpha  occ. eigenvalues --   -1.02302  -0.84999  -0.75839  -0.68703  -0.65584
 Alpha  occ. eigenvalues --   -0.63391  -0.55475  -0.53333  -0.52194  -0.50647
 Alpha  occ. eigenvalues --   -0.46745  -0.45564  -0.41959  -0.40745  -0.38822
 Alpha  occ. eigenvalues --   -0.37502  -0.36324  -0.34100  -0.33298  -0.33064
 Alpha  occ. eigenvalues --   -0.30291  -0.29071  -0.26213  -0.24067
 Alpha virt. eigenvalues --    0.06899   0.08958   0.10574   0.12230   0.12932
 Alpha virt. eigenvalues --    0.14177   0.14407   0.15835   0.16023   0.17059
 Alpha virt. eigenvalues --    0.17564   0.18548   0.19288   0.20467   0.22146

 Mulliken charges:
               1
     1  C   -0.422559
     2  C    0.035488
     3  C    0.042944
     4  O   -0.290297
     5  C    0.115872
     6  C   -0.079611
     7  C    0.114938
     8  O   -0.450811
     9  C   -0.152214
    10  H    0.108715
    11  H    0.138367
    12  H    0.109785
    13  H    0.069115
    14  H    0.077692
    15  H    0.093764
    16  H    0.084136
    17  H    0.061813
    18  H    0.283193
    19  H    0.059671
 Sum of Mulliken charges =   0.00000

 Dipole moment (field-independent basis, Debye):
    X=             -0.3736    Y=             -2.1152    Z=              0.5396  Tot=              2.2147
 Quadrupole moment (field-independent basis, Debye-Ang):
   XX=            -56.1840   YY=            -52.2413   ZZ=            -50.9039
   XY=              1.4615   XZ=              2.8629   YZ=              2.2470

  Exact polarizability:  82.410  -1.047  71.592   2.781   1.724  67.425
 Approx polarizability: 111.021   2.033 109.181   4.152   0.437 106.589

                      1                      2                      3
                      A                      A                      A
 Frequencies --    192.0467               215.0019               234.9606
 Red. masses --      1.5993                 1.6572                 3.3179
 Frc consts  --      0.0348                 0.0451                 0.1079
 IR Inten    --      0.0209                 0.2349                 1.3893

                      4                      5                      6
                      A                      A                      A
 Frequencies --    239.3281               307.1067               361.3642
 Red. masses --      2.4965                 1.2584                 3.0330
 Frc consts  --      0.0842                 0.0699                 0.2334
 IR Inten    --      6.0320                85.9672                16.8550

                      7                      8                      9
                      A                      A                      A
 Frequencies --    466.3909               499.2885               576.7877
 Red. masses --      4.0081                 5.0467                 4.7018
 Frc consts  --      0.5137                 0.7412                 0.9216
 IR Inten    --      6.7586                 3.1779                 4.2262

                     10                     11                     12
                      A                      A                      A
 Frequencies --    700.0895               747.1227               812.5395
 Red. masses --      3.3156                 3.1299                 2.4061
 Frc consts  --      0.9575                 1.0294                 0.9360
 IR Inten    --      2.9848                 2.9290                 4.9232

                     13                     14                     15
                      A                      A                      A
 Frequencies --    849.2476               851.9031               870.6316
 Red. masses --      2.4567                 1.9834                 2.9661
 Frc consts  --      1.0439                 0.8481                 1.3247
 IR Inten    --     15.2258                13.9790                 5.5753

                     16                     17                     18
                      A                      A                      A
 Frequencies --    881.8568               933.2824               952.9451
 Red. masses --      3.2825                 2.6826                 2.0889
 Frc consts  --      1.5040                 1.3767                 1.1177
 IR Inten    --     26.5855                 7.0075                 3.5542

                     19                     20                     21
                      A                      A                      A
 Frequencies --    960.8354              1006.0528              1017.2176
 Red. masses --      2.7808                 2.3964                 1.7516
 Frc consts  --      1.5126                 1.4290                 1.0679
 IR Inten    --     30.8882                 1.4235                11.9294

                     22                     23                     24
                      A                      A                      A
 Frequencies --   1036.4560              1068.8453              1084.8325
 Red. masses --      1.9812                 1.7817                 2.0541
 Frc consts  --      1.2540                 1.1992                 1.4243
 IR Inten    --      3.6425                12.8896                26.4260

                     25                     26                     27
                      A                      A                      A
 Frequencies --   1116.8913              1126.3564              1166.1131
 Red. masses --      1.6609                 2.6109                 2.2874
 Frc consts  --      1.2207                 1.9516                 1.8326
 IR Inten    --     25.0840                11.4801                20.8278

                     28                     29                     30
                      A                      A                      A
 Frequencies --   1167.6450              1195.9301              1204.6202
 Red. masses --      1.3241                 1.4406                 1.6698
 Frc consts  --      1.0636                 1.2140                 1.4276
 IR Inten    --     13.7341                26.1214                 3.6187

                     31                     32                     33
                      A                      A                      A
 Frequencies --   1225.6572              1255.9788              1279.0236
 Red. masses --      1.3125                 1.4868                 1.6013
 Frc consts  --      1.1617                 1.3819                 1.5434
 IR Inten    --      2.5626                14.6967                 2.4536

                     34                     35                     36
                      A                      A                      A
 Frequencies --   1289.1844              1325.2675              1333.9542
 Red. masses --      1.8516                 1.4595                 1.5507
 Frc consts  --      1.8131                 1.5103                 1.6258
 IR Inten    --      0.6827                56.1716                11.0355

                     37                     38                     39
                      A                      A                      A
 Frequencies --   1389.1629              1403.8011              1420.6593
 Red. masses --      1.4493                 1.2821                 1.4806
 Frc consts  --      1.6478                 1.4886                 1.7606
 IR Inten    --      0.7918                 4.0174                 3.4148

                     40                     41                     42
                      A                      A                      A
 Frequencies --   1492.0103              1507.0856              2997.2125
 Red. masses --      1.0450                 1.0496                 1.0846
 Frc consts  --      1.3706                 1.4047                 5.7408
 IR Inten    --      4.1622                 3.6590                56.3397

                     43                     44                     45
                      A                      A                      A
 Frequencies --   3031.8747              3038.6972              3092.2898
 Red. masses --      1.0520                 1.0690                 1.1003
 Frc consts  --      5.6976                 5.8159                 6.1992
 IR Inten    --     30.5465                42.4112                20.8828

                     46                     47                     48
                      A                      A                      A
 Frequencies --   3117.7459              3124.4360              3134.9612
 Red. masses --      1.0899                 1.0909                 1.0986
 Frc consts  --      6.2420                 6.2745                 6.3616
 IR Inten    --     36.0988                30.1522                13.8910

                     49                     50                     51
                      A                      A                      A
 Frequencies --   3144.8100              3164.7732              3815.5864
 Red. masses --      1.0902                 1.0945                 1.0662
 Frc consts  --      6.3523                 6.4589                 9.1458
 IR Inten    --     33.7771                24.4010                23.1121

 - Thermochemistry -
 -------------------
 Temperature   298.150 Kelvin.  Pressure   1.00000 Atm.
 Atom     1 has atomic number  6 and mass  12.00000

 Molecular mass:   126.06808 amu.
 Principal axes and moments of inertia in atomic units:
                           1         2         3
     Eigenvalues --   550.075561184.263781399.12316
           X            0.99950  -0.03152   0.00325
           Y            0.03141   0.99904   0.03045
           Z           -0.00421  -0.03033   0.99953
 This molecule is an asymmetric top.
 Rotational symmetry number  1.
 Warning -- assumption of classical behavior for rotation
           may cause significant error
 Rotational temperatures (Kelvin)      0.15746     0.07314     0.06191
 Rotational constants (GHZ):           3.28090     1.52394     1.28991
 Zero-point vibrational energy     421252.2 (Joules/Mol)
                                  100.68168 (Kcal/Mol)
 Warning -- explicit consideration of   9 degrees of freedom as
           vibrations may cause significant error
 Vibrational temperatures:    276.31   309.34   338.06   344.34   441.86
          (Kelvin)            519.92   671.03   718.36   829.87  1007.27
                             1074.94  1169.06  1221.88  1225.70  1252.64
                             1268.79  1342.78  1371.07  1382.43  1447.48
                             1463.55  1491.23  1537.83  1560.83  1606.96
                             1620.57  1677.77  1679.98  1720.67  1733.18
                             1763.45  1807.07  1840.23  1854.85  1906.76
                             1919.26  1998.69  2019.75  2044.01  2146.67
                             2168.36  4312.31  4362.19  4372.00  4449.11
                             4485.74  4495.36  4510.50  4524.67  4553.40
                             5489.77

 Zero-point correction=                           0.160446 (Hartree/Particle)
 Thermal correction to Energy=                    0.167852
 Thermal correction to Enthalpy=                  0.168796
 Thermal correction to Gibbs Free Energy=         0.129050
 Sum of electronic and zero-point Energies=           -422.977718
 Sum of electronic and thermal Energies=              -422.970313
 Sum of electronic and thermal Enthalpies=            -422.969369
 Sum of electronic and thermal Free Energies=         -423.009114

                     E (Thermal)             CV                S
                      KCal/Mol        Cal/Mol-Kelvin    Cal/Mol-Kelvin
 Total                  105.329             30.250             83.651
 Electronic               0.000              0.000              0.000
 Translational            0.889              2.981             40.409
 Rotational               0.889              2.981             28.301
 Vibrational            103.551             24.288             14.941
 Vibration     1          0.634              1.851              2.208
 Vibration     2          0.645              1.818              2.001
 Vibration     3          0.655              1.787              1.841
 Vibration     4          0.657              1.780              1.808
 Vibration     5          0.697              1.660              1.378
 Vibration     6          0.736              1.552              1.116
 Vibration     7          0.824              1.325              0.748
 Vibration     8          0.855              1.252              0.660
 Vibration     9          0.933              1.081              0.491

 Normal termination of Gaussian 09 at Mon Jan 27 22:58:46 2020.
