 Gaussian 09, Revision D.01,
 Gaussian 09:  ES64L-G09RevD.01 24-Apr-2013

 -----------------------------
 # b3lyp 6-31G(2df,p) opt Freq
 -----------------------------

 -----
 titel
 -----
 Symbolic Z-matrix:
 Charge =  0 Multiplicity = 1

 SCF Done:  E(RB3LYP) =  -423.207746279     A.U. after   14 cycles
 Optimization completed.
    -- Stationary point found.
 Normal termination of Gaussian 09 at Mon Jan 27 14:03:36 2020.

 ----------------------------------------------------------------------
 #N Geom=AllCheck Guess=TCheck SCRF=Check GenChk RB3LYP/6-31G(2df,p) Fr
 eq
 ----------------------------------------------------------------------

 Structure from the checkpoint file:  "/scratch/puck/g09_4c6a1b51-30e7-483a-a72a-4b54a4a9937f/Gau-30613.chk"
 -----
 titel
 -----
 Charge =  0 Multiplicity = 1

                         Standard orientation:
 ---------------------------------------------------------------------
 Center     Atomic      Atomic             Coordinates (Angstroms)
 Number     Number       Type             X           Y           Z
 ---------------------------------------------------------------------
      1          6           0        2.762960   -0.479321    0.448147
      2          6           0        1.569750    0.255843   -0.111661
      3          8           0        1.633301    1.336823   -0.649282
      4          6           0        0.227672   -0.515841   -0.058378
      5          8           0        0.284214   -1.721400   -0.212901
      6          6           0       -1.061469    0.221400    0.098313
      7          6           0       -1.064867    1.697058    0.454176
      8          6           0       -2.193680   -0.652791    0.636644
      9          6           0       -2.179086   -0.304542   -0.809755
     10          1           0        2.638912   -0.614992    1.529340
     11          1           0        2.816101   -1.480396    0.013151
     12          1           0        3.673302    0.086606    0.249074
     13          1           0       -0.510353    1.890294    1.378964
     14          1           0       -0.617062    2.303861   -0.333573
     15          1           0       -2.093374    2.034156    0.614924
     16          1           0       -1.927440   -1.667538    0.907504
     17          1           0       -2.907444   -0.160551    1.287514
     18          1           0       -1.904094   -1.083107   -1.511488
     19          1           0       -2.876360    0.437445   -1.182863
 ---------------------------------------------------------------------

 SCF Done:  E(RB3LYP) =  -423.207746279     A.U. after    1 cycles

 The electronic state is 1-A.
 Alpha  occ. eigenvalues --  -19.14993 -19.14437 -10.28277 -10.27740 -10.21332
 Alpha  occ. eigenvalues --  -10.20031 -10.19754 -10.19223 -10.18225  -1.06414
 Alpha  occ. eigenvalues --   -1.04655  -0.87487  -0.75603  -0.72554  -0.66628
 Alpha  occ. eigenvalues --   -0.61141  -0.58833  -0.51646  -0.49426  -0.46896
 Alpha  occ. eigenvalues --   -0.46157  -0.45469  -0.43791  -0.41904  -0.40453
 Alpha  occ. eigenvalues --   -0.39994  -0.39104  -0.38554  -0.37033  -0.35736
 Alpha  occ. eigenvalues --   -0.31324  -0.30623  -0.28418  -0.23475
 Alpha virt. eigenvalues --   -0.06967   0.02107   0.09441   0.10873   0.12072
 Alpha virt. eigenvalues --    0.13242   0.13802   0.14753   0.15602   0.16169
 Alpha virt. eigenvalues --    0.17654   0.18570   0.20157   0.21717   0.22199

 Mulliken charges:
               1
     1  C   -0.479527
     2  C    0.305197
     3  O   -0.285101
     4  C    0.231920
     5  O   -0.322274
     6  C    0.228755
     7  C   -0.477470
     8  C   -0.276866
     9  C   -0.268646
    10  H    0.144684
    11  H    0.168577
    12  H    0.140627
    13  H    0.116545
    14  H    0.150657
    15  H    0.109244
    16  H    0.137456
    17  H    0.117678
    18  H    0.136331
    19  H    0.122211
 Sum of Mulliken charges =   0.00000

 Dipole moment (field-independent basis, Debye):
    X=             -0.7466    Y=              0.1980    Z=              1.3357  Tot=              1.5430
 Quadrupole moment (field-independent basis, Debye-Ang):
   XX=            -48.6234   YY=            -59.3333   ZZ=            -52.0395
   XY=             -3.7052   XZ=              2.1546   YZ=              1.0035

  Exact polarizability:  91.962  -0.721  77.744   1.708  -1.786  62.093
 Approx polarizability: 116.591  -0.539 129.797   0.784  -6.807  97.383

                      1                      2                      3
                      A                      A                      A
 Frequencies --     34.2007                44.4241               129.1937
 Red. masses --      3.8610                 4.2550                 1.0613
 Frc consts  --      0.0027                 0.0049                 0.0104
 IR Inten    --      1.2122                 6.0837                 0.1135

                      4                      5                      6
                      A                      A                      A
 Frequencies --    178.5937               226.3789               247.4687
 Red. masses --      2.0523                 1.6227                 3.1101
 Frc consts  --      0.0386                 0.0490                 0.1122
 IR Inten    --      2.4990                 4.0925                 5.3701

                      7                      8                      9
                      A                      A                      A
 Frequencies --    294.2479               304.2306               347.0819
 Red. masses --      2.9634                 3.2358                 2.7028
 Frc consts  --      0.1512                 0.1765                 0.1918
 IR Inten    --      0.1149                10.4909                 1.6747

                     10                     11                     12
                      A                      A                      A
 Frequencies --    366.9952               384.6178               541.8104
 Red. masses --      2.6084                 4.3367                 3.5354
 Frc consts  --      0.2070                 0.3780                 0.6115
 IR Inten    --      0.0007                 2.1566                 8.4262

                     13                     14                     15
                      A                      A                      A
 Frequencies --    584.9629               643.0690               739.6147
 Red. masses --      3.6085                 3.8609                 3.9595
 Frc consts  --      0.7275                 0.9407                 1.2761
 IR Inten    --     37.0962                 1.8468                 4.9030

                     16                     17                     18
                      A                      A                      A
 Frequencies --    794.4317               816.9521               819.6435
 Red. masses --      1.1582                 3.8051                 2.7980
 Frc consts  --      0.4307                 1.4963                 1.1075
 IR Inten    --      0.2932                 0.2944                 8.1554

                     19                     20                     21
                      A                      A                      A
 Frequencies --    923.0502               956.3990               961.6636
 Red. masses --      2.3878                 1.2542                 1.4908
 Frc consts  --      1.1987                 0.6759                 0.8123
 IR Inten    --     89.1098                 4.9823                 5.9045

                     22                     23                     24
                      A                      A                      A
 Frequencies --   1027.1511              1048.4257              1076.7308
 Red. masses --      1.8113                 1.6038                 1.6513
 Frc consts  --      1.1259                 1.0387                 1.1280
 IR Inten    --     13.4729                26.1861                62.5423

                     25                     26                     27
                      A                      A                      A
 Frequencies --   1080.0590              1090.5773              1120.8953
 Red. masses --      1.9098                 1.3189                 1.5347
 Frc consts  --      1.3126                 0.9242                 1.1361
 IR Inten    --      5.4327                 1.8383                 2.4838

                     28                     29                     30
                      A                      A                      A
 Frequencies --   1205.0908              1230.6070              1308.6951
 Red. masses --      1.3044                 3.2584                 3.2935
 Frc consts  --      1.1161                 2.9073                 3.3234
 IR Inten    --      0.1240                19.2933                10.2465

                     31                     32                     33
                      A                      A                      A
 Frequencies --   1339.9815              1376.6509              1422.9253
 Red. masses --      3.3496                 1.3938                 1.2569
 Frc consts  --      3.5436                 1.5563                 1.4994
 IR Inten    --     26.6928                27.5809                 8.4984

                     34                     35                     36
                      A                      A                      A
 Frequencies --   1453.6691              1459.2221              1461.3430
 Red. masses --      1.0879                 1.0541                 1.0499
 Frc consts  --      1.3544                 1.3224                 1.3210
 IR Inten    --      4.2035                14.7440                 9.4571

                     37                     38                     39
                      A                      A                      A
 Frequencies --   1483.8543              1489.4093              1503.2263
 Red. masses --      1.2975                 1.0461                 1.0590
 Frc consts  --      1.6832                 1.3673                 1.4099
 IR Inten    --      4.3472                 6.0504                22.3605

                     40                     41                     42
                      A                      A                      A
 Frequencies --   1752.1396              1804.5531              3039.1545
 Red. masses --     11.9720                11.4390                 1.0394
 Frc consts  --     21.6547                21.9470                 5.6564
 IR Inten    --     95.9141               122.4790                24.3834

                     43                     44                     45
                      A                      A                      A
 Frequencies --   3042.3376              3097.3509              3113.8116
 Red. masses --      1.0401                 1.1002                 1.0908
 Frc consts  --      5.6721                 6.2185                 6.2312
 IR Inten    --      1.7351                22.9620                 3.1409

                     46                     47                     48
                      A                      A                      A
 Frequencies --   3139.0982              3140.7066              3142.8154
 Red. masses --      1.0506                 1.0634                 1.0914
 Frc consts  --      6.0997                 6.1804                 6.3517
 IR Inten    --     12.9320                 4.5344                11.8106

                     49                     50                     51
                      A                      A                      A
 Frequencies --   3163.6004              3228.1549              3242.0033
 Red. masses --      1.1050                 1.1185                 1.1170
 Frc consts  --      6.5162                 6.8675                 6.9169
 IR Inten    --      5.9548                 0.1039                 4.1904

 - Thermochemistry -
 -------------------
 Temperature   298.150 Kelvin.  Pressure   1.00000 Atm.
 Atom     1 has atomic number  6 and mass  12.00000

 Molecular mass:   126.06808 amu.
 Principal axes and moments of inertia in atomic units:
                           1         2         3
     Eigenvalues --   642.962741435.732221819.42921
           X            0.99934  -0.03456   0.01143
           Y            0.03440   0.99931   0.01382
           Z           -0.01190  -0.01342   0.99984
 This molecule is an asymmetric top.
 Rotational symmetry number  1.
 Warning -- assumption of classical behavior for rotation
           may cause significant error
 Rotational temperatures (Kelvin)      0.13471     0.06033     0.04760
 Rotational constants (GHZ):           2.80691     1.25702     0.99193
 Zero-point vibrational energy     409262.0 (Joules/Mol)
                                   97.81597 (Kcal/Mol)
 Warning -- explicit consideration of  13 degrees of freedom as
           vibrations may cause significant error
 Vibrational temperatures:     49.21    63.92   185.88   256.96   325.71
          (Kelvin)            356.05   423.36   437.72   499.37   528.02
                              553.38   779.54   841.63   925.23  1064.14
                             1143.01  1175.41  1179.28  1328.06  1376.04
                             1383.62  1477.84  1508.45  1549.17  1553.96
                             1569.10  1612.72  1733.85  1770.57  1882.92
                             1927.93  1980.69  2047.27  2091.50  2099.49
                             2102.54  2134.93  2142.93  2162.80  2520.93
                             2596.35  4372.66  4377.24  4456.39  4480.07
                             4516.46  4518.77  4521.80  4551.71  4644.59
                             4664.51

 Zero-point correction=                           0.155880 (Hartree/Particle)
 Thermal correction to Energy=                    0.165818
 Thermal correction to Enthalpy=                  0.166762
 Thermal correction to Gibbs Free Energy=         0.120044
 Sum of electronic and zero-point Energies=           -423.051867
 Sum of electronic and thermal Energies=              -423.041928
 Sum of electronic and thermal Enthalpies=            -423.040984
 Sum of electronic and thermal Free Energies=         -423.087702

                     E (Thermal)             CV                S
                      KCal/Mol        Cal/Mol-Kelvin    Cal/Mol-Kelvin
 Total                  104.052             35.643             98.325
 Electronic               0.000              0.000              0.000
 Translational            0.889              2.981             40.409
 Rotational               0.889              2.981             28.909
 Vibrational            102.275             29.681             29.008
 Vibration     1          0.594              1.983              5.570
 Vibration     2          0.595              1.980              5.051
 Vibration     3          0.612              1.924              2.958
 Vibration     4          0.629              1.869              2.343
 Vibration     5          0.650              1.801              1.907
 Vibration     6          0.661              1.767              1.749
 Vibration     7          0.689              1.684              1.449
 Vibration     8          0.695              1.666              1.394
 Vibration     9          0.725              1.581              1.179
 Vibration    10          0.740              1.540              1.092
 Vibration    11          0.754              1.503              1.021
 Vibration    12          0.897              1.158              0.561
 Vibration    13          0.942              1.064              0.476

 Optimization completed.
    -- Stationary point found.
 Normal termination of Gaussian 09 at Mon Jan 27 14:46:20 2020.
