 Gaussian 09, Revision D.01,
 Gaussian 09:  ES64L-G09RevD.01 24-Apr-2013

 -----------------------------
 # b3lyp 6-31G(2df,p) opt Freq
 -----------------------------

 -----
 titel
 -----
 Symbolic Z-matrix:
 Charge =  0 Multiplicity = 1

 SCF Done:  E(RB3LYP) =  -423.113251770     A.U. after   13 cycles
 Optimization completed.
    -- Stationary point found.
 Normal termination of Gaussian 09 at Tue Jan 28 02:52:35 2020.

 ----------------------------------------------------------------------
 #N Geom=AllCheck Guess=TCheck SCRF=Check GenChk RB3LYP/6-31G(2df,p) Fr
 eq
 ----------------------------------------------------------------------

 Structure from the checkpoint file:  "/scratch/puck/g09_41f2a1a9-1d79-4dd9-9d4a-0b81139e9059/Gau-105054.chk"
 -----
 titel
 -----
 Charge =  0 Multiplicity = 1

                         Standard orientation:
 ---------------------------------------------------------------------
 Center     Atomic      Atomic             Coordinates (Angstroms)
 Number     Number       Type             X           Y           Z
 ---------------------------------------------------------------------
      1          6           0        3.055258   -0.067694   -0.505450
      2          6           0        1.616066    0.376459   -0.352013
      3          8           0        1.263926    0.544916    1.060500
      4          6           0        0.330146   -0.531041    0.970493
      5          6           0        0.555761   -0.714824   -0.518527
      6          6           0       -0.758711   -0.206965    0.009926
      7          6           0       -2.111938   -0.904623   -0.094798
      8          8           0       -2.774489    0.370889   -0.221338
      9          6           0       -1.520602    1.095876   -0.198610
     10          1           0        3.294357   -0.225258   -1.563112
     11          1           0        3.729660    0.697838   -0.110530
     12          1           0        3.232817   -1.000959    0.036947
     13          1           0        1.432990    1.305331   -0.907964
     14          1           0        0.254116   -1.218982    1.806230
     15          1           0        0.650723   -1.607143   -1.125211
     16          1           0       -2.255795   -1.531727   -0.985424
     17          1           0       -2.446049   -1.460194    0.791463
     18          1           0       -1.334174    1.615616   -1.147955
     19          1           0       -1.470026    1.815912    0.626138
 ---------------------------------------------------------------------

 SCF Done:  E(RB3LYP) =  -423.113251770     A.U. after    1 cycles

 The electronic state is 1-A.
 Alpha  occ. eigenvalues --  -19.14158 -19.13235 -10.24552 -10.24352 -10.23464
 Alpha  occ. eigenvalues --  -10.22881 -10.20435 -10.20033 -10.18306  -1.05591
 Alpha  occ. eigenvalues --   -1.03539  -0.84004  -0.76181  -0.69427  -0.68393
 Alpha  occ. eigenvalues --   -0.64257  -0.55241  -0.54487  -0.51788  -0.49833
 Alpha  occ. eigenvalues --   -0.48311  -0.47531  -0.43277  -0.40489  -0.40440
 Alpha  occ. eigenvalues --   -0.39422  -0.38758  -0.34636  -0.34331  -0.33158
 Alpha  occ. eigenvalues --   -0.31461  -0.27384  -0.25004  -0.23480
 Alpha virt. eigenvalues --    0.07105   0.07843   0.09422   0.10523   0.10935
 Alpha virt. eigenvalues --    0.11506   0.14182   0.14351   0.15566   0.16334
 Alpha virt. eigenvalues --    0.16701   0.18585   0.19068   0.20449   0.21609

 Mulliken charges:
               1
     1  C   -0.401564
     2  C    0.139510
     3  O   -0.303291
     4  C    0.017871
     5  C   -0.238658
     6  C    0.279117
     7  C   -0.154315
     8  O   -0.277217
     9  C   -0.140787
    10  H    0.116663
    11  H    0.130282
    12  H    0.124692
    13  H    0.083947
    14  H    0.103934
    15  H    0.099062
    16  H    0.100786
    17  H    0.104492
    18  H    0.099802
    19  H    0.115671
 Sum of Mulliken charges =   0.00000

 Dipole moment (field-independent basis, Debye):
    X=              1.5519    Y=             -1.4833    Z=             -0.9880  Tot=              2.3632
 Quadrupole moment (field-independent basis, Debye-Ang):
   XX=            -59.5356   YY=            -50.5674   ZZ=            -53.1365
   XY=              1.5800   XZ=             -3.4368   YZ=             -1.8077

  Exact polarizability:  89.349   3.187  71.199  -2.892  -1.704  66.877
 Approx polarizability: 112.192   4.090 105.465  -2.145  -0.451 106.693

                      1                      2                      3
                      A                      A                      A
 Frequencies --     82.5964               118.8665               174.4182
 Red. masses --      4.2406                 3.3391                 2.9982
 Frc consts  --      0.0170                 0.0278                 0.0537
 IR Inten    --      3.1332                 0.7310                 3.6500

                      4                      5                      6
                      A                      A                      A
 Frequencies --    221.2518               252.2285               286.7849
 Red. masses --      1.7260                 1.3019                 2.9243
 Frc consts  --      0.0498                 0.0488                 0.1417
 IR Inten    --      1.9424                 0.2015                 1.4136

                      7                      8                      9
                      A                      A                      A
 Frequencies --    378.8552               418.0078               519.9571
 Red. masses --      2.3233                 3.9328                 3.2532
 Frc consts  --      0.1965                 0.4049                 0.5182
 IR Inten    --      0.9979                 2.1336                 2.8128

                     10                     11                     12
                      A                      A                      A
 Frequencies --    627.6356               776.4038               811.5081
 Red. masses --      4.3350                 2.4784                 1.5904
 Frc consts  --      1.0061                 0.8802                 0.6171
 IR Inten    --      4.1574                 4.4569                 5.8953

                     13                     14                     15
                      A                      A                      A
 Frequencies --    848.4792               864.4122               894.5883
 Red. masses --      2.1102                 3.6356                 2.8082
 Frc consts  --      0.8951                 1.6006                 1.3241
 IR Inten    --     12.5128                23.4338                 9.7559

                     16                     17                     18
                      A                      A                      A
 Frequencies --    909.7369               967.3829               981.6057
 Red. masses --      2.1756                 3.7201                 1.5547
 Frc consts  --      1.0609                 2.0512                 0.8826
 IR Inten    --      3.4528                15.2132                 8.5583

                     19                     20                     21
                      A                      A                      A
 Frequencies --   1011.2216              1025.8235              1029.4464
 Red. masses --      1.8032                 6.2233                 3.2439
 Frc consts  --      1.0864                 3.8585                 2.0255
 IR Inten    --      6.2866                38.8107                64.1944

                     22                     23                     24
                      A                      A                      A
 Frequencies --   1037.0013              1080.4885              1105.0815
 Red. masses --      2.1285                 1.8788                 2.1282
 Frc consts  --      1.3486                 1.2923                 1.5313
 IR Inten    --     66.3061                 5.8591                 5.6333

                     25                     26                     27
                      A                      A                      A
 Frequencies --   1109.4365              1134.1170              1148.8404
 Red. masses --      2.2122                 1.5355                 1.0871
 Frc consts  --      1.6043                 1.1636                 0.8453
 IR Inten    --      2.6730                 4.7548                 0.3328

                     28                     29                     30
                      A                      A                      A
 Frequencies --   1168.3752              1181.8596              1220.3340
 Red. masses --      1.8662                 2.3868                 1.3812
 Frc consts  --      1.5010                 1.9643                 1.2119
 IR Inten    --      3.6823                 9.2169                 2.4264

                     31                     32                     33
                      A                      A                      A
 Frequencies --   1250.2917              1301.5520              1309.7946
 Red. masses --      1.7403                 1.4639                 1.4441
 Frc consts  --      1.6029                 1.4611                 1.4596
 IR Inten    --      7.0154                 3.8309                 5.5833

                     34                     35                     36
                      A                      A                      A
 Frequencies --   1363.9321              1383.5981              1406.2480
 Red. masses --      1.4396                 1.4161                 1.3482
 Frc consts  --      1.5779                 1.5972                 1.5708
 IR Inten    --      2.1070                16.7663                12.2661

                     37                     38                     39
                      A                      A                      A
 Frequencies --   1455.9753              1484.0510              1491.1893
 Red. masses --      5.6398                 1.0545                 1.0507
 Frc consts  --      7.0440                 1.3684                 1.3766
 IR Inten    --     10.3466                 3.2173                 2.6989

                     40                     41                     42
                      A                      A                      A
 Frequencies --   1510.3359              1534.4013              2994.8621
 Red. masses --      1.0818                 1.1078                 1.0536
 Frc consts  --      1.4540                 1.5367                 5.5680
 IR Inten    --      2.0053                 0.3580               109.8476

                     43                     44                     45
                      A                      A                      A
 Frequencies --   3008.9611              3020.6970              3035.4943
 Red. masses --      1.0614                 1.0828                 1.0358
 Frc consts  --      5.6617                 5.8215                 5.6234
 IR Inten    --     12.2342                53.8569                17.7399

                     46                     47                     48
                      A                      A                      A
 Frequencies --   3036.9670              3060.3596              3107.3293
 Red. masses --      1.1100                 1.1059                 1.1002
 Frc consts  --      6.0321                 6.1027                 6.2589
 IR Inten    --     43.7921                35.0556                18.4122

                     49                     50                     51
                      A                      A                      A
 Frequencies --   3120.1084              3165.1774              3187.7228
 Red. masses --      1.1027                 1.0904                 1.0964
 Frc consts  --      6.3250                 6.4364                 6.5642
 IR Inten    --     21.6718                21.2107                 8.7436

 - Thermochemistry -
 -------------------
 Temperature   298.150 Kelvin.  Pressure   1.00000 Atm.
 Atom     1 has atomic number  6 and mass  12.00000

 Molecular mass:   126.06808 amu.
 Principal axes and moments of inertia in atomic units:
                           1         2         3
     Eigenvalues --   393.782131741.086641783.13808
           X            0.99987   0.00097  -0.01615
           Y           -0.00328   0.98959  -0.14384
           Z            0.01584   0.14388   0.98947
 This molecule is an asymmetric top.
 Rotational symmetry number  1.
 Rotational temperatures (Kelvin)      0.21995     0.04975     0.04857
 Rotational constants (GHZ):           4.58310     1.03656     1.01212
 Zero-point vibrational energy     416394.9 (Joules/Mol)
                                   99.52077 (Kcal/Mol)
 Warning -- explicit consideration of   9 degrees of freedom as
           vibrations may cause significant error
 Vibrational temperatures:    118.84   171.02   250.95   318.33   362.90
          (Kelvin)            412.62   545.09   601.42   748.10   903.03
                             1117.07  1167.58  1220.77  1243.69  1287.11
                             1308.91  1391.85  1412.31  1454.92  1475.93
                             1481.14  1492.01  1554.58  1589.96  1596.23
                             1631.74  1652.92  1681.03  1700.43  1755.79
                             1798.89  1872.64  1884.50  1962.39  1990.69
                             2023.27  2094.82  2135.22  2145.49  2173.03
                             2207.66  4308.93  4329.22  4346.10  4367.39
                             4369.51  4403.17  4470.75  4489.13  4553.98
                             4586.42

 Zero-point correction=                           0.158596 (Hartree/Particle)
 Thermal correction to Energy=                    0.166790
 Thermal correction to Enthalpy=                  0.167734
 Thermal correction to Gibbs Free Energy=         0.125610
 Sum of electronic and zero-point Energies=           -422.954655
 Sum of electronic and thermal Energies=              -422.946462
 Sum of electronic and thermal Enthalpies=            -422.945518
 Sum of electronic and thermal Free Energies=         -422.987642

                     E (Thermal)             CV                S
                      KCal/Mol        Cal/Mol-Kelvin    Cal/Mol-Kelvin
 Total                  104.662             30.932             88.658
 Electronic               0.000              0.000              0.000
 Translational            0.889              2.981             40.409
 Rotational               0.889              2.981             28.593
 Vibrational            102.885             24.970             19.656
 Vibration     1          0.600              1.961              3.828
 Vibration     2          0.609              1.934              3.119
 Vibration     3          0.627              1.874              2.387
 Vibration     4          0.648              1.809              1.949
 Vibration     5          0.664              1.759              1.715
 Vibration     6          0.684              1.698              1.493
 Vibration     7          0.749              1.515              1.044
 Vibration     8          0.781              1.431              0.899
 Vibration     9          0.875              1.206              0.610

 Normal termination of Gaussian 09 at Tue Jan 28 03:44:35 2020.
