 Gaussian 09, Revision D.01,
 Gaussian 09:  ES64L-G09RevD.01 24-Apr-2013

 -----------------------------
 # b3lyp 6-31G(2df,p) opt Freq
 -----------------------------

 -----
 titel
 -----
 Symbolic Z-matrix:
 Charge =  0 Multiplicity = 1

 SCF Done:  E(RB3LYP) =  -423.190356398     A.U. after   14 cycles
 Optimization completed.
    -- Stationary point found.
 Normal termination of Gaussian 09 at Tue Jan 28 14:11:45 2020.

 ----------------------------------------------------------------------
 #N Geom=AllCheck Guess=TCheck SCRF=Check GenChk RB3LYP/6-31G(2df,p) Fr
 eq
 ----------------------------------------------------------------------

 Structure from the checkpoint file:  "/scratch/puck/g09_58e2190a-0363-4f10-9214-4e0adb566f99/Gau-33678.chk"
 -----
 titel
 -----
 Charge =  0 Multiplicity = 1

                         Standard orientation:
 ---------------------------------------------------------------------
 Center     Atomic      Atomic             Coordinates (Angstroms)
 Number     Number       Type             X           Y           Z
 ---------------------------------------------------------------------
      1          6           0        3.496927    0.106815   -0.108694
      2          6           0        2.060711    0.142257    0.417698
      3          6           0        1.047485   -0.434850   -0.584469
      4          6           0       -0.365058   -0.365178   -0.077386
      5          6           0       -1.039758   -1.423922    0.819208
      6          6           0       -1.671741   -1.017790   -0.459615
      7          8           0       -2.407604    0.220822   -0.246686
      8          6           0       -1.213767    0.881135    0.025910
      9          8           0       -1.054106    2.046048    0.196964
     10          1           0        3.594909    0.688578   -1.031837
     11          1           0        4.196490    0.523398    0.622048
     12          1           0        3.815677   -0.918517   -0.328416
     13          1           0        1.993703   -0.418993    1.358016
     14          1           0        1.772468    1.173173    0.652720
     15          1           0        1.120276    0.114564   -1.531799
     16          1           0        1.299712   -1.478796   -0.810788
     17          1           0       -0.520095   -2.378373    0.823178
     18          1           0       -1.511465   -1.147829    1.756946
     19          1           0       -1.956797   -1.622968   -1.308197
 ---------------------------------------------------------------------

 SCF Done:  E(RB3LYP) =  -423.190356398     A.U. after    1 cycles

 The electronic state is 1-A.
 Alpha  occ. eigenvalues --  -19.17692 -19.13743 -10.30952 -10.26365 -10.22285
 Alpha  occ. eigenvalues --  -10.21854 -10.20129 -10.18765 -10.17883  -1.10844
 Alpha  occ. eigenvalues --   -1.03676  -0.86894  -0.79255  -0.71190  -0.65905
 Alpha  occ. eigenvalues --   -0.63005  -0.59853  -0.52751  -0.51318  -0.50394
 Alpha  occ. eigenvalues --   -0.46622  -0.46130  -0.43246  -0.42317  -0.40901
 Alpha  occ. eigenvalues --   -0.40022  -0.38546  -0.36504  -0.35175  -0.34882
 Alpha  occ. eigenvalues --   -0.33740  -0.30149  -0.27514  -0.27190
 Alpha virt. eigenvalues --    0.00357   0.08085   0.09456   0.10412   0.10553
 Alpha virt. eigenvalues --    0.11839   0.12684   0.14206   0.15034   0.16485
 Alpha virt. eigenvalues --    0.16840   0.17757   0.19046   0.19209   0.21322

 Mulliken charges:
               1
     1  C   -0.386102
     2  C   -0.162538
     3  C   -0.312608
     4  C    0.131609
     5  C   -0.331438
     6  C    0.028469
     7  O   -0.267366
     8  C    0.440939
     9  O   -0.330517
    10  H    0.118928
    11  H    0.117324
    12  H    0.112222
    13  H    0.098803
    14  H    0.128409
    15  H    0.113257
    16  H    0.100364
    17  H    0.129477
    18  H    0.137967
    19  H    0.132801
 Sum of Mulliken charges =   0.00000

 Dipole moment (field-independent basis, Debye):
    X=              1.7060    Y=             -3.6926    Z=             -0.3685  Tot=              4.0843
 Quadrupole moment (field-independent basis, Debye-Ang):
   XX=            -57.0617   YY=            -56.4344   ZZ=            -51.1695
   XY=              4.6421   XZ=              0.2381   YZ=             -0.2051

  Exact polarizability:  84.069   3.262  79.162   0.541  -0.257  63.491
 Approx polarizability: 108.597   5.903 127.429   2.875   0.638  96.739

                      1                      2                      3
                      A                      A                      A
 Frequencies --     62.1336                88.5320               116.9032
 Red. masses --      3.2867                 1.8114                 4.1411
 Frc consts  --      0.0075                 0.0084                 0.0333
 IR Inten    --      1.8809                 0.5359                 0.6326

                      4                      5                      6
                      A                      A                      A
 Frequencies --    192.3496               239.8627               265.9639
 Red. masses --      3.9468                 1.2648                 2.2780
 Frc consts  --      0.0860                 0.0429                 0.0949
 IR Inten    --      0.5302                 0.3634                 1.2785

                      7                      8                      9
                      A                      A                      A
 Frequencies --    318.3003               357.9821               468.2707
 Red. masses --      2.9665                 3.8577                 2.4474
 Frc consts  --      0.1771                 0.2913                 0.3162
 IR Inten    --      0.4331                 0.4367                 2.2335

                     10                     11                     12
                      A                      A                      A
 Frequencies --    505.6868               679.6153               738.2649
 Red. masses --      4.0840                 6.5513                 2.5029
 Frc consts  --      0.6153                 1.7828                 0.8037
 IR Inten    --      3.3278                 3.5812                 1.5806

                     13                     14                     15
                      A                      A                      A
 Frequencies --    749.5347               787.0363               836.9877
 Red. masses --      1.3841                 5.2580                 2.5347
 Frc consts  --      0.4582                 1.9189                 1.0462
 IR Inten    --      7.8316                 6.9449                 3.7832

                     16                     17                     18
                      A                      A                      A
 Frequencies --    864.3969               898.6711               915.9205
 Red. masses --      1.9589                 2.0191                 2.0811
 Frc consts  --      0.8623                 0.9607                 1.0286
 IR Inten    --     11.6005                 4.1156                20.6220

                     19                     20                     21
                      A                      A                      A
 Frequencies --    930.2824               941.0292              1013.1001
 Red. masses --      2.3640                 1.6672                 1.6454
 Frc consts  --      1.2054                 0.8698                 0.9950
 IR Inten    --     14.0487                42.2910                25.1337

                     22                     23                     24
                      A                      A                      A
 Frequencies --   1036.5014              1049.5317              1067.3862
 Red. masses --      1.5828                 2.6732                 2.5390
 Frc consts  --      1.0019                 1.7349                 1.7043
 IR Inten    --     13.2859                 0.1565                68.3802

                     25                     26                     27
                      A                      A                      A
 Frequencies --   1083.5761              1120.7942              1142.3247
 Red. masses --      1.4386                 2.1376                 1.9828
 Frc consts  --      0.9952                 1.5820                 1.5244
 IR Inten    --      8.0053                 1.0221                 2.9385

                     28                     29                     30
                      A                      A                      A
 Frequencies --   1229.8956              1259.2006              1294.0870
 Red. masses --      1.9428                 1.7187                 1.6680
 Frc consts  --      1.7315                 1.6056                 1.6458
 IR Inten    --     10.8649                18.6533                 0.5066

                     31                     32                     33
                      A                      A                      A
 Frequencies --   1312.9449              1338.1419              1382.2608
 Red. masses --      1.3910                 1.1385                 1.6353
 Frc consts  --      1.4127                 1.2012                 1.8409
 IR Inten    --      1.7542                 0.7846                 2.9577

                     34                     35                     36
                      A                      A                      A
 Frequencies --   1408.1096              1414.0067              1480.8805
 Red. masses --      2.1591                 1.2557                 1.2126
 Frc consts  --      2.5222                 1.4792                 1.5668
 IR Inten    --      1.3736                 0.9528                 3.2723

                     37                     38                     39
                      A                      A                      A
 Frequencies --   1485.4937              1494.2983              1499.9843
 Red. masses --      1.2988                 1.0553                 1.0403
 Frc consts  --      1.6886                 1.3884                 1.3791
 IR Inten    --      3.2815                 0.3842                 5.6729

                     40                     41                     42
                      A                      A                      A
 Frequencies --   1510.6362              1934.1442              3016.8561
 Red. masses --      1.0877                12.8691                 1.0582
 Frc consts  --      1.4624                28.3647                 5.6746
 IR Inten    --      4.2984               385.5933                 9.2470

                     43                     44                     45
                      A                      A                      A
 Frequencies --   3029.1045              3032.8535              3049.9299
 Red. masses --      1.0435                 1.0565                 1.0981
 Frc consts  --      5.6409                 5.7256                 6.0181
 IR Inten    --     12.0307                48.4986                 8.5300

                     46                     47                     48
                      A                      A                      A
 Frequencies --   3072.7698              3099.0065              3106.4748
 Red. masses --      1.1020                 1.1026                 1.1007
 Frc consts  --      6.1305                 6.2390                 6.2583
 IR Inten    --      5.6690                50.6650                30.8722

                     49                     50                     51
                      A                      A                      A
 Frequencies --   3119.9611              3211.7536              3228.0379
 Red. masses --      1.0535                 1.1175                 1.0958
 Frc consts  --      6.0418                 6.7915                 6.7276
 IR Inten    --      8.4768                 2.8116                 4.2674

 - Thermochemistry -
 -------------------
 Temperature   298.150 Kelvin.  Pressure   1.00000 Atm.
 Atom     1 has atomic number  6 and mass  12.00000

 Molecular mass:   126.06808 amu.
 Principal axes and moments of inertia in atomic units:
                           1         2         3
     Eigenvalues --   584.868401709.801912073.34029
           X            0.99980   0.01936  -0.00429
           Y           -0.01939   0.99979  -0.00728
           Z            0.00415   0.00736   0.99996
 This molecule is an asymmetric top.
 Rotational symmetry number  1.
 Warning -- assumption of classical behavior for rotation
           may cause significant error
 Rotational temperatures (Kelvin)      0.14809     0.05066     0.04178
 Rotational constants (GHZ):           3.08572     1.05553     0.87045
 Zero-point vibrational energy     415593.3 (Joules/Mol)
                                   99.32918 (Kcal/Mol)
 Warning -- explicit consideration of  10 degrees of freedom as
           vibrations may cause significant error
 Vibrational temperatures:     89.40   127.38   168.20   276.75   345.11
          (Kelvin)            382.66   457.96   515.06   673.74   727.57
                              977.81  1062.20  1078.41  1132.37  1204.24
                             1243.67  1292.99  1317.80  1338.47  1353.93
                             1457.62  1491.29  1510.04  1535.73  1559.02
                             1612.57  1643.55  1769.54  1811.71  1861.90
                             1889.03  1925.29  1988.76  2025.95  2034.44
                             2130.65  2137.29  2149.96  2158.14  2173.47
                             2782.80  4340.58  4358.20  4363.59  4388.16
                             4421.02  4458.77  4469.52  4488.92  4620.99
                             4644.42

 Zero-point correction=                           0.158291 (Hartree/Particle)
 Thermal correction to Energy=                    0.167180
 Thermal correction to Enthalpy=                  0.168124
 Thermal correction to Gibbs Free Energy=         0.123984
 Sum of electronic and zero-point Energies=           -423.032065
 Sum of electronic and thermal Energies=              -423.023177
 Sum of electronic and thermal Enthalpies=            -423.022232
 Sum of electronic and thermal Free Energies=         -423.066373

                     E (Thermal)             CV                S
                      KCal/Mol        Cal/Mol-Kelvin    Cal/Mol-Kelvin
 Total                  104.907             32.647             92.901
 Electronic               0.000              0.000              0.000
 Translational            0.889              2.981             40.409
 Rotational               0.889              2.981             29.118
 Vibrational            103.129             26.685             23.374
 Vibration     1          0.597              1.972              4.388
 Vibration     2          0.601              1.957              3.692
 Vibration     3          0.608              1.935              3.151
 Vibration     4          0.634              1.850              2.205
 Vibration     5          0.657              1.779              1.804
 Vibration     6          0.672              1.735              1.622
 Vibration     7          0.705              1.639              1.319
 Vibration     8          0.733              1.559              1.131
 Vibration     9          0.825              1.320              0.742
 Vibration    10          0.861              1.237              0.644

 Optimization completed.
    -- Stationary point found.
 Normal termination of Gaussian 09 at Tue Jan 28 14:49:35 2020.
