 Gaussian 09, Revision D.01,
 Gaussian 09:  ES64L-G09RevD.01 24-Apr-2013

 -----------------------------
 # b3lyp 6-31G(2df,p) opt Freq
 -----------------------------

 -----
 titel
 -----
 Symbolic Z-matrix:
 Charge =  0 Multiplicity = 1

 SCF Done:  E(RB3LYP) =  -423.190535038     A.U. after   12 cycles
 Optimization completed.
    -- Stationary point found.
 Normal termination of Gaussian 09 at Mon Jan 27 18:59:57 2020.

 ----------------------------------------------------------------------
 #N Geom=AllCheck Guess=TCheck SCRF=Check GenChk RB3LYP/6-31G(2df,p) Fr
 eq
 ----------------------------------------------------------------------

 Structure from the checkpoint file:  "/scratch/puck/g09_c12b7efd-a8ca-431a-a1f0-71574812a86e/Gau-64665.chk"
 -----
 titel
 -----
 Charge =  0 Multiplicity = 1

                         Standard orientation:
 ---------------------------------------------------------------------
 Center     Atomic      Atomic             Coordinates (Angstroms)
 Number     Number       Type             X           Y           Z
 ---------------------------------------------------------------------
      1          8           0        2.433785   -0.029569   -0.091037
      2          6           0        1.039417    0.032048   -0.010754
      3          6           0        0.477635    1.445610   -0.017040
      4          8           0       -0.948632    1.484326    0.013318
      5          6           0       -1.572767    0.200887    0.006608
      6          6           0       -1.089825   -0.620818    1.219461
      7          6           0        0.302295   -1.034543    0.764681
      8          6           0        0.299779   -1.031355   -0.765959
      9          6           0       -1.093169   -0.612681   -1.212621
     10          1           0        2.793539    0.240552    0.761705
     11          1           0        0.860818    1.998552    0.855459
     12          1           0        0.835933    1.969748   -0.914238
     13          1           0       -2.645098    0.403192    0.009173
     14          1           0       -1.106419   -0.013877    2.130004
     15          1           0       -1.726208   -1.499081    1.380809
     16          1           0        0.883867   -1.766245    1.313610
     17          1           0        0.881880   -1.754277   -1.324195
     18          1           0       -1.109563   -0.001905   -2.120330
     19          1           0       -1.730163   -1.489599   -1.376509
 ---------------------------------------------------------------------

 SCF Done:  E(RB3LYP) =  -423.190535038     A.U. after    1 cycles

 The electronic state is 1-A.
 Alpha  occ. eigenvalues --  -19.14733 -19.13210 -10.23694 -10.23033 -10.22444
 Alpha  occ. eigenvalues --  -10.18666 -10.18609 -10.18187 -10.18108  -1.03834
 Alpha  occ. eigenvalues --   -1.02240  -0.87246  -0.76804  -0.71352  -0.67902
 Alpha  occ. eigenvalues --   -0.61546  -0.56103  -0.53981  -0.52067  -0.48588
 Alpha  occ. eigenvalues --   -0.47075  -0.45731  -0.42249  -0.41575  -0.39723
 Alpha  occ. eigenvalues --   -0.38862  -0.36825  -0.36276  -0.35348  -0.32008
 Alpha  occ. eigenvalues --   -0.30036  -0.27403  -0.25220  -0.23264
 Alpha virt. eigenvalues --    0.07067   0.08478   0.11845   0.13615   0.13940
 Alpha virt. eigenvalues --    0.14864   0.15540   0.15870   0.16340   0.17602
 Alpha virt. eigenvalues --    0.18104   0.19369   0.19562   0.21206   0.21523

 Mulliken charges:
               1
     1  O   -0.475082
     2  C    0.371368
     3  C   -0.135903
     4  O   -0.278684
     5  C    0.092656
     6  C   -0.237094
     7  C   -0.136754
     8  C   -0.096396
     9  C   -0.239110
    10  H    0.281807
    11  H    0.086229
    12  H    0.107056
    13  H    0.078867
    14  H    0.102186
    15  H    0.098608
    16  H    0.082265
    17  H    0.091703
    18  H    0.106979
    19  H    0.099299
 Sum of Mulliken charges =   0.00000

 Dipole moment (field-independent basis, Debye):
    X=              0.0456    Y=             -0.9766    Z=              1.1288  Tot=              1.4933
 Quadrupole moment (field-independent basis, Debye-Ang):
   XX=            -52.5805   YY=            -54.6545   ZZ=            -51.2049
   XY=              3.6606   XZ=              4.0570   YZ=              0.3865

  Exact polarizability:  79.200   4.527  70.973   1.527   0.441  70.608
 Approx polarizability: 111.419   5.658 104.880   1.393   0.948 106.943

                      1                      2                      3
                      A                      A                      A
 Frequencies --    150.4650               260.1225               321.6111
 Red. masses --      2.4107                 2.3254                 1.4460
 Frc consts  --      0.0322                 0.0927                 0.0881
 IR Inten    --      5.8920                18.2409                35.6656

                      4                      5                      6
                      A                      A                      A
 Frequencies --    349.5831               367.3157               420.0033
 Red. masses --      2.5828                 2.4977                 3.0212
 Frc consts  --      0.1860                 0.1985                 0.3140
 IR Inten    --     30.1063                16.0410                 5.8086

                      7                      8                      9
                      A                      A                      A
 Frequencies --    460.6645               471.1411               549.1671
 Red. masses --      1.9895                 5.7143                 5.3145
 Frc consts  --      0.2487                 0.7473                 0.9443
 IR Inten    --      3.1499                 2.0599                 0.8293

                     10                     11                     12
                      A                      A                      A
 Frequencies --    647.9378               704.9978               802.8566
 Red. masses --      4.3702                 3.8525                 3.3344
 Frc consts  --      1.0810                 1.1282                 1.2663
 IR Inten    --      0.0782                 1.1248                 4.5197

                     13                     14                     15
                      A                      A                      A
 Frequencies --    841.7109               855.2257               877.1192
 Red. masses --      1.9392                 2.3715                 2.5952
 Frc consts  --      0.8095                 1.0220                 1.1764
 IR Inten    --      0.5683                10.6040                10.0730

                     16                     17                     18
                      A                      A                      A
 Frequencies --    915.4413               926.0037               962.5361
 Red. masses --      2.0893                 2.4937                 1.7721
 Frc consts  --      1.0316                 1.2599                 0.9673
 IR Inten    --      9.4924                21.0508                 3.1603

                     19                     20                     21
                      A                      A                      A
 Frequencies --    999.8117              1021.4935              1026.3079
 Red. masses --      2.3086                 1.2047                 1.6753
 Frc consts  --      1.3597                 0.7407                 1.0397
 IR Inten    --      0.1263                 2.1244                 1.4328

                     22                     23                     24
                      A                      A                      A
 Frequencies --   1061.7172              1068.8209              1088.9751
 Red. masses --      2.6176                 1.7299                 1.4824
 Frc consts  --      1.7385                 1.1643                 1.0357
 IR Inten    --     42.9566                 4.7828                 4.2629

                     25                     26                     27
                      A                      A                      A
 Frequencies --   1115.9636              1169.5194              1182.0711
 Red. masses --      3.4185                 1.3189                 2.6837
 Frc consts  --      2.5083                 1.0629                 2.2094
 IR Inten    --     71.7486                 1.6893                81.9820

                     28                     29                     30
                      A                      A                      A
 Frequencies --   1217.5607              1219.6201              1227.7085
 Red. masses --      1.4367                 1.6978                 1.2160
 Frc consts  --      1.2549                 1.4880                 1.0798
 IR Inten    --     18.3101                 8.1812                 2.1710

                     31                     32                     33
                      A                      A                      A
 Frequencies --   1288.7155              1298.8748              1304.3839
 Red. masses --      2.1322                 1.5983                 1.7273
 Frc consts  --      2.0864                 1.5887                 1.7315
 IR Inten    --      8.7141                22.8804                12.6675

                     34                     35                     36
                      A                      A                      A
 Frequencies --   1332.7545              1347.8093              1359.9138
 Red. masses --      1.5737                 1.5306                 1.3283
 Frc consts  --      1.6470                 1.6382                 1.4474
 IR Inten    --     14.0275                13.3931                10.0151

                     37                     38                     39
                      A                      A                      A
 Frequencies --   1405.7103              1460.4552              1477.8803
 Red. masses --      1.7075                 2.3523                 1.1079
 Frc consts  --      1.9880                 2.9561                 1.4256
 IR Inten    --      4.7672                 1.9292                 2.8032

                     40                     41                     42
                      A                      A                      A
 Frequencies --   1493.7596              1527.5338              2972.5472
 Red. masses --      1.1398                 1.1046                 1.0654
 Frc consts  --      1.4984                 1.5186                 5.5467
 IR Inten    --      0.9834                 1.8320                91.2456

                     43                     44                     45
                      A                      A                      A
 Frequencies --   3014.5522              3033.0177              3039.7632
 Red. masses --      1.0973                 1.0612                 1.0611
 Frc consts  --      5.8750                 5.7518                 5.7767
 IR Inten    --     44.3582                35.8109                32.2089

                     46                     47                     48
                      A                      A                      A
 Frequencies --   3083.8017              3088.5387              3103.1064
 Red. masses --      1.1024                 1.1036                 1.0889
 Frc consts  --      6.1769                 6.2022                 6.1777
 IR Inten    --     22.0717                24.9357                44.3516

                     49                     50                     51
                      A                      A                      A
 Frequencies --   3177.1665              3192.0603              3786.8159
 Red. masses --      1.0900                 1.0924                 1.0660
 Frc consts  --      6.4829                 6.5579                 9.0065
 IR Inten    --     10.5402                10.1548                14.9583

 - Thermochemistry -
 -------------------
 Temperature   298.150 Kelvin.  Pressure   1.00000 Atm.
 Atom     1 has atomic number  8 and mass  15.99491

 Molecular mass:   126.06808 amu.
 Principal axes and moments of inertia in atomic units:
                           1         2         3
     Eigenvalues --   651.518611000.751271164.74226
           X            0.99857   0.05145   0.01427
           Y           -0.05149   0.99867   0.00248
           Z           -0.01412  -0.00321   0.99990
 This molecule is an asymmetric top.
 Rotational symmetry number  1.
 Warning -- assumption of classical behavior for rotation
           may cause significant error
 Rotational temperatures (Kelvin)      0.13294     0.08655     0.07436
 Rotational constants (GHZ):           2.77005     1.80339     1.54948
 Zero-point vibrational energy     425108.7 (Joules/Mol)
                                  101.60343 (Kcal/Mol)
 Warning -- explicit consideration of   9 degrees of freedom as
           vibrations may cause significant error
 Vibrational temperatures:    216.49   374.26   462.73   502.97   528.48
          (Kelvin)            604.29   662.79   677.87   790.13   932.24
                             1014.33  1155.13  1211.03  1230.48  1261.98
                             1317.11  1332.31  1384.87  1438.50  1469.70
                             1476.63  1527.57  1537.79  1566.79  1605.62
                             1682.68  1700.73  1751.80  1754.76  1766.40
                             1854.17  1868.79  1876.72  1917.53  1939.19
                             1956.61  2022.50  2101.27  2126.34  2149.18
                             2197.78  4276.83  4337.26  4363.83  4373.54
                             4436.90  4443.71  4464.67  4571.23  4592.66
                             5448.38

 Zero-point correction=                           0.161915 (Hartree/Particle)
 Thermal correction to Energy=                    0.168982
 Thermal correction to Enthalpy=                  0.169926
 Thermal correction to Gibbs Free Energy=         0.130943
 Sum of electronic and zero-point Energies=           -423.028620
 Sum of electronic and thermal Energies=              -423.021553
 Sum of electronic and thermal Enthalpies=            -423.020609
 Sum of electronic and thermal Free Energies=         -423.059592

                     E (Thermal)             CV                S
                      KCal/Mol        Cal/Mol-Kelvin    Cal/Mol-Kelvin
 Total                  106.038             29.540             82.047
 Electronic               0.000              0.000              0.000
 Translational            0.889              2.981             40.409
 Rotational               0.889              2.981             28.120
 Vibrational            104.260             23.579             13.519
 Vibration     1          0.618              1.902              2.666
 Vibration     2          0.668              1.746              1.661
 Vibration     3          0.707              1.632              1.302
 Vibration     4          0.727              1.576              1.168
 Vibration     5          0.740              1.539              1.091
 Vibration     6          0.783              1.427              0.892
 Vibration     7          0.818              1.337              0.764
 Vibration     8          0.828              1.314              0.734
 Vibration     9          0.904              1.142              0.546

 Optimization completed.
    -- Stationary point found.
 Normal termination of Gaussian 09 at Mon Jan 27 19:46:18 2020.
