 Gaussian 09, Revision D.01,
 Gaussian 09:  ES64L-G09RevD.01 24-Apr-2013

 -----------------------------
 # b3lyp 6-31G(2df,p) opt Freq
 -----------------------------

 -----
 titel
 -----
 Symbolic Z-matrix:
 Charge =  0 Multiplicity = 1

 SCF Done:  E(RB3LYP) =  -423.166874594     A.U. after   14 cycles
 Optimization completed.
    -- Stationary point found.
 Normal termination of Gaussian 09 at Mon Jan 27 22:55:53 2020.

 ----------------------------------------------------------------------
 #N Geom=AllCheck Guess=TCheck SCRF=Check GenChk RB3LYP/6-31G(2df,p) Fr
 eq
 ----------------------------------------------------------------------

 Structure from the checkpoint file:  "/scratch/puck/g09_f4cc7fcc-798a-45a8-b68b-9724d7a46054/Gau-65112.chk"
 -----
 titel
 -----
 Charge =  0 Multiplicity = 1

                         Standard orientation:
 ---------------------------------------------------------------------
 Center     Atomic      Atomic             Coordinates (Angstroms)
 Number     Number       Type             X           Y           Z
 ---------------------------------------------------------------------
      1          6           0        1.872361   -1.644331   -0.374004
      2          6           0        1.219526   -0.267723   -0.420143
      3          6           0        1.480229    0.616810    0.843335
      4          6           0       -0.022702    0.687317    1.129948
      5          6           0       -0.773759    1.218745   -0.016153
      6          8           0       -0.205975    2.224327   -0.794495
      7          6           0       -0.293213   -0.229195   -0.121789
      8          6           0       -1.278390   -1.311775   -0.209707
      9          8           0       -2.415897   -1.236746    0.206923
     10          1           0        1.574981   -2.265923   -1.225261
     11          1           0        2.962846   -1.546675   -0.401791
     12          1           0        1.607568   -2.183552    0.542876
     13          1           0        1.479489    0.234656   -1.357338
     14          1           0        2.021264    0.065697    1.615699
     15          1           0        1.970544    1.577975    0.674805
     16          1           0       -0.489106    0.573321    2.101497
     17          1           0       -1.851735    1.276913    0.126989
     18          1           0       -0.609303    2.191915   -1.668502
     19          1           0       -0.915877   -2.244057   -0.697328
 ---------------------------------------------------------------------

 SCF Done:  E(RB3LYP) =  -423.166874594     A.U. after    1 cycles

 The electronic state is 1-A.
 Alpha  occ. eigenvalues --  -19.15755 -19.12514 -10.26262 -10.24972 -10.20930
 Alpha  occ. eigenvalues --  -10.20094 -10.20067 -10.19111 -10.18410  -1.04464
 Alpha  occ. eigenvalues --   -1.03129  -0.89903  -0.76844  -0.70906  -0.66703
 Alpha  occ. eigenvalues --   -0.61122  -0.58212  -0.53985  -0.52098  -0.48901
 Alpha  occ. eigenvalues --   -0.47708  -0.44468  -0.42476  -0.41472  -0.40190
 Alpha  occ. eigenvalues --   -0.39394  -0.38395  -0.36268  -0.33953  -0.33524
 Alpha  occ. eigenvalues --   -0.31692  -0.28986  -0.25400  -0.24196
 Alpha virt. eigenvalues --   -0.02468   0.06487   0.09258   0.10972   0.11449
 Alpha virt. eigenvalues --    0.12727   0.14559   0.14821   0.15503   0.16600
 Alpha virt. eigenvalues --    0.17625   0.18037   0.19237   0.20892   0.24021

 Mulliken charges:
               1
     1  C   -0.418310
     2  C   -0.042081
     3  C   -0.242822
     4  C   -0.122343
     5  C    0.067962
     6  O   -0.413423
     7  C    0.169387
     8  C    0.042714
     9  O   -0.286536
    10  H    0.119084
    11  H    0.120243
    12  H    0.117818
    13  H    0.072503
    14  H    0.105504
    15  H    0.117915
    16  H    0.111335
    17  H    0.120606
    18  H    0.292535
    19  H    0.067910
 Sum of Mulliken charges =   0.00000

 Dipole moment (field-independent basis, Debye):
    X=              2.0413    Y=              0.2673    Z=             -1.0887  Tot=              2.3289
 Quadrupole moment (field-independent basis, Debye-Ang):
   XX=            -59.6128   YY=            -55.9185   ZZ=            -48.4263
   XY=             -5.7778   XZ=              2.6904   YZ=             -0.9043

  Exact polarizability:  83.827   1.949  81.894  -0.088   3.215  66.784
 Approx polarizability: 123.665   8.502 119.122  -1.296   4.966 105.056

                      1                      2                      3
                      A                      A                      A
 Frequencies --    106.1355               127.6013               180.0066
 Red. masses --      3.8032                 2.8061                 3.9998
 Frc consts  --      0.0252                 0.0269                 0.0764
 IR Inten    --      9.2715                 3.0534                 2.7444

                      4                      5                      6
                      A                      A                      A
 Frequencies --    208.9857               218.5895               263.6144
 Red. masses --      2.7291                 3.3252                 1.0950
 Frc consts  --      0.0702                 0.0936                 0.0448
 IR Inten    --      5.2998                 1.6446                 0.2906

                      7                      8                      9
                      A                      A                      A
 Frequencies --    294.7818               336.9200               375.0991
 Red. masses --      2.1396                 1.3653                 2.4783
 Frc consts  --      0.1095                 0.0913                 0.2054
 IR Inten    --     24.3563                96.4403                 3.3326

                     10                     11                     12
                      A                      A                      A
 Frequencies --    493.3548               524.7377               596.1431
 Red. masses --      4.3705                 2.5805                 5.6700
 Frc consts  --      0.6268                 0.4186                 1.1872
 IR Inten    --      2.9487                 6.9008                21.0703

                     13                     14                     15
                      A                      A                      A
 Frequencies --    672.9403               738.0150               769.5972
 Red. masses --      3.3947                 3.1050                 4.0361
 Frc consts  --      0.9057                 0.9964                 1.4084
 IR Inten    --      7.1540                10.8127                 6.1480

                     16                     17                     18
                      A                      A                      A
 Frequencies --    859.6717               884.2891               913.4288
 Red. masses --      2.5974                 2.2690                 1.6147
 Frc consts  --      1.1310                 1.0454                 0.7937
 IR Inten    --      2.2360                15.5135                28.2151

                     19                     20                     21
                      A                      A                      A
 Frequencies --    945.3796              1008.5923              1027.3533
 Red. masses --      1.7302                 1.5731                 1.6176
 Frc consts  --      0.9111                 0.9429                 1.0059
 IR Inten    --     12.7693                18.0936                 1.9823

                     22                     23                     24
                      A                      A                      A
 Frequencies --   1032.6360              1075.6630              1094.1055
 Red. masses --      1.4650                 1.7439                 1.6872
 Frc consts  --      0.9204                 1.1888                 1.1900
 IR Inten    --      1.4548                 0.8404                 6.3781

                     25                     26                     27
                      A                      A                      A
 Frequencies --   1128.2039              1150.1959              1195.6232
 Red. masses --      2.1712                 2.7812                 1.6948
 Frc consts  --      1.6283                 2.1678                 1.4274
 IR Inten    --     20.2254                36.4969                37.5284

                     28                     29                     30
                      A                      A                      A
 Frequencies --   1228.7288              1247.0848              1262.1228
 Red. masses --      1.8045                 1.4917                 1.4535
 Frc consts  --      1.6052                 1.3668                 1.3642
 IR Inten    --     33.7994                14.5438                16.6717

                     31                     32                     33
                      A                      A                      A
 Frequencies --   1281.0288              1303.2360              1337.3654
 Red. masses --      1.4503                 1.8170                 1.5732
 Frc consts  --      1.4023                 1.8183                 1.6578
 IR Inten    --     81.4855                74.5862                 3.6884

                     34                     35                     36
                      A                      A                      A
 Frequencies --   1359.9786              1410.7248              1436.9889
 Red. masses --      1.5406                 1.2493                 1.3472
 Frc consts  --      1.6788                 1.4649                 1.6391
 IR Inten    --      5.9866                 3.5527                 8.0358

                     37                     38                     39
                      A                      A                      A
 Frequencies --   1468.3124              1493.4384              1494.5811
 Red. masses --      1.4581                 1.1531                 1.3632
 Frc consts  --      1.8522                 1.5153                 1.7941
 IR Inten    --      9.1104                10.8881                10.8123

                     40                     41                     42
                      A                      A                      A
 Frequencies --   1500.8441              1777.6667              2877.6756
 Red. masses --      1.0512                 9.8657                 1.0811
 Frc consts  --      1.3951                18.3687                 5.2748
 IR Inten    --      2.9835               208.6316               118.4594

                     43                     44                     45
                      A                      A                      A
 Frequencies --   3025.5391              3047.8789              3068.1383
 Red. masses --      1.0354                 1.0845                 1.0580
 Frc consts  --      5.5843                 5.9356                 5.8679
 IR Inten    --     23.3151                18.8571                30.8576

                     46                     47                     48
                      A                      A                      A
 Frequencies --   3094.0251              3096.9185              3122.2555
 Red. masses --      1.1008                 1.1013                 1.1084
 Frc consts  --      6.2088                 6.2230                 6.3665
 IR Inten    --     32.8653                26.8102                19.0970

                     49                     50                     51
                      A                      A                      A
 Frequencies --   3130.3391              3185.5344              3810.2455
 Red. masses --      1.0872                 1.0926                 1.0661
 Frc consts  --      6.2767                 6.5324                 9.1194
 IR Inten    --      6.5540                10.3019                32.0542

 - Thermochemistry -
 -------------------
 Temperature   298.150 Kelvin.  Pressure   1.00000 Atm.
 Atom     1 has atomic number  6 and mass  12.00000

 Molecular mass:   126.06808 amu.
 Principal axes and moments of inertia in atomic units:
                           1         2         3
     Eigenvalues --   939.826461050.622871606.28173
           X            0.93848  -0.34533   0.00308
           Y            0.34526   0.93840   0.01435
           Z           -0.00784  -0.01240   0.99989
 This molecule is an asymmetric top.
 Rotational symmetry number  1.
 Warning -- assumption of classical behavior for rotation
           may cause significant error
 Rotational temperatures (Kelvin)      0.09216     0.08244     0.05392
 Rotational constants (GHZ):           1.92029     1.71778     1.12355
 Zero-point vibrational energy     414400.3 (Joules/Mol)
                                   99.04404 (Kcal/Mol)
 Warning -- explicit consideration of  12 degrees of freedom as
           vibrations may cause significant error
 Vibrational temperatures:    152.71   183.59   258.99   300.68   314.50
          (Kelvin)            379.28   424.12   484.75   539.68   709.83
                              754.98   857.72   968.21  1061.84  1107.28
                             1236.87  1272.29  1314.22  1360.19  1451.14
                             1478.13  1485.73  1547.64  1574.17  1623.23
                             1654.87  1720.23  1767.86  1794.27  1815.91
                             1843.11  1875.06  1924.17  1956.70  2029.72
                             2067.50  2112.57  2148.72  2150.37  2159.38
                             2557.66  4140.33  4353.07  4385.21  4414.36
                             4451.61  4455.77  4492.22  4503.85  4583.27
                             5482.09

 Zero-point correction=                           0.157837 (Hartree/Particle)
 Thermal correction to Energy=                    0.166809
 Thermal correction to Enthalpy=                  0.167753
 Thermal correction to Gibbs Free Energy=         0.124394
 Sum of electronic and zero-point Energies=           -423.009038
 Sum of electronic and thermal Energies=              -423.000065
 Sum of electronic and thermal Enthalpies=            -422.999121
 Sum of electronic and thermal Free Energies=         -423.042481

                     E (Thermal)             CV                S
                      KCal/Mol        Cal/Mol-Kelvin    Cal/Mol-Kelvin
 Total                  104.674             33.702             91.258
 Electronic               0.000              0.000              0.000
 Translational            0.889              2.981             40.409
 Rotational               0.889              2.981             28.852
 Vibrational            102.897             27.741             21.997
 Vibration     1          0.605              1.944              3.338
 Vibration     2          0.611              1.926              2.982
 Vibration     3          0.629              1.867              2.328
 Vibration     4          0.642              1.827              2.053
 Vibration     5          0.646              1.813              1.971
 Vibration     6          0.670              1.740              1.638
 Vibration     7          0.689              1.683              1.446
 Vibration     8          0.718              1.602              1.227
 Vibration     9          0.746              1.523              1.059
 Vibration    10          0.849              1.265              0.675
 Vibration    11          0.880              1.195              0.599
 Vibration    12          0.954              1.040              0.456

 Optimization completed.
    -- Stationary point found.
 Normal termination of Gaussian 09 at Mon Jan 27 23:38:38 2020.
