 Gaussian 09, Revision D.01,
 Gaussian 09:  ES64L-G09RevD.01 24-Apr-2013

 -----------------------------
 # b3lyp 6-31G(2df,p) opt Freq
 -----------------------------

 -----
 titel
 -----
 Symbolic Z-matrix:
 Charge =  0 Multiplicity = 1

 SCF Done:  E(RB3LYP) =  -423.090279038     A.U. after   14 cycles
 Optimization completed.
    -- Stationary point found.
 Normal termination of Gaussian 09 at Tue Jan 28 08:24:05 2020.

 ----------------------------------------------------------------------
 #N Geom=AllCheck Guess=TCheck SCRF=Check GenChk RB3LYP/6-31G(2df,p) Fr
 eq
 ----------------------------------------------------------------------

 Structure from the checkpoint file:  "/scratch/puck/g09_22491a28-ff05-4eec-882b-03e6eca45e00/Gau-81457.chk"
 -----
 titel
 -----
 Charge =  0 Multiplicity = 1

                         Standard orientation:
 ---------------------------------------------------------------------
 Center     Atomic      Atomic             Coordinates (Angstroms)
 Number     Number       Type             X           Y           Z
 ---------------------------------------------------------------------
      1          6           0        2.320962   -1.241457    0.324332
      2          6           0        1.274524   -0.712183   -0.666068
      3          6           0        0.553745    0.521431   -0.149688
      4          8           0        1.419955    1.638867   -0.063001
      5          6           0       -0.516174    0.621510    0.933291
      6          6           0       -1.703024   -0.381377    0.830675
      7          8           0       -1.495532   -1.306653   -0.246840
      8          6           0       -1.968996    0.015081   -0.548582
      9          6           0       -0.805204    1.050407   -0.517728
     10          1           0        3.108584   -0.506835    0.530651
     11          1           0        1.857005   -1.517585    1.277202
     12          1           0        2.816250   -2.130369   -0.076766
     13          1           0        1.767090   -0.421593   -1.602222
     14          1           0        0.555780   -1.494826   -0.892815
     15          1           0        2.094029    1.431751    0.593079
     16          1           0       -0.373165    1.276619    1.782977
     17          1           0       -2.358417   -0.693994    1.635007
     18          1           0       -2.887420    0.097093   -1.117260
     19          1           0       -0.910122    2.061555   -0.888527
 ---------------------------------------------------------------------

 SCF Done:  E(RB3LYP) =  -423.090279038     A.U. after    1 cycles

 The electronic state is 1-A.
 Alpha  occ. eigenvalues --  -19.15550 -19.14048 -10.24763 -10.24234 -10.24199
 Alpha  occ. eigenvalues --  -10.19332 -10.19268 -10.17468 -10.17102  -1.08083
 Alpha  occ. eigenvalues --   -1.02793  -0.85738  -0.76170  -0.68615  -0.65428
 Alpha  occ. eigenvalues --   -0.62532  -0.56495  -0.54758  -0.53036  -0.48679
 Alpha  occ. eigenvalues --   -0.46498  -0.45157  -0.43323  -0.40460  -0.38707
 Alpha  occ. eigenvalues --   -0.38226  -0.36537  -0.35454  -0.34327  -0.33878
 Alpha  occ. eigenvalues --   -0.29815  -0.26514  -0.26138  -0.22816
 Alpha virt. eigenvalues --    0.05117   0.07105   0.09737   0.11054   0.12858
 Alpha virt. eigenvalues --    0.14309   0.14589   0.15427   0.15889   0.17206
 Alpha virt. eigenvalues --    0.17857   0.18862   0.19265   0.21311   0.22394

 Mulliken charges:
               1
     1  C   -0.392194
     2  C   -0.261455
     3  C    0.418303
     4  O   -0.473853
     5  C   -0.179493
     6  C    0.005392
     7  O   -0.245543
     8  C    0.005166
     9  C   -0.160809
    10  H    0.100787
    11  H    0.120372
    12  H    0.118574
    13  H    0.099410
    14  H    0.138589
    15  H    0.283840
    16  H    0.093988
    17  H    0.111595
    18  H    0.113079
    19  H    0.104254
 Sum of Mulliken charges =   0.00000

 Dipole moment (field-independent basis, Debye):
    X=             -0.3077    Y=              0.4567    Z=              1.2515  Tot=              1.3673
 Quadrupole moment (field-independent basis, Debye-Ang):
   XX=            -48.1381   YY=            -57.5415   ZZ=            -50.8083
   XY=             -2.7168   XZ=              1.3727   YZ=              0.5413

  Exact polarizability:  84.815  -0.097  69.319   1.172  -1.549  68.972
 Approx polarizability: 111.066   2.833 106.732   2.786  -3.323 112.754

                      1                      2                      3
                      A                      A                      A
 Frequencies --     65.2804               143.3252               216.4216
 Red. masses --      2.3705                 3.4133                 1.1998
 Frc consts  --      0.0060                 0.0413                 0.0331
 IR Inten    --      0.1374                 2.1293                 6.3646

                      4                      5                      6
                      A                      A                      A
 Frequencies --    255.5859               286.6615               290.8605
 Red. masses --      1.4013                 3.6581                 2.0147
 Frc consts  --      0.0539                 0.1771                 0.1004
 IR Inten    --     67.7102                13.3482                22.1465

                      7                      8                      9
                      A                      A                      A
 Frequencies --    363.8402               383.2298               426.6257
 Red. masses --      4.5161                 3.2642                 3.8529
 Frc consts  --      0.3522                 0.2825                 0.4132
 IR Inten    --      1.9167                 9.9675                 5.6844

                     10                     11                     12
                      A                      A                      A
 Frequencies --    536.7264               626.7738               672.3554
 Red. masses --      2.9090                 2.9274                 4.4231
 Frc consts  --      0.4937                 0.6776                 1.1781
 IR Inten    --      6.3816                 8.1770                 4.9187

                     13                     14                     15
                      A                      A                      A
 Frequencies --    758.3867               763.9021               791.3124
 Red. masses --      2.8071                 6.4717                 1.2958
 Frc consts  --      0.9512                 2.2251                 0.4780
 IR Inten    --      1.4695                 0.1253                 8.3697

                     16                     17                     18
                      A                      A                      A
 Frequencies --    800.2986               848.3653               887.7020
 Red. masses --      1.5361                 1.3838                 3.4783
 Frc consts  --      0.5797                 0.5868                 1.6149
 IR Inten    --      7.4004                41.9487                17.6495

                     19                     20                     21
                      A                      A                      A
 Frequencies --    911.6363               933.2449               952.8892
 Red. masses --      2.5478                 2.0935                 2.4765
 Frc consts  --      1.2475                 1.0743                 1.3249
 IR Inten    --      1.3044                12.4229                 3.0584

                     22                     23                     24
                      A                      A                      A
 Frequencies --    994.8646              1007.0402              1031.0461
 Red. masses --      2.2052                 2.2922                 2.3057
 Frc consts  --      1.2859                 1.3696                 1.4441
 IR Inten    --     11.9185                21.9111                14.8278

                     25                     26                     27
                      A                      A                      A
 Frequencies --   1039.7653              1046.8459              1089.8125
 Red. masses --      1.9590                 1.2703                 1.8319
 Frc consts  --      1.2478                 0.8202                 1.2819
 IR Inten    --     11.0020                 0.5419                12.1316

                     28                     29                     30
                      A                      A                      A
 Frequencies --   1151.0129              1210.5725              1225.0741
 Red. masses --      1.8613                 1.4358                 1.6622
 Frc consts  --      1.4529                 1.2397                 1.4698
 IR Inten    --     32.3651                10.1380                 8.3440

                     31                     32                     33
                      A                      A                      A
 Frequencies --   1243.0979              1268.8175              1283.6465
 Red. masses --      1.3031                 1.6602                 2.0354
 Frc consts  --      1.1864                 1.5747                 1.9761
 IR Inten    --     17.2627                24.0112                18.2227

                     34                     35                     36
                      A                      A                      A
 Frequencies --   1309.1880              1344.3824              1388.4568
 Red. masses --      1.2722                 1.6545                 2.6017
 Frc consts  --      1.2847                 1.7618                 2.9551
 IR Inten    --     33.0021                15.8832                 4.8703

                     37                     38                     39
                      A                      A                      A
 Frequencies --   1408.3908              1441.7074              1482.1975
 Red. masses --      1.2414                 3.2276                 1.0752
 Frc consts  --      1.4508                 3.9527                 1.3917
 IR Inten    --      2.1162                33.9376                 4.7897

                     40                     41                     42
                      A                      A                      A
 Frequencies --   1501.1754              1508.8982              3026.8313
 Red. masses --      1.0637                 1.0463                 1.0382
 Frc consts  --      1.4124                 1.4035                 5.6041
 IR Inten    --      6.9275                 4.4933                28.0584

                     43                     44                     45
                      A                      A                      A
 Frequencies --   3038.5496              3086.5480              3109.2684
 Red. masses --      1.0727                 1.0969                 1.1008
 Frc consts  --      5.8354                 6.1567                 6.2702
 IR Inten    --     23.5591                31.4192                28.8537

                     46                     47                     48
                      A                      A                      A
 Frequencies --   3175.6402              3179.3024              3193.7660
 Red. masses --      1.0898                 1.0866                 1.0979
 Frc consts  --      6.4751                 6.4713                 6.5979
 IR Inten    --      3.6895                 9.4865                24.9372

                     49                     50                     51
                      A                      A                      A
 Frequencies --   3197.1559              3207.8996              3806.9300
 Red. masses --      1.0909                 1.0978                 1.0658
 Frc consts  --      6.5698                 6.6562                 9.1004
 IR Inten    --     11.8059                 5.6812                18.6614

 - Thermochemistry -
 -------------------
 Temperature   298.150 Kelvin.  Pressure   1.00000 Atm.
 Atom     1 has atomic number  6 and mass  12.00000

 Molecular mass:   126.06808 amu.
 Principal axes and moments of inertia in atomic units:
                           1         2         3
     Eigenvalues --   650.698221212.964891527.51699
           X            0.99798  -0.06333   0.00525
           Y            0.06333   0.99799  -0.00059
           Z           -0.00520   0.00093   0.99999
 This molecule is an asymmetric top.
 Rotational symmetry number  1.
 Warning -- assumption of classical behavior for rotation
           may cause significant error
 Rotational temperatures (Kelvin)      0.13311     0.07141     0.05670
 Rotational constants (GHZ):           2.77355     1.48788     1.18149
 Zero-point vibrational energy     412193.1 (Joules/Mol)
                                   98.51652 (Kcal/Mol)
 Warning -- explicit consideration of  10 degrees of freedom as
           vibrations may cause significant error
 Vibrational temperatures:     93.92   206.21   311.38   367.73   412.44
          (Kelvin)            418.48   523.48   551.38   613.82   772.23
                              901.79   967.37  1091.15  1099.08  1138.52
                             1151.45  1220.61  1277.20  1311.64  1342.73
                             1370.99  1431.39  1448.90  1483.44  1495.99
                             1506.18  1568.00  1656.05  1741.74  1762.61
                             1788.54  1825.54  1846.88  1883.63  1934.26
                             1997.68  2026.36  2074.29  2132.55  2159.85
                             2170.97  4354.93  4371.79  4440.85  4473.54
                             4569.03  4574.30  4595.11  4599.99  4615.45
                             5477.32

 Zero-point correction=                           0.156996 (Hartree/Particle)
 Thermal correction to Energy=                    0.165541
 Thermal correction to Enthalpy=                  0.166486
 Thermal correction to Gibbs Free Energy=         0.123989
 Sum of electronic and zero-point Energies=           -422.933283
 Sum of electronic and thermal Energies=              -422.924738
 Sum of electronic and thermal Enthalpies=            -422.923793
 Sum of electronic and thermal Free Energies=         -422.966290

                     E (Thermal)             CV                S
                      KCal/Mol        Cal/Mol-Kelvin    Cal/Mol-Kelvin
 Total                  103.879             33.485             89.442
 Electronic               0.000              0.000              0.000
 Translational            0.889              2.981             40.409
 Rotational               0.889              2.981             28.579
 Vibrational            102.101             27.524             20.454
 Vibration     1          0.597              1.971              4.291
 Vibration     2          0.616              1.910              2.759
 Vibration     3          0.645              1.816              1.989
 Vibration     4          0.666              1.753              1.692
 Vibration     5          0.684              1.698              1.494
 Vibration     6          0.687              1.691              1.469
 Vibration     7          0.737              1.547              1.106
 Vibration     8          0.752              1.506              1.026
 Vibration     9          0.788              1.412              0.870
 Vibration    10          0.892              1.169              0.572

 Optimization completed.
    -- Stationary point found.
 Normal termination of Gaussian 09 at Tue Jan 28 09:13:01 2020.
