 Gaussian 09, Revision D.01,
 Gaussian 09:  ES64L-G09RevD.01 24-Apr-2013

 -----------------------------
 # b3lyp 6-31G(2df,p) opt Freq
 -----------------------------

 -----
 titel
 -----
 Symbolic Z-matrix:
 Charge =  0 Multiplicity = 1

 SCF Done:  E(RB3LYP) =  -423.156743393     A.U. after   14 cycles
 Optimization completed.
    -- Stationary point found.
 Normal termination of Gaussian 09 at Tue Jan 28 13:30:17 2020.

 ----------------------------------------------------------------------
 #N Geom=AllCheck Guess=TCheck SCRF=Check GenChk RB3LYP/6-31G(2df,p) Fr
 eq
 ----------------------------------------------------------------------

 Structure from the checkpoint file:  "/scratch/puck/g09_9a35daf0-2355-4461-8d4a-bd14e258593f/Gau-31206.chk"
 -----
 titel
 -----
 Charge =  0 Multiplicity = 1

                         Standard orientation:
 ---------------------------------------------------------------------
 Center     Atomic      Atomic             Coordinates (Angstroms)
 Number     Number       Type             X           Y           Z
 ---------------------------------------------------------------------
      1          6           0       -3.020586   -0.758579   -0.005894
      2          8           0       -1.928836   -0.170722   -0.679764
      3          6           0       -1.072098    0.542384    0.170663
      4          6           0       -0.075767   -0.346220    0.995292
      5          6           0        1.086499    0.234332    0.188522
      6          6           0        1.098359    1.747682    0.272773
      7          6           0        0.096719    1.121579   -0.626885
      8          6           0        2.219452   -0.522596   -0.349175
      9          8           0        2.452934   -1.681457   -0.096255
     10          1           0       -3.635017   -0.000224    0.503941
     11          1           0       -3.630604   -1.262697   -0.758527
     12          1           0       -2.696206   -1.498881    0.740040
     13          1           0       -1.642941    1.280517    0.757952
     14          1           0       -0.036755   -0.199816    2.078663
     15          1           0       -0.225073   -1.404104    0.772446
     16          1           0        0.796739    2.215744    1.206883
     17          1           0        1.933780    2.234388   -0.221717
     18          1           0        0.079930    1.280399   -1.697865
     19          1           0        2.867892    0.060617   -1.045446
 ---------------------------------------------------------------------

 SCF Done:  E(RB3LYP) =  -423.156743393     A.U. after    1 cycles

 The electronic state is 1-A.
 Alpha  occ. eigenvalues --  -19.14861 -19.12769 -10.26400 -10.24647 -10.22942
 Alpha  occ. eigenvalues --  -10.21359 -10.21163 -10.21139 -10.19029  -1.04437
 Alpha  occ. eigenvalues --   -1.03479  -0.91215  -0.74793  -0.70479  -0.67306
 Alpha  occ. eigenvalues --   -0.62403  -0.58720  -0.53941  -0.51057  -0.49271
 Alpha  occ. eigenvalues --   -0.48730  -0.45451  -0.43842  -0.43045  -0.41993
 Alpha  occ. eigenvalues --   -0.39946  -0.38160  -0.36485  -0.35857  -0.32192
 Alpha  occ. eigenvalues --   -0.31410  -0.28074  -0.25748  -0.24273
 Alpha virt. eigenvalues --   -0.01876   0.08603   0.09470   0.10331   0.11374
 Alpha virt. eigenvalues --    0.12357   0.12800   0.14239   0.15559   0.15783
 Alpha virt. eigenvalues --    0.16603   0.17641   0.18504   0.20054   0.21666

 Mulliken charges:
               1
     1  C   -0.241905
     2  O   -0.247884
     3  C    0.158645
     4  C   -0.340689
     5  C    0.277187
     6  C   -0.341136
     7  C   -0.124929
     8  C    0.055169
     9  O   -0.270609
    10  H    0.106685
    11  H    0.132008
    12  H    0.113422
    13  H    0.065509
    14  H    0.097678
    15  H    0.136610
    16  H    0.121128
    17  H    0.128303
    18  H    0.113785
    19  H    0.061022
 Sum of Mulliken charges =   0.00000

 Dipole moment (field-independent basis, Debye):
    X=             -1.7135    Y=              2.6495    Z=              0.6857  Tot=              3.2290
 Quadrupole moment (field-independent basis, Debye-Ang):
   XX=            -53.8867   YY=            -56.1697   ZZ=            -52.4672
   XY=              8.4778   XZ=             -2.8823   YZ=             -0.2127

  Exact polarizability:  91.368  -0.721  80.154  -3.443  -1.241  64.768
 Approx polarizability: 117.056  -9.792 129.085  -0.835  -4.673 100.725

                      1                      2                      3
                      A                      A                      A
 Frequencies --     70.8166               115.1463               154.5781
 Red. masses --      4.9402                 2.7821                 2.8009
 Frc consts  --      0.0146                 0.0217                 0.0394
 IR Inten    --      1.7276                 3.7471                 5.1596

                      4                      5                      6
                      A                      A                      A
 Frequencies --    199.4692               209.2688               257.5074
 Red. masses --      1.2693                 3.8470                 2.3156
 Frc consts  --      0.0298                 0.0993                 0.0905
 IR Inten    --      1.2674                 7.2039                 1.6541

                      7                      8                      9
                      A                      A                      A
 Frequencies --    328.6097               394.0716               420.0512
 Red. masses --      2.3351                 2.6361                 3.1057
 Frc consts  --      0.1486                 0.2412                 0.3229
 IR Inten    --      1.9013                 2.6645                 0.4524

                     10                     11                     12
                      A                      A                      A
 Frequencies --    479.5493               498.6255               691.3986
 Red. masses --      2.6986                 3.8831                 3.4389
 Frc consts  --      0.3656                 0.5688                 0.9685
 IR Inten    --      4.2709                 9.9244                14.8370

                     13                     14                     15
                      A                      A                      A
 Frequencies --    768.2602               785.6111               856.9912
 Red. masses --      4.6279                 2.4780                 2.9210
 Frc consts  --      1.6094                 0.9011                 1.2640
 IR Inten    --      2.1668                 6.7681                 2.6338

                     16                     17                     18
                      A                      A                      A
 Frequencies --    879.8112               950.2479               970.1084
 Red. masses --      1.3849                 1.5029                 2.6583
 Frc consts  --      0.6316                 0.7996                 1.4740
 IR Inten    --      8.6697                 4.2617                60.2056

                     19                     20                     21
                      A                      A                      A
 Frequencies --    985.5650              1021.7199              1046.5793
 Red. masses --      1.9096                 1.9715                 1.5256
 Frc consts  --      1.0929                 1.2126                 0.9845
 IR Inten    --     16.5582                15.0929                 2.9084

                     22                     23                     24
                      A                      A                      A
 Frequencies --   1055.8982              1091.4710              1105.2468
 Red. masses --      1.5858                 1.5578                 2.1641
 Frc consts  --      1.0417                 1.0934                 1.5576
 IR Inten    --      0.1777                 3.7922                24.3898

                     25                     26                     27
                      A                      A                      A
 Frequencies --   1126.6723              1175.5251              1184.4878
 Red. masses --      1.8397                 1.8875                 1.2996
 Frc consts  --      1.3759                 1.5367                 1.0743
 IR Inten    --     14.7042                89.7951                 2.4363

                     28                     29                     30
                      A                      A                      A
 Frequencies --   1227.5818              1229.6867              1243.1812
 Red. masses --      1.6530                 1.5969                 1.9287
 Frc consts  --      1.4677                 1.4227                 1.7563
 IR Inten    --      2.1112                28.6604                52.9955

                     31                     32                     33
                      A                      A                      A
 Frequencies --   1280.6027              1312.9163              1370.6391
 Red. masses --      1.6488                 2.5551                 2.1081
 Frc consts  --      1.5931                 2.5949                 2.3334
 IR Inten    --      3.8381                 4.0336                49.0497

                     34                     35                     36
                      A                      A                      A
 Frequencies --   1392.7862              1437.9617              1470.4844
 Red. masses --      1.5177                 1.4265                 1.1150
 Frc consts  --      1.7346                 1.7378                 1.4205
 IR Inten    --     44.8835                 9.9396                 3.9882

                     37                     38                     39
                      A                      A                      A
 Frequencies --   1482.5607              1489.6538              1492.5861
 Red. masses --      1.1289                 1.1040                 1.2268
 Frc consts  --      1.4619                 1.4434                 1.6103
 IR Inten    --      4.3799                 3.8925                 4.5395

                     40                     41                     42
                      A                      A                      A
 Frequencies --   1509.0932              1801.9244              2848.4317
 Red. masses --      1.0611                10.4508                 1.0814
 Frc consts  --      1.4238                19.9927                 5.1693
 IR Inten    --      5.0660               256.7277               123.4065

                     43                     44                     45
                      A                      A                      A
 Frequencies --   2959.6667              2979.6824              3029.3104
 Red. masses --      1.0815                 1.0398                 1.1016
 Frc consts  --      5.5814                 5.4395                 5.9563
 IR Inten    --     52.9056                69.4747                44.5184

                     46                     47                     48
                      A                      A                      A
 Frequencies --   3058.6353              3110.3307              3121.9099
 Red. masses --      1.0626                 1.0559                 1.0966
 Frc consts  --      5.8570                 6.0186                 6.2973
 IR Inten    --     32.5539                14.7752                26.8247

                     49                     50                     51
                      A                      A                      A
 Frequencies --   3130.9790              3195.6621              3204.5047
 Red. masses --      1.1031                 1.1067                 1.1005
 Frc consts  --      6.3714                 6.6591                 6.6585
 IR Inten    --     10.2800                 2.7866                 8.2818

 - Thermochemistry -
 -------------------
 Temperature   298.150 Kelvin.  Pressure   1.00000 Atm.
 Atom     1 has atomic number  6 and mass  12.00000

 Molecular mass:   126.06808 amu.
 Principal axes and moments of inertia in atomic units:
                           1         2         3
     Eigenvalues --   612.056061629.578671958.81923
           X            0.99887   0.04534  -0.01423
           Y           -0.04548   0.99892  -0.00935
           Z            0.01379   0.00999   0.99986
 This molecule is an asymmetric top.
 Rotational symmetry number  1.
 Warning -- assumption of classical behavior for rotation
           may cause significant error
 Rotational temperatures (Kelvin)      0.14151     0.05315     0.04422
 Rotational constants (GHZ):           2.94865     1.10749     0.92134
 Zero-point vibrational energy     413932.2 (Joules/Mol)
                                   98.93217 (Kcal/Mol)
 Warning -- explicit consideration of  11 degrees of freedom as
           vibrations may cause significant error
 Vibrational temperatures:    101.89   165.67   222.40   286.99   301.09
          (Kelvin)            370.50   472.80   566.98   604.36   689.96
                              717.41   994.77  1105.35  1130.32  1233.02
                             1265.85  1367.19  1395.77  1418.01  1470.03
                             1505.79  1519.20  1570.38  1590.20  1621.03
                             1691.32  1704.21  1766.21  1769.24  1788.66
                             1842.50  1888.99  1972.04  2003.91  2068.90
                             2115.70  2133.07  2143.28  2147.50  2171.25
                             2592.56  4098.25  4258.29  4287.09  4358.50
                             4400.69  4475.07  4491.73  4504.77  4597.84
                             4610.56

 Zero-point correction=                           0.157658 (Hartree/Particle)
 Thermal correction to Energy=                    0.166517
 Thermal correction to Enthalpy=                  0.167462
 Thermal correction to Gibbs Free Energy=         0.123761
 Sum of electronic and zero-point Energies=           -422.999085
 Sum of electronic and thermal Energies=              -422.990226
 Sum of electronic and thermal Enthalpies=            -422.989282
 Sum of electronic and thermal Free Energies=         -423.032982

                     E (Thermal)             CV                S
                      KCal/Mol        Cal/Mol-Kelvin    Cal/Mol-Kelvin
 Total                  104.491             32.659             91.975
 Electronic               0.000              0.000              0.000
 Translational            0.889              2.981             40.409
 Rotational               0.889              2.981             29.059
 Vibrational            102.714             26.697             22.507
 Vibration     1          0.598              1.968              4.131
 Vibration     2          0.608              1.937              3.180
 Vibration     3          0.620              1.898              2.615
 Vibration     4          0.638              1.841              2.138
 Vibration     5          0.642              1.827              2.050
 Vibration     6          0.667              1.750              1.679
 Vibration     7          0.712              1.618              1.267
 Vibration     8          0.761              1.483              0.985
 Vibration     9          0.783              1.427              0.892
 Vibration    10          0.836              1.295              0.711
 Vibration    11          0.854              1.253              0.662

 Normal termination of Gaussian 09 at Tue Jan 28 14:10:11 2020.
