 Gaussian 09, Revision D.01,
 Gaussian 09:  ES64L-G09RevD.01 24-Apr-2013

 -----------------------------
 # b3lyp 6-31G(2df,p) opt Freq
 -----------------------------

 -----
 titel
 -----
 Symbolic Z-matrix:
 Charge =  0 Multiplicity = 1

 SCF Done:  E(RB3LYP) =  -423.156391240     A.U. after   14 cycles
 SCF Done:  E(RB3LYP) =  -423.156391099     A.U. after    7 cycles
 SCF Done:  E(RB3LYP) =  -423.156391214     A.U. after    7 cycles
 SCF Done:  E(RB3LYP) =  -423.156391249     A.U. after    7 cycles
 Optimization completed.
    -- Stationary point found.
 Normal termination of Gaussian 09 at Mon Jan 27 16:00:48 2020.

 ----------------------------------------------------------------------
 #N Geom=AllCheck Guess=TCheck SCRF=Check GenChk RB3LYP/6-31G(2df,p) Fr
 eq
 ----------------------------------------------------------------------

 Structure from the checkpoint file:  "/scratch/puck/g09_b30af40f-b737-47fb-9fa0-d061ebf4d5f2/Gau-175780.chk"
 -----
 titel
 -----
 Charge =  0 Multiplicity = 1

                         Standard orientation:
 ---------------------------------------------------------------------
 Center     Atomic      Atomic             Coordinates (Angstroms)
 Number     Number       Type             X           Y           Z
 ---------------------------------------------------------------------
      1          8           0        0.553247    2.149939   -0.177239
      2          6           0        0.760955    0.739550   -0.223126
      3          6           0       -0.468787   -0.033521    0.261619
      4          6           0       -1.728916    0.301543   -0.560669
      5          6           0       -2.928699   -0.345569   -0.046300
      6          6           0       -3.903673   -0.887419    0.402028
      7          6           0        2.035622    0.360511    0.541615
      8          6           0        2.600114   -1.004570    0.224316
      9          8           0        2.122157   -1.784402   -0.560843
     10          1           0        0.355686    2.390544    0.735270
     11          1           0        0.923226    0.518319   -1.283756
     12          1           0       -0.264343   -1.106021    0.203475
     13          1           0       -0.652184    0.202809    1.319339
     14          1           0       -1.865196    1.388728   -0.575541
     15          1           0       -1.568219    0.001242   -1.604325
     16          1           0       -4.772637   -1.362531    0.784263
     17          1           0        2.821464    1.097265    0.322411
     18          1           0        1.883707    0.415474    1.631086
     19          1           0        3.535563   -1.253273    0.775534
 ---------------------------------------------------------------------

 SCF Done:  E(RB3LYP) =  -423.156391249     A.U. after    1 cycles

 The electronic state is 1-A.
 Alpha  occ. eigenvalues --  -19.15059 -19.14628 -10.28322 -10.24338 -10.20449
 Alpha  occ. eigenvalues --  -10.20442 -10.19059 -10.17653 -10.16502  -1.05728
 Alpha  occ. eigenvalues --   -1.02803  -0.81096  -0.77973  -0.72588  -0.67352
 Alpha  occ. eigenvalues --   -0.61722  -0.57642  -0.52142  -0.50511  -0.48689
 Alpha  occ. eigenvalues --   -0.46875  -0.46466  -0.45414  -0.43821  -0.40770
 Alpha  occ. eigenvalues --   -0.39721  -0.38319  -0.36679  -0.35593  -0.32871
 Alpha  occ. eigenvalues --   -0.28925  -0.26273  -0.25909  -0.25361
 Alpha virt. eigenvalues --   -0.02873   0.05880   0.05974   0.06969   0.09340
 Alpha virt. eigenvalues --    0.11655   0.12820   0.13453   0.13842   0.15250
 Alpha virt. eigenvalues --    0.15779   0.17240   0.19459   0.20300   0.21358

 Mulliken charges:
               1
     1  O   -0.434869
     2  C    0.133467
     3  C   -0.205740
     4  C   -0.354781
     5  C    0.291452
     6  C   -0.439670
     7  C   -0.336429
     8  C    0.161143
     9  O   -0.236992
    10  H    0.278267
    11  H    0.107860
    12  H    0.136494
    13  H    0.092727
    14  H    0.139094
    15  H    0.134342
    16  H    0.191997
    17  H    0.137521
    18  H    0.117439
    19  H    0.086677
 Sum of Mulliken charges =   0.00000

 Dipole moment (field-independent basis, Debye):
    X=              1.2895    Y=              1.2235    Z=              2.3731  Tot=              2.9650
 Quadrupole moment (field-independent basis, Debye-Ang):
   XX=            -49.8591   YY=            -58.8926   ZZ=            -51.5203
   XY=              3.1864   XZ=              2.5171   YZ=              0.5767

  Exact polarizability:  99.029   7.992  71.942  -2.416   0.130  63.751
 Approx polarizability: 126.440  18.531 110.538  -8.456   1.908 104.139

                      1                      2                      3
                      A                      A                      A
 Frequencies --     49.7324                85.1900                94.1482
 Red. masses --      4.4112                 4.3031                 2.6994
 Frc consts  --      0.0064                 0.0184                 0.0141
 IR Inten    --      1.3317                 5.8174                 0.6791

                      4                      5                      6
                      A                      A                      A
 Frequencies --    106.3163               165.5782               193.2978
 Red. masses --      3.3934                 2.0993                 4.0601
 Frc consts  --      0.0226                 0.0339                 0.0894
 IR Inten    --      3.1834                 0.8371                 4.1927

                      7                      8                      9
                      A                      A                      A
 Frequencies --    244.7866               307.1981               331.6562
 Red. masses --      4.1225                 1.2020                 2.8999
 Frc consts  --      0.1455                 0.0668                 0.1879
 IR Inten    --      1.8534                87.9638                21.1111

                     10                     11                     12
                      A                      A                      A
 Frequencies --    345.7355               441.9041               455.5300
 Red. masses --      3.1726                 2.8901                 3.7716
 Frc consts  --      0.2234                 0.3325                 0.4611
 IR Inten    --      6.0178                 6.1971                22.6197

                     13                     14                     15
                      A                      A                      A
 Frequencies --    520.6787               613.8834               635.2224
 Red. masses --      3.3978                 1.1991                 1.2199
 Frc consts  --      0.5427                 0.2662                 0.2900
 IR Inten    --      8.0117                43.6613                41.8585

                     16                     17                     18
                      A                      A                      A
 Frequencies --    693.7501               730.7970               773.5550
 Red. masses --      2.4096                 1.9962                 1.3226
 Frc consts  --      0.6833                 0.6281                 0.4663
 IR Inten    --      9.0318                14.8731                 0.6763

                     19                     20                     21
                      A                      A                      A
 Frequencies --    882.7975               923.3900               958.2883
 Red. masses --      2.8302                 2.1656                 3.0324
 Frc consts  --      1.2996                 1.0879                 1.6407
 IR Inten    --     15.5030                 4.3439                 2.1090

                     22                     23                     24
                      A                      A                      A
 Frequencies --    973.1272              1038.1503              1062.8155
 Red. masses --      1.8193                 2.9740                 1.9567
 Frc consts  --      1.0151                 1.8884                 1.3023
 IR Inten    --     11.5882                 4.4410                43.4282

                     25                     26                     27
                      A                      A                      A
 Frequencies --   1098.0655              1125.9916              1171.8359
 Red. masses --      2.5879                 2.7011                 1.1991
 Frc consts  --      1.8385                 2.0177                 0.9702
 IR Inten    --     30.6173                20.4252                23.6393

                     28                     29                     30
                      A                      A                      A
 Frequencies --   1211.3384              1267.4266              1285.8234
 Red. masses --      1.3290                 1.3706                 1.3154
 Frc consts  --      1.1489                 1.2972                 1.2813
 IR Inten    --      2.5519                11.4877                18.6259

                     31                     32                     33
                      A                      A                      A
 Frequencies --   1315.0509              1353.3482              1371.8625
 Red. masses --      1.2484                 1.3359                 1.5118
 Frc consts  --      1.2720                 1.4416                 1.6764
 IR Inten    --      3.7795                 1.3769                 5.2529

                     34                     35                     36
                      A                      A                      A
 Frequencies --   1397.2063              1412.6326              1424.0224
 Red. masses --      1.5534                 1.2169                 1.1609
 Frc consts  --      1.7867                 1.4307                 1.3870
 IR Inten    --     13.3995                55.7235                15.1891

                     37                     38                     39
                      A                      A                      A
 Frequencies --   1446.1282              1474.7446              1489.8111
 Red. masses --      1.1351                 1.0760                 1.0964
 Frc consts  --      1.3986                 1.3787                 1.4337
 IR Inten    --      7.3708                 3.1454                 2.5874

                     40                     41                     42
                      A                      A                      A
 Frequencies --   1826.2433              2238.9745              2873.2656
 Red. masses --      9.9177                 5.9404                 1.0830
 Frc consts  --     19.4884                17.5455                 5.2679
 IR Inten    --    124.0125                 5.3392               146.4141

                     43                     44                     45
                      A                      A                      A
 Frequencies --   3001.5424              3013.3198              3027.9653
 Red. masses --      1.0651                 1.0685                 1.0631
 Frc consts  --      5.6538                 5.7161                 5.7429
 IR Inten    --     13.3902                10.2170                20.1273

                     46                     47                     48
                      A                      A                      A
 Frequencies --   3039.8370              3064.2222              3066.2666
 Red. masses --      1.0921                 1.0853                 1.0953
 Frc consts  --      5.9459                 6.0040                 6.0672
 IR Inten    --      6.9837                25.7582                 3.9558

                     49                     50                     51
                      A                      A                      A
 Frequencies --   3104.6462              3508.1133              3791.3427
 Red. masses --      1.0948                 1.1618                 1.0659
 Frc consts  --      6.2172                 8.4245                 9.0275
 IR Inten    --     12.9799                67.8151                14.2158

 - Thermochemistry -
 -------------------
 Temperature   298.150 Kelvin.  Pressure   1.00000 Atm.
 Atom     1 has atomic number  8 and mass  15.99491

 Molecular mass:   126.06808 amu.
 Principal axes and moments of inertia in atomic units:
                           1         2         3
     Eigenvalues --   709.751882219.122042731.23257
           X            0.99990   0.01141   0.00826
           Y           -0.01138   0.99993  -0.00409
           Z           -0.00831   0.00399   0.99996
 This molecule is an asymmetric top.
 Rotational symmetry number  1.
 Warning -- assumption of classical behavior for rotation
           may cause significant error
 Rotational temperatures (Kelvin)      0.12203     0.03903     0.03171
 Rotational constants (GHZ):           2.54278     0.81327     0.66078
 Zero-point vibrational energy     406901.1 (Joules/Mol)
                                   97.25170 (Kcal/Mol)
 Warning -- explicit consideration of  14 degrees of freedom as
           vibrations may cause significant error
 Vibrational temperatures:     71.55   122.57   135.46   152.97   238.23
          (Kelvin)            278.11   352.19   441.99   477.18   497.44
                              635.80   655.41   749.14   883.24   913.94
                              998.15  1051.45  1112.97  1270.15  1328.55
                             1378.76  1400.11  1493.66  1529.15  1579.87
                             1620.05  1686.01  1742.84  1823.54  1850.01
                             1892.06  1947.16  1973.80  2010.27  2032.46
                             2048.85  2080.65  2121.83  2143.50  2627.55
                             3221.38  4133.98  4318.54  4335.49  4356.56
                             4373.64  4408.73  4411.67  4466.89  5047.39
                             5454.89

 Zero-point correction=                           0.154980 (Hartree/Particle)
 Thermal correction to Energy=                    0.165483
 Thermal correction to Enthalpy=                  0.166428
 Thermal correction to Gibbs Free Energy=         0.118471
 Sum of electronic and zero-point Energies=           -423.001411
 Sum of electronic and thermal Energies=              -422.990908
 Sum of electronic and thermal Enthalpies=            -422.989964
 Sum of electronic and thermal Free Energies=         -423.037920

                     E (Thermal)             CV                S
                      KCal/Mol        Cal/Mol-Kelvin    Cal/Mol-Kelvin
 Total                  103.842             37.082            100.933
 Electronic               0.000              0.000              0.000
 Translational            0.889              2.981             40.409
 Rotational               0.889              2.981             29.843
 Vibrational            102.065             31.120             30.681
 Vibration     1          0.595              1.978              4.828
 Vibration     2          0.601              1.959              3.768
 Vibration     3          0.603              1.953              3.572
 Vibration     4          0.605              1.944              3.335
 Vibration     5          0.624              1.885              2.485
 Vibration     6          0.635              1.849              2.196
 Vibration     7          0.660              1.771              1.768
 Vibration     8          0.697              1.660              1.377
 Vibration     9          0.714              1.612              1.252
 Vibration    10          0.724              1.584              1.186
 Vibration    11          0.802              1.379              0.821
 Vibration    12          0.814              1.349              0.779
 Vibration    13          0.876              1.204              0.608
 Vibration    14          0.973              1.002              0.426

 Optimization completed.
    -- Stationary point found.
 Normal termination of Gaussian 09 at Mon Jan 27 16:35:45 2020.
