 Gaussian 09, Revision D.01,
 Gaussian 09:  ES64L-G09RevD.01 24-Apr-2013

 -----------------------------
 # b3lyp 6-31G(2df,p) opt Freq
 -----------------------------

 -----
 titel
 -----
 Symbolic Z-matrix:
 Charge =  0 Multiplicity = 1

 SCF Done:  E(RB3LYP) =  -423.231308678     A.U. after   14 cycles
 Optimization completed.
    -- Stationary point found.
 Normal termination of Gaussian 09 at Tue Jan 28 13:23:35 2020.

 ----------------------------------------------------------------------
 #N Geom=AllCheck Guess=TCheck SCRF=Check GenChk RB3LYP/6-31G(2df,p) Fr
 eq
 ----------------------------------------------------------------------

 Structure from the checkpoint file:  "/scratch/puck/g09_65b7e263-e1e1-4c06-a04e-d1ecebac7cf7/Gau-13746.chk"
 -----
 titel
 -----
 Charge =  0 Multiplicity = 1

                         Standard orientation:
 ---------------------------------------------------------------------
 Center     Atomic      Atomic             Coordinates (Angstroms)
 Number     Number       Type             X           Y           Z
 ---------------------------------------------------------------------
      1          6           0        3.302082    0.420106   -0.209614
      2          6           0        2.238521   -0.579315    0.255278
      3          6           0        0.833253   -0.287841   -0.278167
      4          6           0       -0.213881   -1.355601    0.117730
      5          6           0       -1.561001   -0.665073   -0.010882
      6          8           0       -2.648092   -1.156581   -0.145083
      7          6           0       -1.286412    0.871990    0.049681
      8          8           0       -2.134853    1.717752   -0.026856
      9          6           0        0.216171    1.046962    0.205831
     10          1           0        3.082989    1.435211    0.136714
     11          1           0        4.289439    0.147026    0.173943
     12          1           0        3.366529    0.448546   -1.302978
     13          1           0        2.528684   -1.590640   -0.057029
     14          1           0        2.202206   -0.599106    1.353481
     15          1           0        0.880735   -0.255273   -1.375601
     16          1           0       -0.170403   -2.276531   -0.467888
     17          1           0       -0.083920   -1.635237    1.174257
     18          1           0        0.570923    1.937887   -0.315619
     19          1           0        0.423985    1.191387    1.277081
 ---------------------------------------------------------------------

 SCF Done:  E(RB3LYP) =  -423.231308678     A.U. after    1 cycles

 The electronic state is 1-A.
 Alpha  occ. eigenvalues --  -19.15223 -19.15201 -10.27862 -10.27837 -10.21429
 Alpha  occ. eigenvalues --  -10.20494 -10.20478 -10.19907 -10.18808  -1.06867
 Alpha  occ. eigenvalues --   -1.04785  -0.85777  -0.77521  -0.72762  -0.67984
 Alpha  occ. eigenvalues --   -0.61755  -0.58707  -0.51250  -0.50372  -0.47850
 Alpha  occ. eigenvalues --   -0.45696  -0.44933  -0.43987  -0.43227  -0.41845
 Alpha  occ. eigenvalues --   -0.41355  -0.39302  -0.36667  -0.36150  -0.35457
 Alpha  occ. eigenvalues --   -0.34755  -0.34199  -0.30112  -0.23033
 Alpha virt. eigenvalues --   -0.08613   0.04400   0.07025   0.09699   0.10531
 Alpha virt. eigenvalues --    0.11436   0.14332   0.15123   0.15374   0.16505
 Alpha virt. eigenvalues --    0.16872   0.18179   0.19306   0.20469   0.21291

 Mulliken charges:
               1
     1  C   -0.390233
     2  C   -0.183459
     3  C    0.006480
     4  C   -0.352601
     5  C    0.312366
     6  O   -0.278772
     7  C    0.315009
     8  O   -0.278465
     9  C   -0.343127
    10  H    0.122644
    11  H    0.120160
    12  H    0.119480
    13  H    0.102119
    14  H    0.096753
    15  H    0.089776
    16  H    0.136169
    17  H    0.133905
    18  H    0.138215
    19  H    0.133581
 Sum of Mulliken charges =   0.00000

 Dipole moment (field-independent basis, Debye):
    X=              4.6720    Y=             -0.8220    Z=              0.4517  Tot=              4.7652
 Quadrupole moment (field-independent basis, Debye-Ang):
   XX=            -65.7785   YY=            -56.5148   ZZ=            -50.6654
   XY=              0.9556   XZ=             -0.9237   YZ=             -0.0003

  Exact polarizability:  93.685  -0.087  76.903   1.393  -0.057  58.919
 Approx polarizability: 126.557  -2.235 114.915   4.303   0.190  94.340

                      1                      2                      3
                      A                      A                      A
 Frequencies --     71.6351                93.0554               115.3965
 Red. masses --      3.6133                 3.1224                 2.3405
 Frc consts  --      0.0109                 0.0159                 0.0184
 IR Inten    --      1.5511                 3.6784                 0.4693

                      4                      5                      6
                      A                      A                      A
 Frequencies --    186.8972               240.5791               309.7139
 Red. masses --      2.1310                 1.2342                10.2823
 Frc consts  --      0.0439                 0.0421                 0.5811
 IR Inten    --      1.0914                 0.5226                 4.1088

                      7                      8                      9
                      A                      A                      A
 Frequencies --    341.4112               366.6030               405.6947
 Red. masses --      3.5683                 3.7654                 2.0328
 Frc consts  --      0.2451                 0.2982                 0.1971
 IR Inten    --      2.5775                 4.8220                 1.2484

                     10                     11                     12
                      A                      A                      A
 Frequencies --    493.2819               536.0903               599.9062
 Red. masses --      3.2360                 2.8922                 3.1657
 Frc consts  --      0.4639                 0.4897                 0.6713
 IR Inten    --      0.2913                 2.9224                 7.7954

                     13                     14                     15
                      A                      A                      A
 Frequencies --    653.8391               706.7928               778.9943
 Red. masses --      3.9289                 4.2130                 1.2202
 Frc consts  --      0.9896                 1.2400                 0.4363
 IR Inten    --      4.7855                 1.4969                 2.7697

                     16                     17                     18
                      A                      A                      A
 Frequencies --    835.8598               890.3794               896.4006
 Red. masses --      2.7117                 1.6326                 1.6384
 Frc consts  --      1.1162                 0.7626                 0.7756
 IR Inten    --      2.7873                 2.3352                 7.0103

                     19                     20                     21
                      A                      A                      A
 Frequencies --    950.1331              1010.3748              1047.9750
 Red. masses --      1.9106                 2.1769                 1.8499
 Frc consts  --      1.0162                 1.3094                 1.1970
 IR Inten    --      0.3725                 2.6257                 3.1886

                     22                     23                     24
                      A                      A                      A
 Frequencies --   1052.2152              1102.2003              1129.3732
 Red. masses --      3.9280                 1.9786                 1.6328
 Frc consts  --      2.5623                 1.4162                 1.2270
 IR Inten    --     40.7741                 7.0793                 4.1244

                     25                     26                     27
                      A                      A                      A
 Frequencies --   1157.9239              1170.0043              1227.1530
 Red. masses --      2.0152                 3.8714                 1.6161
 Frc consts  --      1.5919                 3.1225                 1.4339
 IR Inten    --     16.2815                57.6091                 5.4583

                     28                     29                     30
                      A                      A                      A
 Frequencies --   1244.2651              1277.2708              1302.5172
 Red. masses --      1.4963                 1.4205                 1.2067
 Frc consts  --      1.3648                 1.3654                 1.2062
 IR Inten    --      1.4612                 0.0378                 3.8613

                     31                     32                     33
                      A                      A                      A
 Frequencies --   1330.0522              1366.2075              1391.9434
 Red. masses --      1.3008                 1.3790                 1.5252
 Frc consts  --      1.3558                 1.5165                 1.7411
 IR Inten    --     11.6894                 8.4716                 2.4502

                     34                     35                     36
                      A                      A                      A
 Frequencies --   1414.5792              1439.7912              1452.3714
 Red. masses --      1.2382                 1.0827                 1.0963
 Frc consts  --      1.4598                 1.3224                 1.3625
 IR Inten    --      2.6531                 6.9355                 9.5189

                     37                     38                     39
                      A                      A                      A
 Frequencies --   1486.0420              1500.4368              1507.0666
 Red. masses --      1.0655                 1.0426                 1.0663
 Frc consts  --      1.3863                 1.3829                 1.4268
 IR Inten    --      1.2501                 4.9078                 4.0336

                     40                     41                     42
                      A                      A                      A
 Frequencies --   1843.0376              1862.9623              3001.7684
 Red. masses --     12.9758                12.7480                 1.0761
 Frc consts  --     25.9689                26.0676                 5.7131
 IR Inten    --    261.3127                49.9595                 0.5011

                     43                     44                     45
                      A                      A                      A
 Frequencies --   3008.1849              3009.8017              3020.8198
 Red. masses --      1.0690                 1.0637                 1.0724
 Frc consts  --      5.6993                 5.6775                 5.7659
 IR Inten    --      2.8617                11.6118                34.7073

                     46                     47                     48
                      A                      A                      A
 Frequencies --   3035.3326              3048.4516              3101.7065
 Red. masses --      1.0366                 1.1001                 1.1013
 Frc consts  --      5.6269                 6.0232                 6.2423
 IR Inten    --     23.6944                25.1015                34.4875

                     49                     50                     51
                      A                      A                      A
 Frequencies --   3109.0308              3109.6646              3115.6105
 Red. masses --      1.0974                 1.0957                 1.0929
 Frc consts  --      6.2499                 6.2426                 6.2506
 IR Inten    --     16.7041                19.5230                12.4099

 - Thermochemistry -
 -------------------
 Temperature   298.150 Kelvin.  Pressure   1.00000 Atm.
 Atom     1 has atomic number  6 and mass  12.00000

 Molecular mass:   126.06808 amu.
 Principal axes and moments of inertia in atomic units:
                           1         2         3
     Eigenvalues --   556.732491773.713172243.64053
           X            0.99996   0.00864  -0.00249
           Y           -0.00865   0.99995  -0.00520
           Z            0.00244   0.00522   0.99998
 This molecule is an asymmetric top.
 Rotational symmetry number  1.
 Warning -- assumption of classical behavior for rotation
           may cause significant error
 Rotational temperatures (Kelvin)      0.15558     0.04883     0.03860
 Rotational constants (GHZ):           3.24167     1.01749     0.80438
 Zero-point vibrational energy     414797.9 (Joules/Mol)
                                   99.13908 (Kcal/Mol)
 Warning -- explicit consideration of  12 degrees of freedom as
           vibrations may cause significant error
 Vibrational temperatures:    103.07   133.89   166.03   268.90   346.14
          (Kelvin)            445.61   491.21   527.46   583.70   709.72
                              771.31   863.13   940.73  1016.92  1120.80
                             1202.61  1281.06  1289.72  1367.03  1453.70
                             1507.80  1513.90  1585.82  1624.91  1665.99
                             1683.37  1765.60  1790.22  1837.71  1874.03
                             1913.65  1965.67  2002.69  2035.26  2071.54
                             2089.64  2138.08  2158.79  2168.33  2651.72
                             2680.38  4318.87  4328.10  4330.43  4346.28
                             4367.16  4386.04  4462.66  4473.20  4474.11
                             4482.66

 Zero-point correction=                           0.157988 (Hartree/Particle)
 Thermal correction to Energy=                    0.167008
 Thermal correction to Enthalpy=                  0.167952
 Thermal correction to Gibbs Free Energy=         0.123747
 Sum of electronic and zero-point Energies=           -423.073320
 Sum of electronic and thermal Energies=              -423.064301
 Sum of electronic and thermal Enthalpies=            -423.063356
 Sum of electronic and thermal Free Energies=         -423.107561

                     E (Thermal)             CV                S
                      KCal/Mol        Cal/Mol-Kelvin    Cal/Mol-Kelvin
 Total                  104.799             33.234             93.037
 Electronic               0.000              0.000              0.000
 Translational            0.889              2.981             40.409
 Rotational               0.889              2.981             29.184
 Vibrational            103.022             27.272             23.445
 Vibration     1          0.598              1.968              4.108
 Vibration     2          0.602              1.954              3.595
 Vibration     3          0.608              1.937              3.176
 Vibration     4          0.632              1.858              2.258
 Vibration     5          0.658              1.778              1.799
 Vibration     6          0.699              1.655              1.364
 Vibration     7          0.721              1.593              1.206
 Vibration     8          0.740              1.541              1.094
 Vibration     9          0.771              1.458              0.942
 Vibration    10          0.849              1.265              0.675
 Vibration    11          0.891              1.170              0.574
 Vibration    12          0.958              1.032              0.450

 Optimization completed.
    -- Stationary point found.
 Normal termination of Gaussian 09 at Tue Jan 28 14:59:43 2020.
