 Gaussian 09, Revision D.01,
 Gaussian 09:  ES64L-G09RevD.01 24-Apr-2013

 -----------------------------
 # b3lyp 6-31G(2df,p) opt Freq
 -----------------------------

 -----
 titel
 -----
 Symbolic Z-matrix:
 Charge =  0 Multiplicity = 1

 SCF Done:  E(RB3LYP) =  -423.162909917     A.U. after   14 cycles
 Optimization completed.
    -- Stationary point found.
 Normal termination of Gaussian 09 at Tue Jan 28 01:51:46 2020.

 ----------------------------------------------------------------------
 #N Geom=AllCheck Guess=TCheck SCRF=Check GenChk RB3LYP/6-31G(2df,p) Fr
 eq
 ----------------------------------------------------------------------

 Structure from the checkpoint file:  "/scratch/puck/g09_62489474-b277-4900-a40c-5b33a7df9867/Gau-110864.chk"
 -----
 titel
 -----
 Charge =  0 Multiplicity = 1

                         Standard orientation:
 ---------------------------------------------------------------------
 Center     Atomic      Atomic             Coordinates (Angstroms)
 Number     Number       Type             X           Y           Z
 ---------------------------------------------------------------------
      1          6           0        2.616944   -0.891524   -0.308993
      2          6           0        1.114729   -0.997215   -0.225498
      3          8           0        0.497394   -0.825352    1.047244
      4          6           0        0.160971    0.121384    0.018659
      5          6           0        0.722502    1.494626    0.254849
      6          8           0        0.304266    2.488662   -0.281933
      7          6           0       -1.238391    0.076943   -0.516092
      8          6           0       -2.400173    0.014692    0.445615
      9          6           0       -2.061782   -1.177972   -0.412641
     10          1           0        2.926048   -0.727531   -1.346485
     11          1           0        3.012762   -0.081562    0.305376
     12          1           0        3.071810   -1.827946    0.030386
     13          1           0        0.686237   -1.818968   -0.802496
     14          1           0        1.559733    1.525276    0.984126
     15          1           0       -1.373079    0.699610   -1.393637
     16          1           0       -2.170211   -0.060372    1.502599
     17          1           0       -3.284503    0.596191    0.212739
     18          1           0       -1.616685   -2.028784    0.091038
     19          1           0       -2.714185   -1.428011   -1.241521
 ---------------------------------------------------------------------

 SCF Done:  E(RB3LYP) =  -423.162909917     A.U. after    1 cycles

 The electronic state is 1-A.
 Alpha  occ. eigenvalues --  -19.16884 -19.14623 -10.27447 -10.25575 -10.25334
 Alpha  occ. eigenvalues --  -10.19810 -10.19636 -10.18846 -10.18712  -1.08988
 Alpha  occ. eigenvalues --   -1.05159  -0.86024  -0.75982  -0.72175  -0.63853
 Alpha  occ. eigenvalues --   -0.61060  -0.59762  -0.54203  -0.51789  -0.50349
 Alpha  occ. eigenvalues --   -0.47146  -0.45300  -0.44622  -0.42990  -0.40939
 Alpha  occ. eigenvalues --   -0.39623  -0.38886  -0.36591  -0.36430  -0.33297
 Alpha  occ. eigenvalues --   -0.30306  -0.29359  -0.27694  -0.25336
 Alpha virt. eigenvalues --   -0.03603   0.08940   0.09530   0.10106   0.10997
 Alpha virt. eigenvalues --    0.12382   0.13027   0.14440   0.15260   0.16584
 Alpha virt. eigenvalues --    0.17491   0.17886   0.20448   0.21425   0.22973

 Mulliken charges:
               1
     1  C   -0.430859
     2  C    0.043344
     3  O   -0.284771
     4  C    0.235699
     5  C    0.118783
     6  O   -0.253290
     7  C   -0.067831
     8  C   -0.261361
     9  C   -0.282964
    10  H    0.134703
    11  H    0.132487
    12  H    0.136388
    13  H    0.102274
    14  H    0.088958
    15  H    0.107273
    16  H    0.124924
    17  H    0.117540
    18  H    0.125629
    19  H    0.113074
 Sum of Mulliken charges =   0.00000

 Dipole moment (field-independent basis, Debye):
    X=              0.8346    Y=             -1.9739    Z=             -0.8281  Tot=              2.2975
 Quadrupole moment (field-independent basis, Debye-Ang):
   XX=            -48.1312   YY=            -59.5859   ZZ=            -53.5754
   XY=             -1.2380   XZ=              0.2043   YZ=              3.5240

  Exact polarizability:  87.965  -4.328  79.968   1.462   1.463  62.017
 Approx polarizability: 110.591  -9.972 124.519   2.351  -4.618 101.554

                      1                      2                      3
                      A                      A                      A
 Frequencies --     65.6090               102.2478               152.7539
 Red. masses --      3.1389                 3.4944                 2.7581
 Frc consts  --      0.0080                 0.0215                 0.0379
 IR Inten    --      1.5493                 4.6474                 2.3524

                      4                      5                      6
                      A                      A                      A
 Frequencies --    168.7429               176.9799               244.5388
 Red. masses --      1.0870                 3.6317                 3.5601
 Frc consts  --      0.0182                 0.0670                 0.1254
 IR Inten    --      0.7004                 1.1129                 7.1611

                      7                      8                      9
                      A                      A                      A
 Frequencies --    279.4014               308.7564               446.5439
 Red. masses --      2.7847                 3.1174                 3.3513
 Frc consts  --      0.1281                 0.1751                 0.3937
 IR Inten    --      0.3474                 7.4970                 2.4966

                     10                     11                     12
                      A                      A                      A
 Frequencies --    466.5193               505.4332               604.6099
 Red. masses --      2.9391                 4.2624                 4.2997
 Frc consts  --      0.3769                 0.6416                 0.9261
 IR Inten    --      4.9797                 2.5755                11.2778

                     13                     14                     15
                      A                      A                      A
 Frequencies --    689.4742               782.0043               800.0397
 Red. masses --      3.2131                 1.5775                 1.5297
 Frc consts  --      0.8999                 0.5684                 0.5769
 IR Inten    --     10.9800                 1.1070                 1.3083

                     16                     17                     18
                      A                      A                      A
 Frequencies --    824.1280               869.0881               919.2463
 Red. masses --      1.3702                 3.4006                 3.2270
 Frc consts  --      0.5483                 1.5133                 1.6066
 IR Inten    --      9.7275                18.4315                22.3863

                     19                     20                     21
                      A                      A                      A
 Frequencies --    947.6883               980.3551              1016.5663
 Red. masses --      3.5243                 1.6212                 1.6159
 Frc consts  --      1.8649                 0.9180                 0.9839
 IR Inten    --     10.0968                 6.8005                 6.2397

                     22                     23                     24
                      A                      A                      A
 Frequencies --   1062.3187              1064.5596              1090.3127
 Red. masses --      2.2406                 1.3233                 1.3816
 Frc consts  --      1.4898                 0.8836                 0.9677
 IR Inten    --     15.0799                 5.0589                 0.6156

                     25                     26                     27
                      A                      A                      A
 Frequencies --   1102.7328              1130.0447              1132.4172
 Red. masses --      1.6784                 2.1876                 1.1450
 Frc consts  --      1.2025                 1.6460                 0.8651
 IR Inten    --      8.8827                 1.9847                 2.0840

                     28                     29                     30
                      A                      A                      A
 Frequencies --   1172.1832              1199.4285              1221.7440
 Red. masses --      1.8022                 1.3581                 2.1773
 Frc consts  --      1.4589                 1.1511                 1.9148
 IR Inten    --     20.2372                 0.6566                 1.5563

                     31                     32                     33
                      A                      A                      A
 Frequencies --   1245.3733              1321.3823              1401.2496
 Red. masses --      1.9025                 1.6387                 1.3511
 Frc consts  --      1.7385                 1.6858                 1.5630
 IR Inten    --     12.6173                 3.2208                 9.4985

                     34                     35                     36
                      A                      A                      A
 Frequencies --   1407.8474              1412.9505              1455.0775
 Red. masses --      1.4646                 1.3744                 1.7773
 Frc consts  --      1.7103                 1.6167                 2.2171
 IR Inten    --      7.8342                 1.9578                13.1720

                     37                     38                     39
                      A                      A                      A
 Frequencies --   1459.6843              1485.6535              1500.4495
 Red. masses --      1.1175                 1.0865                 1.4177
 Frc consts  --      1.4029                 1.4130                 1.8805
 IR Inten    --      0.6514                 3.6909                 1.1393

                     40                     41                     42
                      A                      A                      A
 Frequencies --   1505.3588              1821.8527              2908.0680
 Red. masses --      1.2334                10.8472                 1.0843
 Frc consts  --      1.6467                21.2125                 5.4024
 IR Inten    --      2.0506               169.6888                85.9541

                     43                     44                     45
                      A                      A                      A
 Frequencies --   3044.0690              3093.2111              3104.8349
 Red. masses --      1.0378                 1.0865                 1.1006
 Frc consts  --      5.6662                 6.1246                 6.2512
 IR Inten    --     18.1942                14.0257                12.6936

                     46                     47                     48
                      A                      A                      A
 Frequencies --   3136.8003              3141.1772              3143.0284
 Red. masses --      1.0512                 1.0566                 1.0994
 Frc consts  --      6.0942                 6.1425                 6.3989
 IR Inten    --     14.3184                 9.1795                18.0511

                     49                     50                     51
                      A                      A                      A
 Frequencies --   3175.4854              3219.1550              3233.8138
 Red. masses --      1.0885                 1.1182                 1.1159
 Frc consts  --      6.4672                 6.8275                 6.8753
 IR Inten    --      1.9328                 0.4964                12.3400

 - Thermochemistry -
 -------------------
 Temperature   298.150 Kelvin.  Pressure   1.00000 Atm.
 Atom     1 has atomic number  6 and mass  12.00000

 Molecular mass:   126.06808 amu.
 Principal axes and moments of inertia in atomic units:
                           1         2         3
     Eigenvalues --   820.858961227.376251775.37166
           X            0.99976  -0.02153  -0.00311
           Y            0.02161   0.99933   0.02959
           Z            0.00247  -0.02965   0.99956
 This molecule is an asymmetric top.
 Rotational symmetry number  1.
 Warning -- assumption of classical behavior for rotation
           may cause significant error
 Rotational temperatures (Kelvin)      0.10552     0.07057     0.04879
 Rotational constants (GHZ):           2.19860     1.47041     1.01654
 Zero-point vibrational energy     411174.4 (Joules/Mol)
                                   98.27304 (Kcal/Mol)
 Warning -- explicit consideration of  12 degrees of freedom as
           vibrations may cause significant error
 Vibrational temperatures:     94.40   147.11   219.78   242.78   254.63
          (Kelvin)            351.84   402.00   444.23   642.48   671.22
                              727.20   869.90   992.00  1125.13  1151.08
                             1185.73  1250.42  1322.59  1363.51  1410.51
                             1462.61  1528.44  1531.66  1568.71  1586.58
                             1625.88  1629.29  1686.51  1725.71  1757.81
                             1791.81  1901.17  2016.08  2025.58  2032.92
                             2093.53  2100.16  2137.52  2158.81  2165.87
                             2621.24  4184.06  4379.73  4450.44  4467.16
                             4513.15  4519.45  4522.11  4568.81  4631.64
                             4652.73

 Zero-point correction=                           0.156608 (Hartree/Particle)
 Thermal correction to Energy=                    0.165924
 Thermal correction to Enthalpy=                  0.166868
 Thermal correction to Gibbs Free Energy=         0.122182
 Sum of electronic and zero-point Energies=           -423.006302
 Sum of electronic and thermal Energies=              -422.996986
 Sum of electronic and thermal Enthalpies=            -422.996042
 Sum of electronic and thermal Free Energies=         -423.040728

                     E (Thermal)             CV                S
                      KCal/Mol        Cal/Mol-Kelvin    Cal/Mol-Kelvin
 Total                  104.119             34.002             94.049
 Electronic               0.000              0.000              0.000
 Translational            0.889              2.981             40.409
 Rotational               0.889              2.981             28.971
 Vibrational            102.341             28.041             24.669
 Vibration     1          0.597              1.971              4.281
 Vibration     2          0.604              1.947              3.411
 Vibration     3          0.619              1.900              2.638
 Vibration     4          0.625              1.881              2.449
 Vibration     5          0.628              1.871              2.360
 Vibration     6          0.660              1.772              1.770
 Vibration     7          0.680              1.712              1.537
 Vibration     8          0.698              1.657              1.369
 Vibration     9          0.806              1.369              0.806
 Vibration    10          0.824              1.324              0.747
 Vibration    11          0.861              1.238              0.645
 Vibration    12          0.963              1.022              0.442

 Optimization completed.
    -- Stationary point found.
 Normal termination of Gaussian 09 at Tue Jan 28 02:30:42 2020.
