 Gaussian 09, Revision D.01,
 Gaussian 09:  ES64L-G09RevD.01 24-Apr-2013

 -----------------------------
 # b3lyp 6-31G(2df,p) opt Freq
 -----------------------------

 -----
 titel
 -----
 Symbolic Z-matrix:
 Charge =  0 Multiplicity = 1

 SCF Done:  E(RB3LYP) =  -423.159492303     A.U. after   13 cycles
 Optimization completed.
    -- Stationary point found.
 Normal termination of Gaussian 09 at Tue Jan 28 03:22:20 2020.

 ----------------------------------------------------------------------
 #N Geom=AllCheck Guess=TCheck SCRF=Check GenChk RB3LYP/6-31G(2df,p) Fr
 eq
 ----------------------------------------------------------------------

 Structure from the checkpoint file:  "/scratch/puck/g09_d59d30d4-1ce3-4f3d-9162-691c9f5b08aa/Gau-115276.chk"
 -----
 titel
 -----
 Charge =  0 Multiplicity = 1

                         Standard orientation:
 ---------------------------------------------------------------------
 Center     Atomic      Atomic             Coordinates (Angstroms)
 Number     Number       Type             X           Y           Z
 ---------------------------------------------------------------------
      1          8           0        1.703171   -1.498348    0.567276
      2          6           0        1.386389   -0.547780   -0.445159
      3          6           0        1.591252    0.939773   -0.026214
      4          6           0        0.171775    1.500827    0.119397
      5          6           0       -0.649019    0.712378    1.197096
      6          6           0       -1.177015   -0.166941    0.063408
      7          8           0       -2.404976   -0.803932    0.066702
      8          6           0       -0.670091    0.791949   -0.985098
      9          6           0       -0.067899   -0.590706   -0.902397
     10          1           0        1.014524   -1.450781    1.237393
     11          1           0        2.054259   -0.807556   -1.272095
     12          1           0        2.184310    1.004732    0.890648
     13          1           0        2.130178    1.479062   -0.813199
     14          1           0        0.108524    2.586253    0.187717
     15          1           0       -0.095205    0.258216    2.029617
     16          1           0       -1.460850    1.319504    1.606510
     17          1           0       -2.289044   -1.696288    0.410744
     18          1           0       -1.159277    1.221159   -1.848686
     19          1           0       -0.385320   -1.333059   -1.626677
 ---------------------------------------------------------------------

 SCF Done:  E(RB3LYP) =  -423.159492303     A.U. after    1 cycles

 The electronic state is 1-A.
 Alpha  occ. eigenvalues --  -19.15054 -19.12900 -10.24373 -10.22866 -10.19487
 Alpha  occ. eigenvalues --  -10.18827 -10.18793 -10.18669 -10.17579  -1.03727
 Alpha  occ. eigenvalues --   -1.01139  -0.90446  -0.75036  -0.73760  -0.65374
 Alpha  occ. eigenvalues --   -0.59990  -0.57862  -0.53989  -0.53040  -0.50001
 Alpha  occ. eigenvalues --   -0.46074  -0.43827  -0.42666  -0.40981  -0.40364
 Alpha  occ. eigenvalues --   -0.38718  -0.36238  -0.35534  -0.32767  -0.31831
 Alpha  occ. eigenvalues --   -0.30250  -0.26684  -0.25601  -0.24824
 Alpha virt. eigenvalues --    0.06333   0.08602   0.09908   0.11394   0.12012
 Alpha virt. eigenvalues --    0.13601   0.14463   0.15195   0.17050   0.17710
 Alpha virt. eigenvalues --    0.18287   0.18974   0.19722   0.20834   0.23886

 Mulliken charges:
               1
     1  O   -0.442737
     2  C    0.125152
     3  C   -0.242007
     4  C   -0.039982
     5  C   -0.319512
     6  C    0.392887
     7  O   -0.468435
     8  C   -0.141620
     9  C   -0.152624
    10  H    0.275766
    11  H    0.084663
    12  H    0.102500
    13  H    0.097785
    14  H    0.072551
    15  H    0.075984
    16  H    0.111776
    17  H    0.284486
    18  H    0.094944
    19  H    0.088424
 Sum of Mulliken charges =   0.00000

 Dipole moment (field-independent basis, Debye):
    X=             -0.4442    Y=              0.3705    Z=              0.2522  Tot=              0.6310
 Quadrupole moment (field-independent basis, Debye-Ang):
   XX=            -60.3958   YY=            -51.0349   ZZ=            -50.3240
   XY=              4.8316   XZ=             -2.2180   YZ=             -1.0200

  Exact polarizability:  76.818   1.649  73.631  -2.145  -0.064  70.020
 Approx polarizability: 108.799   0.356 110.435  -3.395  -3.495 107.602

                      1                      2                      3
                      A                      A                      A
 Frequencies --    136.4101               178.9982               233.3480
 Red. masses --      3.6254                 3.4255                 1.1124
 Frc consts  --      0.0397                 0.0647                 0.0357
 IR Inten    --      9.0863                12.8234                25.6966

                      4                      5                      6
                      A                      A                      A
 Frequencies --    282.1176               331.3550               386.5400
 Red. masses --      1.1697                 3.2786                 3.2471
 Frc consts  --      0.0549                 0.2121                 0.2858
 IR Inten    --    124.1786                 2.0508                 1.7030

                      7                      8                      9
                      A                      A                      A
 Frequencies --    412.3124               431.4928               513.9151
 Red. masses --      2.5421                 2.2625                 4.3714
 Frc consts  --      0.2546                 0.2482                 0.6802
 IR Inten    --      7.5214                 1.2607                 7.7947

                     10                     11                     12
                      A                      A                      A
 Frequencies --    572.8815               659.5930               700.4664
 Red. masses --      3.8461                 3.9900                 2.8326
 Frc consts  --      0.7437                 1.0228                 0.8189
 IR Inten    --      0.4241                10.0477                 4.4254

                     13                     14                     15
                      A                      A                      A
 Frequencies --    782.5678               822.5422               843.1371
 Red. masses --      2.5781                 2.7737                 3.0971
 Frc consts  --      0.9302                 1.1057                 1.2972
 IR Inten    --      6.7020                 3.4253                 4.5386

                     16                     17                     18
                      A                      A                      A
 Frequencies --    864.6482               910.1595               921.3558
 Red. masses --      2.3381                 2.6952                 1.5478
 Frc consts  --      1.0299                 1.3154                 0.7742
 IR Inten    --      3.7348                 5.2821                 3.7981

                     19                     20                     21
                      A                      A                      A
 Frequencies --    944.7343               987.4010               991.7577
 Red. masses --      2.0051                 1.8284                 1.8545
 Frc consts  --      1.0544                 1.0503                 1.0747
 IR Inten    --      5.9015                 1.1170                 7.2226

                     22                     23                     24
                      A                      A                      A
 Frequencies --   1022.4518              1043.8273              1063.4483
 Red. masses --      1.8022                 1.7942                 2.0611
 Frc consts  --      1.1100                 1.1518                 1.3733
 IR Inten    --      3.0289                20.6087                21.1670

                     25                     26                     27
                      A                      A                      A
 Frequencies --   1080.3163              1119.0228              1164.2765
 Red. masses --      1.9694                 1.3888                 1.2789
 Frc consts  --      1.3542                 1.0246                 1.0214
 IR Inten    --     43.6260                31.1465                24.1244

                     28                     29                     30
                      A                      A                      A
 Frequencies --   1178.1470              1207.9389              1226.2662
 Red. masses --      1.7730                 1.8830                 1.7850
 Frc consts  --      1.4500                 1.6188                 1.5814
 IR Inten    --     15.2360                17.5899                34.4015

                     31                     32                     33
                      A                      A                      A
 Frequencies --   1240.8435              1260.7839              1285.9977
 Red. masses --      1.7642                 1.4773                 1.5268
 Frc consts  --      1.6004                 1.3836                 1.4877
 IR Inten    --      4.0585                 0.6101                85.3808

                     34                     35                     36
                      A                      A                      A
 Frequencies --   1296.5915              1321.3920              1333.1119
 Red. masses --      1.5024                 2.2315                 1.4873
 Frc consts  --      1.4882                 2.2957                 1.5573
 IR Inten    --     54.7511                24.3335                 1.0530

                     37                     38                     39
                      A                      A                      A
 Frequencies --   1339.9394              1435.8962              1438.9992
 Red. masses --      1.4505                 1.2381                 2.4535
 Frc consts  --      1.5344                 1.5040                 2.9934
 IR Inten    --      2.2955                57.5733                27.4684

                     40                     41                     42
                      A                      A                      A
 Frequencies --   1481.4706              1507.3247              3012.2703
 Red. masses --      1.1094                 1.1923                 1.0660
 Frc consts  --      1.4346                 1.5960                 5.6990
 IR Inten    --      1.6635                 4.5882                56.7961

                     43                     44                     45
                      A                      A                      A
 Frequencies --   3039.3654              3063.4844              3092.5207
 Red. masses --      1.0651                 1.0837                 1.0974
 Frc consts  --      5.7968                 5.9924                 6.1833
 IR Inten    --     19.7815                46.7269                18.3317

                     46                     47                     48
                      A                      A                      A
 Frequencies --   3096.2577              3116.4593              3178.0316
 Red. masses --      1.1020                 1.0893                 1.0894
 Frc consts  --      6.2248                 6.2334                 6.4825
 IR Inten    --     23.2414                37.0120                 9.3874

                     49                     50                     51
                      A                      A                      A
 Frequencies --   3210.6944              3796.4504              3826.4709
 Red. masses --      1.0957                 1.0662                 1.0656
 Frc consts  --      6.6548                 9.0542                 9.1924
 IR Inten    --      9.0819                21.9555                 8.3939

 - Thermochemistry -
 -------------------
 Temperature   298.150 Kelvin.  Pressure   1.00000 Atm.
 Atom     1 has atomic number  8 and mass  15.99491

 Molecular mass:   126.06808 amu.
 Principal axes and moments of inertia in atomic units:
                           1         2         3
     Eigenvalues --   679.698251098.660301320.55629
           X            0.99949   0.03045  -0.00966
           Y           -0.03025   0.99935   0.01985
           Z            0.01026  -0.01955   0.99976
 This molecule is an asymmetric top.
 Rotational symmetry number  1.
 Warning -- assumption of classical behavior for rotation
           may cause significant error
 Rotational temperatures (Kelvin)      0.12743     0.07884     0.06559
 Rotational constants (GHZ):           2.65521     1.64267     1.36665
 Zero-point vibrational energy     421012.4 (Joules/Mol)
                                  100.62439 (Kcal/Mol)
 Warning -- explicit consideration of  10 degrees of freedom as
           vibrations may cause significant error
 Vibrational temperatures:    196.26   257.54   335.74   405.90   476.75
          (Kelvin)            556.14   593.22   620.82   739.41   824.25
                              949.01  1007.81  1125.94  1183.45  1213.08
                             1244.03  1309.51  1325.62  1359.26  1420.65
                             1426.92  1471.08  1501.83  1530.06  1554.33
                             1610.02  1675.13  1695.09  1737.95  1764.32
                             1785.29  1813.98  1850.26  1865.50  1901.19
                             1918.05  1927.87  2065.93  2070.40  2131.50
                             2168.70  4333.98  4372.96  4407.67  4449.44
                             4454.82  4483.88  4572.47  4619.47  5462.24
                             5505.43

 Zero-point correction=                           0.160355 (Hartree/Particle)
 Thermal correction to Energy=                    0.168141
 Thermal correction to Enthalpy=                  0.169085
 Thermal correction to Gibbs Free Energy=         0.128564
 Sum of electronic and zero-point Energies=           -422.999137
 Sum of electronic and thermal Energies=              -422.991351
 Sum of electronic and thermal Enthalpies=            -422.990407
 Sum of electronic and thermal Free Energies=         -423.030928

                     E (Thermal)             CV                S
                      KCal/Mol        Cal/Mol-Kelvin    Cal/Mol-Kelvin
 Total                  105.510             31.639             85.284
 Electronic               0.000              0.000              0.000
 Translational            0.889              2.981             40.409
 Rotational               0.889              2.981             28.380
 Vibrational            103.733             25.678             16.495
 Vibration     1          0.614              1.917              2.854
 Vibration     2          0.629              1.868              2.339
 Vibration     3          0.654              1.790              1.853
 Vibration     4          0.681              1.707              1.521
 Vibration     5          0.714              1.613              1.253
 Vibration     6          0.755              1.499              1.013
 Vibration     7          0.776              1.444              0.918
 Vibration     8          0.793              1.402              0.854
 Vibration     9          0.869              1.219              0.624
 Vibration    10          0.929              1.090              0.499

 Normal termination of Gaussian 09 at Tue Jan 28 04:08:23 2020.
