 Gaussian 09, Revision D.01,
 Gaussian 09:  ES64L-G09RevD.01 24-Apr-2013

 -----------------------------
 # b3lyp 6-31G(2df,p) opt Freq
 -----------------------------

 -----
 titel
 -----
 Symbolic Z-matrix:
 Charge =  0 Multiplicity = 1

 SCF Done:  E(RB3LYP) =  -423.215890914     A.U. after   14 cycles
 Optimization completed.
    -- Stationary point found.
 Normal termination of Gaussian 09 at Tue Jan 28 11:45:51 2020.

 ----------------------------------------------------------------------
 #N Geom=AllCheck Guess=TCheck SCRF=Check GenChk RB3LYP/6-31G(2df,p) Fr
 eq
 ----------------------------------------------------------------------

 Structure from the checkpoint file:  "/scratch/puck/g09_37496626-92a0-4643-b76f-928e3846a461/Gau-89529.chk"
 -----
 titel
 -----
 Charge =  0 Multiplicity = 1

                         Standard orientation:
 ---------------------------------------------------------------------
 Center     Atomic      Atomic             Coordinates (Angstroms)
 Number     Number       Type             X           Y           Z
 ---------------------------------------------------------------------
      1          6           0        2.854792   -0.605167   -0.067381
      2          8           0        1.917000    0.381829   -0.466099
      3          6           0        0.793660    0.488984    0.375940
      4          6           0        0.025891    1.789229    0.082084
      5          6           0       -1.409582    1.350320   -0.046953
      6          6           0       -1.579846    0.019391   -0.017729
      7          6           0       -2.831564   -0.782913   -0.160257
      8          6           0       -0.257625   -0.628691    0.156560
      9          8           0       -0.030639   -1.819046    0.128291
     10          1           0        2.424003   -1.610557   -0.090463
     11          1           0        3.688918   -0.544692   -0.770633
     12          1           0        3.230552   -0.402902    0.948398
     13          1           0        1.103068    0.451115    1.434587
     14          1           0        0.158425    2.551930    0.857021
     15          1           0        0.397296    2.221618   -0.854353
     16          1           0       -2.215134    2.068929   -0.166271
     17          1           0       -3.004173   -1.394678    0.732159
     18          1           0       -3.705728   -0.147651   -0.323116
     19          1           0       -2.742462   -1.482296   -0.998444
 ---------------------------------------------------------------------

 SCF Done:  E(RB3LYP) =  -423.215890914     A.U. after    1 cycles

 The electronic state is 1-A.
 Alpha  occ. eigenvalues --  -19.14208 -19.12569 -10.25720 -10.23741 -10.21590
 Alpha  occ. eigenvalues --  -10.20915 -10.19784 -10.19680 -10.18723  -1.04253
 Alpha  occ. eigenvalues --   -1.02315  -0.85254  -0.76134  -0.70403  -0.66896
 Alpha  occ. eigenvalues --   -0.65058  -0.57465  -0.51485  -0.49998  -0.48169
 Alpha  occ. eigenvalues --   -0.44973  -0.44313  -0.43031  -0.42274  -0.40878
 Alpha  occ. eigenvalues --   -0.38698  -0.38123  -0.37553  -0.37113  -0.35643
 Alpha  occ. eigenvalues --   -0.31865  -0.28336  -0.26332  -0.22123
 Alpha virt. eigenvalues --   -0.04548   0.05007   0.10441   0.11430   0.11634
 Alpha virt. eigenvalues --    0.13660   0.14469   0.15331   0.16502   0.16984
 Alpha virt. eigenvalues --    0.18118   0.18299   0.19041   0.19857   0.22466

 Mulliken charges:
               1
     1  C   -0.244922
     2  O   -0.245249
     3  C    0.022883
     4  C   -0.303255
     5  C   -0.159214
     6  C    0.222783
     7  C   -0.492716
     8  C    0.308799
     9  O   -0.334366
    10  H    0.145080
    11  H    0.122401
    12  H    0.099405
    13  H    0.085737
    14  H    0.115787
    15  H    0.139364
    16  H    0.108618
    17  H    0.140945
    18  H    0.121319
    19  H    0.146601
 Sum of Mulliken charges =   0.00000

 Dipole moment (field-independent basis, Debye):
    X=             -1.0657    Y=              2.2106    Z=              0.7515  Tot=              2.5665
 Quadrupole moment (field-independent basis, Debye-Ang):
   XX=            -47.9144   YY=            -55.6666   ZZ=            -52.8611
   XY=             -2.2648   XZ=              1.6112   YZ=              0.8656

  Exact polarizability:  93.322  -1.495  90.279   1.697   0.214  55.462
 Approx polarizability: 113.951  -5.746 156.898   0.917  -1.715  87.474

                      1                      2                      3
                      A                      A                      A
 Frequencies --     39.1780               103.6181               120.7790
 Red. masses --      4.2655                 1.0529                 1.9469
 Frc consts  --      0.0039                 0.0067                 0.0167
 IR Inten    --      1.9817                 0.2712                 4.2738

                      4                      5                      6
                      A                      A                      A
 Frequencies --    181.9410               218.6378               250.9892
 Red. masses --      1.5619                 2.3011                 2.3474
 Frc consts  --      0.0305                 0.0648                 0.0871
 IR Inten    --      2.4896                 0.3052                 5.3747

                      7                      8                      9
                      A                      A                      A
 Frequencies --    263.8535               284.9554               373.8642
 Red. masses --      4.6301                 2.9999                 3.7147
 Frc consts  --      0.1899                 0.1435                 0.3059
 IR Inten    --      4.4939                 3.6322                 0.1845

                     10                     11                     12
                      A                      A                      A
 Frequencies --    416.8487               530.9449               572.7107
 Red. masses --      3.5044                 3.5300                 3.7620
 Frc consts  --      0.3588                 0.5863                 0.7270
 IR Inten    --      1.4298                10.5503                 3.9255

                     13                     14                     15
                      A                      A                      A
 Frequencies --    681.3332               709.5221               827.6173
 Red. masses --      4.3387                 5.2033                 3.3606
 Frc consts  --      1.1867                 1.5433                 1.3562
 IR Inten    --      2.6568                 2.3475                 2.2744

                     16                     17                     18
                      A                      A                      A
 Frequencies --    842.2156               918.9852               940.7887
 Red. masses --      1.3742                 2.5737                 2.0012
 Frc consts  --      0.5743                 1.2807                 1.0436
 IR Inten    --      6.4665                28.5103                 3.3614

                     19                     20                     21
                      A                      A                      A
 Frequencies --   1015.7330              1034.9994              1057.2471
 Red. masses --      2.3897                 2.4397                 1.9997
 Frc consts  --      1.4526                 1.5398                 1.3170
 IR Inten    --     19.0027                 9.3239                25.0770

                     22                     23                     24
                      A                      A                      A
 Frequencies --   1067.7071              1071.1278              1156.3595
 Red. masses --      1.9281                 1.9684                 3.5905
 Frc consts  --      1.2951                 1.3306                 2.8287
 IR Inten    --     15.3786                15.9922               102.9969

                     25                     26                     27
                      A                      A                      A
 Frequencies --   1174.5451              1182.8193              1221.3301
 Red. masses --      1.2248                 1.2701                 1.7390
 Frc consts  --      0.9956                 1.0469                 1.5283
 IR Inten    --      9.4912                 1.4431                16.5090

                     28                     29                     30
                      A                      A                      A
 Frequencies --   1243.4021              1286.6027              1311.9304
 Red. masses --      1.6861                 1.8453                 1.4560
 Frc consts  --      1.5359                 1.7997                 1.4765
 IR Inten    --     22.7140                 9.7312                 3.7092

                     31                     32                     33
                      A                      A                      A
 Frequencies --   1343.9957              1375.7256              1413.8064
 Red. masses --      2.2629                 1.5883                 1.2899
 Frc consts  --      2.4083                 1.7711                 1.5192
 IR Inten    --     41.9400                 4.3972                 2.9791

                     34                     35                     36
                      A                      A                      A
 Frequencies --   1472.9071              1473.4693              1477.7386
 Red. masses --      1.1179                 1.0438                 1.1150
 Frc consts  --      1.4289                 1.3352                 1.4346
 IR Inten    --      0.6498                 5.4933                 1.8914

                     37                     38                     39
                      A                      A                      A
 Frequencies --   1481.2914              1484.9624              1519.2368
 Red. masses --      1.0747                 1.0588                 1.0514
 Frc consts  --      1.3893                 1.3756                 1.4298
 IR Inten    --      7.3989                10.5770                 7.4169

                     40                     41                     42
                      A                      A                      A
 Frequencies --   1696.6308              1799.8032              2955.6731
 Red. masses --      6.9688                12.5387                 1.0812
 Frc consts  --     11.8191                23.9305                 5.5651
 IR Inten    --     12.6944               207.0698                24.3154

                     43                     44                     45
                      A                      A                      A
 Frequencies --   2981.1394              3036.7831              3041.1029
 Red. masses --      1.0492                 1.0360                 1.0597
 Frc consts  --      5.4937                 5.6293                 5.7743
 IR Inten    --     70.9698                16.5970                19.3349

                     46                     47                     48
                      A                      A                      A
 Frequencies --   3074.7068              3080.8563              3091.2547
 Red. masses --      1.1027                 1.0818                 1.0985
 Frc consts  --      6.1422                 6.0500                 6.1844
 IR Inten    --     15.1364                30.3064                 9.6911

                     49                     50                     51
                      A                      A                      A
 Frequencies --   3121.9653              3125.9052              3178.3949
 Red. masses --      1.1023                 1.1053                 1.0935
 Frc consts  --      6.3299                 6.3636                 6.5084
 IR Inten    --     13.9681                19.6823                14.4897

 - Thermochemistry -
 -------------------
 Temperature   298.150 Kelvin.  Pressure   1.00000 Atm.
 Atom     1 has atomic number  6 and mass  12.00000

 Molecular mass:   126.06808 amu.
 Principal axes and moments of inertia in atomic units:
                           1         2         3
     Eigenvalues --   611.111541410.283561929.29467
           X            0.99994  -0.00553   0.00932
           Y            0.00544   0.99995   0.00873
           Z           -0.00936  -0.00868   0.99992
 This molecule is an asymmetric top.
 Rotational symmetry number  1.
 Warning -- assumption of classical behavior for rotation
           may cause significant error
 Rotational temperatures (Kelvin)      0.14173     0.06142     0.04489
 Rotational constants (GHZ):           2.95321     1.27970     0.93544
 Zero-point vibrational energy     414685.1 (Joules/Mol)
                                   99.11212 (Kcal/Mol)
 Warning -- explicit consideration of  12 degrees of freedom as
           vibrations may cause significant error
 Vibrational temperatures:     56.37   149.08   173.77   261.77   314.57
          (Kelvin)            361.12   379.63   409.99   537.91   599.75
                              763.91   824.00   980.29  1020.84  1190.76
                             1211.76  1322.21  1353.58  1461.41  1489.13
                             1521.14  1536.19  1541.11  1663.74  1689.91
                             1701.81  1757.22  1788.98  1851.13  1887.57
                             1933.71  1979.36  2034.15  2119.18  2119.99
                             2126.13  2131.25  2136.53  2185.84  2441.07
                             2589.51  4252.55  4289.19  4369.25  4375.46
                             4423.81  4432.66  4447.62  4491.81  4497.47
                             4573.00

 Zero-point correction=                           0.157945 (Hartree/Particle)
 Thermal correction to Energy=                    0.167363
 Thermal correction to Enthalpy=                  0.168307
 Thermal correction to Gibbs Free Energy=         0.123026
 Sum of electronic and zero-point Energies=           -423.057946
 Sum of electronic and thermal Energies=              -423.048528
 Sum of electronic and thermal Enthalpies=            -423.047583
 Sum of electronic and thermal Free Energies=         -423.092865

                     E (Thermal)             CV                S
                      KCal/Mol        Cal/Mol-Kelvin    Cal/Mol-Kelvin
 Total                  105.022             33.575             95.302
 Electronic               0.000              0.000              0.000
 Translational            0.889              2.981             40.409
 Rotational               0.889              2.981             28.899
 Vibrational            103.245             27.613             25.995
 Vibration     1          0.594              1.981              5.300
 Vibration     2          0.605              1.946              3.385
 Vibration     3          0.609              1.932              3.088
 Vibration     4          0.630              1.864              2.308
 Vibration     5          0.646              1.813              1.970
 Vibration     6          0.663              1.761              1.724
 Vibration     7          0.670              1.739              1.636
 Vibration     8          0.683              1.702              1.504
 Vibration     9          0.745              1.526              1.064
 Vibration    10          0.780              1.434              0.903
 Vibration    11          0.886              1.182              0.585
 Vibration    12          0.929              1.090              0.499

 Normal termination of Gaussian 09 at Tue Jan 28 13:17:16 2020.
