 Gaussian 09, Revision D.01,
 Gaussian 09:  ES64L-G09RevD.01 24-Apr-2013

 -----------------------------
 # b3lyp 6-31G(2df,p) opt Freq
 -----------------------------

 -----
 titel
 -----
 Symbolic Z-matrix:
 Charge =  0 Multiplicity = 1

 SCF Done:  E(RB3LYP) =  -423.160708044     A.U. after   13 cycles
 Optimization completed.
    -- Stationary point found.
 Normal termination of Gaussian 09 at Mon Jan 27 23:52:53 2020.

 ----------------------------------------------------------------------
 #N Geom=AllCheck Guess=TCheck SCRF=Check GenChk RB3LYP/6-31G(2df,p) Fr
 eq
 ----------------------------------------------------------------------

 Structure from the checkpoint file:  "/scratch/puck/g09_02170745-7465-43f5-b80b-b69498a8068d/Gau-68245.chk"
 -----
 titel
 -----
 Charge =  0 Multiplicity = 1

                         Standard orientation:
 ---------------------------------------------------------------------
 Center     Atomic      Atomic             Coordinates (Angstroms)
 Number     Number       Type             X           Y           Z
 ---------------------------------------------------------------------
      1          6           0        2.707133   -0.261467   -0.078463
      2          6           0        1.246510   -0.126259   -0.495112
      3          6           0        0.569835    1.161281    0.033867
      4          8           0       -0.663125    1.458235   -0.661613
      5          6           0       -1.448649    0.690033    0.285427
      6          6           0       -1.945483   -0.629191   -0.289374
      7          8           0       -0.841941   -1.536382   -0.270824
      8          6           0        0.267795   -0.964290    0.402397
      9          6           0       -0.195293    0.341578    1.106703
     10          1           0        2.835431   -0.083150    0.996257
     11          1           0        3.083037   -1.267420   -0.292193
     12          1           0        3.339313    0.457743   -0.609343
     13          1           0        1.116465   -0.290160   -1.568000
     14          1           0        1.173847    2.054893    0.208704
     15          1           0       -2.237308    1.298938    0.737758
     16          1           0       -2.765934   -1.034642    0.320621
     17          1           0       -2.302239   -0.502255   -1.317859
     18          1           0        0.746847   -1.740914    1.004956
     19          1           0       -0.160021    0.462027    2.185930
 ---------------------------------------------------------------------

 SCF Done:  E(RB3LYP) =  -423.160708044     A.U. after    1 cycles

 The electronic state is 1-A.
 Alpha  occ. eigenvalues --  -19.13565 -19.13436 -10.23838 -10.23332 -10.23153
 Alpha  occ. eigenvalues --  -10.22557 -10.19251 -10.18297 -10.18141  -1.05527
 Alpha  occ. eigenvalues --   -1.01757  -0.82684  -0.75295  -0.72266  -0.66265
 Alpha  occ. eigenvalues --   -0.62504  -0.56604  -0.54224  -0.51523  -0.49227
 Alpha  occ. eigenvalues --   -0.46459  -0.45476  -0.42848  -0.42155  -0.39840
 Alpha  occ. eigenvalues --   -0.39712  -0.37668  -0.35866  -0.34112  -0.32143
 Alpha  occ. eigenvalues --   -0.29992  -0.28694  -0.24774  -0.24109
 Alpha virt. eigenvalues --    0.07205   0.08702   0.09415   0.12052   0.13220
 Alpha virt. eigenvalues --    0.13318   0.15022   0.15544   0.16345   0.16470
 Alpha virt. eigenvalues --    0.17103   0.17937   0.18824   0.19810   0.21817

 Mulliken charges:
               1
     1  C   -0.413584
     2  C   -0.023613
     3  C    0.104091
     4  O   -0.315570
     5  C    0.094147
     6  C   -0.090947
     7  O   -0.273320
     8  C    0.097787
     9  C   -0.147831
    10  H    0.113765
    11  H    0.122808
    12  H    0.120598
    13  H    0.085957
    14  H    0.075004
    15  H    0.081516
    16  H    0.095645
    17  H    0.116353
    18  H    0.078025
    19  H    0.079172
 Sum of Mulliken charges =   0.00000

 Dipole moment (field-independent basis, Debye):
    X=              0.4698    Y=              0.3296    Z=              1.7184  Tot=              1.8117
 Quadrupole moment (field-independent basis, Debye-Ang):
   XX=            -48.7200   YY=            -57.8778   ZZ=            -52.6172
   XY=             -0.1909   XZ=             -1.2237   YZ=              1.0782

  Exact polarizability:  89.116   0.405  68.204  -0.643   0.321  64.408
 Approx polarizability: 115.030   0.646 103.180   0.339  -1.342 100.667

                      1                      2                      3
                      A                      A                      A
 Frequencies --     94.0788               206.3029               223.9823
 Red. masses --      3.0936                 2.8671                 1.0886
 Frc consts  --      0.0161                 0.0719                 0.0322
 IR Inten    --      2.6207                 2.6866                 0.1613

                      4                      5                      6
                      A                      A                      A
 Frequencies --    259.2950               338.6105               359.1042
 Red. masses --      2.5205                 3.7441                 2.9115
 Frc consts  --      0.0998                 0.2529                 0.2212
 IR Inten    --      0.1559                 2.3629                 2.5250

                      7                      8                      9
                      A                      A                      A
 Frequencies --    461.3292               665.0907               672.6066
 Red. masses --      4.6076                 4.3198                 4.9063
 Frc consts  --      0.5778                 1.1258                 1.3078
 IR Inten    --      3.1100                11.4266                 0.7401

                     10                     11                     12
                      A                      A                      A
 Frequencies --    757.2263               828.2500               834.4369
 Red. masses --      5.8332                 1.8016                 2.1179
 Frc consts  --      1.9706                 0.7282                 0.8689
 IR Inten    --      6.1967                 9.8856                 9.1650

                     13                     14                     15
                      A                      A                      A
 Frequencies --    849.7805               885.1377               901.4113
 Red. masses --      1.8396                 2.1913                 2.3830
 Frc consts  --      0.7827                 1.0115                 1.1408
 IR Inten    --      9.7225                 8.2233                 5.2920

                     16                     17                     18
                      A                      A                      A
 Frequencies --    926.9381               946.0953               976.1481
 Red. masses --      2.4707                 2.5741                 2.8524
 Frc consts  --      1.2507                 1.3575                 1.6014
 IR Inten    --     19.5564                11.8867                 6.7370

                     19                     20                     21
                      A                      A                      A
 Frequencies --    986.2050              1027.7615              1056.5657
 Red. masses --      2.5050                 2.5457                 1.9752
 Frc consts  --      1.4355                 1.5843                 1.2991
 IR Inten    --      8.3674                28.2079                 4.0136

                     22                     23                     24
                      A                      A                      A
 Frequencies --   1071.5206              1076.9200              1116.0395
 Red. masses --      2.2776                 1.7011                 3.6107
 Frc consts  --      1.5408                 1.1624                 2.6497
 IR Inten    --      4.1437                42.5516                80.1853

                     25                     26                     27
                      A                      A                      A
 Frequencies --   1130.5306              1172.3145              1201.8605
 Red. masses --      3.5517                 1.9660                 1.5443
 Frc consts  --      2.6746                 1.5919                 1.3143
 IR Inten    --     60.1191                 1.6781                 3.6971

                     28                     29                     30
                      A                      A                      A
 Frequencies --   1208.3449              1225.9444              1244.4389
 Red. masses --      1.8316                 1.3923                 1.3569
 Frc consts  --      1.5756                 1.2329                 1.2381
 IR Inten    --     18.6136                 1.8162                 0.0627

                     31                     32                     33
                      A                      A                      A
 Frequencies --   1261.3306              1278.2064              1307.3232
 Red. masses --      1.7507                 1.2065                 1.4694
 Frc consts  --      1.6410                 1.1614                 1.4796
 IR Inten    --      5.2900                 7.0474                 1.4284

                     34                     35                     36
                      A                      A                      A
 Frequencies --   1314.3409              1340.0663              1361.8415
 Red. masses --      1.5610                 1.3937                 1.4854
 Frc consts  --      1.5888                 1.4746                 1.6231
 IR Inten    --      0.3869                 7.2149                 4.7823

                     37                     38                     39
                      A                      A                      A
 Frequencies --   1391.1798              1410.8304              1496.5310
 Red. masses --      1.4397                 1.2292                 1.0450
 Frc consts  --      1.6417                 1.4416                 1.3790
 IR Inten    --      2.8694                 2.8102                 4.6373

                     40                     41                     42
                      A                      A                      A
 Frequencies --   1497.9014              1503.4664              2998.9286
 Red. masses --      1.0492                 1.0906                 1.0653
 Frc consts  --      1.3870                 1.4524                 5.6451
 IR Inten    --      3.4253                 1.2490                62.4096

                     43                     44                     45
                      A                      A                      A
 Frequencies --   3024.3647              3062.9689              3064.1789
 Red. masses --      1.0364                 1.0904                 1.0953
 Frc consts  --      5.5856                 6.0275                 6.0590
 IR Inten    --     21.6575                60.2346                43.0608

                     46                     47                     48
                      A                      A                      A
 Frequencies --   3069.0314              3074.5212              3080.7532
 Red. masses --      1.0887                 1.0886                 1.0907
 Frc consts  --      6.0418                 6.0628                 6.0994
 IR Inten    --     29.4133                 7.8649                39.5052

                     49                     50                     51
                      A                      A                      A
 Frequencies --   3093.5712              3102.1352              3150.7957
 Red. masses --      1.0955                 1.1020                 1.0927
 Frc consts  --      6.1771                 6.2481                 6.3915
 IR Inten    --     41.3383                24.9860                21.6611

 - Thermochemistry -
 -------------------
 Temperature   298.150 Kelvin.  Pressure   1.00000 Atm.
 Atom     1 has atomic number  6 and mass  12.00000

 Molecular mass:   126.06808 amu.
 Principal axes and moments of inertia in atomic units:
                           1         2         3
     Eigenvalues --   594.508051045.784321340.34294
           X            0.99998  -0.00628  -0.00317
           Y            0.00634   0.99983   0.01723
           Z            0.00306  -0.01725   0.99985
 This molecule is an asymmetric top.
 Rotational symmetry number  1.
 Warning -- assumption of classical behavior for rotation
           may cause significant error
 Rotational temperatures (Kelvin)      0.14569     0.08282     0.06462
 Rotational constants (GHZ):           3.03569     1.72573     1.34648
 Zero-point vibrational energy     422213.2 (Joules/Mol)
                                  100.91138 (Kcal/Mol)
 Warning -- explicit consideration of   7 degrees of freedom as
           vibrations may cause significant error
 Vibrational temperatures:    135.36   296.82   322.26   373.07   487.18
          (Kelvin)            516.67   663.75   956.92   967.73  1089.48
                             1191.67  1200.57  1222.64  1273.51  1296.93
                             1333.66  1361.22  1404.46  1418.93  1478.72
                             1520.16  1541.68  1549.45  1605.73  1626.58
                             1686.70  1729.21  1738.54  1763.86  1790.47
                             1814.77  1839.05  1880.94  1891.04  1928.05
                             1959.38  2001.59  2029.87  2153.17  2155.14
                             2163.15  4314.78  4351.38  4406.92  4408.66
                             4415.65  4423.54  4432.51  4450.95  4463.28
                             4533.29

 Zero-point correction=                           0.160813 (Hartree/Particle)
 Thermal correction to Energy=                    0.168090
 Thermal correction to Enthalpy=                  0.169035
 Thermal correction to Gibbs Free Energy=         0.129118
 Sum of electronic and zero-point Energies=           -422.999896
 Sum of electronic and thermal Energies=              -422.992618
 Sum of electronic and thermal Enthalpies=            -422.991673
 Sum of electronic and thermal Free Energies=         -423.031590

                     E (Thermal)             CV                S
                      KCal/Mol        Cal/Mol-Kelvin    Cal/Mol-Kelvin
 Total                  105.478             28.873             84.012
 Electronic               0.000              0.000              0.000
 Translational            0.889              2.981             40.409
 Rotational               0.889              2.981             28.212
 Vibrational            103.701             22.911             15.391
 Vibration     1          0.603              1.953              3.573
 Vibration     2          0.641              1.831              2.076
 Vibration     3          0.649              1.805              1.927
 Vibration     4          0.668              1.747              1.667
 Vibration     5          0.719              1.598              1.219
 Vibration     6          0.734              1.557              1.126
 Vibration     7          0.819              1.336              0.762

 Optimization completed.
    -- Stationary point found.
 Normal termination of Gaussian 09 at Tue Jan 28 00:38:35 2020.
