 Gaussian 09, Revision D.01,
 Gaussian 09:  ES64L-G09RevD.01 24-Apr-2013

 -----------------------------
 # b3lyp 6-31G(2df,p) opt Freq
 -----------------------------

 -----
 titel
 -----
 Symbolic Z-matrix:
 Charge =  0 Multiplicity = 1

 SCF Done:  E(RB3LYP) =  -423.200410189     A.U. after   14 cycles
 Optimization completed.
    -- Stationary point found.
 Normal termination of Gaussian 09 at Tue Jan 28 09:07:34 2020.

 ----------------------------------------------------------------------
 #N Geom=AllCheck Guess=TCheck SCRF=Check GenChk RB3LYP/6-31G(2df,p) Fr
 eq
 ----------------------------------------------------------------------

 Structure from the checkpoint file:  "/scratch/puck/g09_23b20279-a80a-4dcb-8c9b-0de555621c4f/Gau-20091.chk"
 -----
 titel
 -----
 Charge =  0 Multiplicity = 1

                         Standard orientation:
 ---------------------------------------------------------------------
 Center     Atomic      Atomic             Coordinates (Angstroms)
 Number     Number       Type             X           Y           Z
 ---------------------------------------------------------------------
      1          8           0       -0.345762    2.368836   -0.078706
      2          6           0       -1.138119    1.195452   -0.019881
      3          6           0       -0.288084   -0.089547   -0.017470
      4          6           0        0.738054   -0.150538   -1.198102
      5          6           0        2.112167   -0.538990   -0.587783
      6          6           0        1.887725   -0.414169    0.896863
      7          6           0        0.612773   -0.180788    1.204909
      8          6           0       -1.190482   -1.316442   -0.041289
      9          8           0       -2.391961   -1.297310    0.038949
     10          1           0        0.271197    2.341189    0.661344
     11          1           0       -1.799581    1.195134    0.857601
     12          1           0       -1.780610    1.214571   -0.904553
     13          1           0        0.423094   -0.847708   -1.979864
     14          1           0        0.786465    0.845338   -1.642957
     15          1           0        2.406344   -1.564111   -0.848480
     16          1           0        2.924501    0.106285   -0.941844
     17          1           0        2.688467   -0.526656    1.620505
     18          1           0        0.212211   -0.087696    2.209595
     19          1           0       -0.634506   -2.278418   -0.136777
 ---------------------------------------------------------------------

 SCF Done:  E(RB3LYP) =  -423.200410189     A.U. after    1 cycles

 The electronic state is 1-A.
 Alpha  occ. eigenvalues --  -19.14314 -19.13750 -10.27144 -10.22620 -10.20586
 Alpha  occ. eigenvalues --  -10.20127 -10.19761 -10.19662 -10.19286  -1.05037
 Alpha  occ. eigenvalues --   -1.01873  -0.86090  -0.75739  -0.72417  -0.66396
 Alpha  occ. eigenvalues --   -0.61865  -0.57088  -0.53938  -0.51822  -0.47910
 Alpha  occ. eigenvalues --   -0.47795  -0.45441  -0.43507  -0.43317  -0.39989
 Alpha  occ. eigenvalues --   -0.38947  -0.36515  -0.35995  -0.35833  -0.34601
 Alpha  occ. eigenvalues --   -0.32528  -0.27836  -0.27417  -0.24087
 Alpha virt. eigenvalues --   -0.03320   0.01663   0.08393   0.10243   0.11211
 Alpha virt. eigenvalues --    0.12008   0.12990   0.14255   0.14945   0.16324
 Alpha virt. eigenvalues --    0.17328   0.18862   0.19658   0.20630   0.21749

 Mulliken charges:
               1
     1  O   -0.426932
     2  C   -0.106324
     3  C    0.145063
     4  C   -0.284600
     5  C   -0.257318
     6  C   -0.061707
     7  C   -0.145296
     8  C    0.129433
     9  O   -0.259429
    10  H    0.280875
    11  H    0.102626
    12  H    0.120583
    13  H    0.105727
    14  H    0.136766
    15  H    0.115022
    16  H    0.114181
    17  H    0.105304
    18  H    0.107173
    19  H    0.078852
 Sum of Mulliken charges =   0.00000

 Dipole moment (field-independent basis, Debye):
    X=              3.1466    Y=             -0.6262    Z=              0.7404  Tot=              3.2926
 Quadrupole moment (field-independent basis, Debye-Ang):
   XX=            -57.7839   YY=            -57.9445   ZZ=            -50.0776
   XY=             -2.4347   XZ=              0.7304   YZ=              2.8392

  Exact polarizability:  95.220  -2.888  68.222  -1.617   1.855  68.372
 Approx polarizability: 148.569  -3.840  98.766  -5.072   2.587 102.420

                      1                      2                      3
                      A                      A                      A
 Frequencies --     35.0889                72.1474               132.8068
 Red. masses --      2.5356                 4.2009                 3.0914
 Frc consts  --      0.0018                 0.0129                 0.0321
 IR Inten    --      0.2563                 4.5454                 3.3067

                      4                      5                      6
                      A                      A                      A
 Frequencies --    188.1678               221.5600               282.2845
 Red. masses --      4.6818                 2.2106                 2.3398
 Frc consts  --      0.0977                 0.0639                 0.1098
 IR Inten    --      1.6249                 4.2006                 3.6891

                      7                      8                      9
                      A                      A                      A
 Frequencies --    323.6748               372.8229               393.3330
 Red. masses --      1.4300                 1.8890                 3.0607
 Frc consts  --      0.0883                 0.1547                 0.2790
 IR Inten    --     73.2460                26.3174                32.5308

                     10                     11                     12
                      A                      A                      A
 Frequencies --    446.9855               587.9353               665.9009
 Red. masses --      3.0922                 3.1812                 3.1367
 Frc consts  --      0.3640                 0.6479                 0.8195
 IR Inten    --      3.9793                 4.3560                 2.7419

                     13                     14                     15
                      A                      A                      A
 Frequencies --    726.4014               768.3773               793.8664
 Red. masses --      2.3983                 2.1646                 2.6710
 Frc consts  --      0.7456                 0.7530                 0.9918
 IR Inten    --     50.1731                27.7222                 0.5072

                     16                     17                     18
                      A                      A                      A
 Frequencies --    827.7259               890.4739               939.6750
 Red. masses --      1.7019                 2.1692                 2.5519
 Frc consts  --      0.6870                 1.0134                 1.3276
 IR Inten    --      2.1742                 2.7204                 6.6290

                     19                     20                     21
                      A                      A                      A
 Frequencies --    969.5548               983.9586               998.7539
 Red. masses --      1.5242                 1.4275                 2.2588
 Frc consts  --      0.8442                 0.8143                 1.3275
 IR Inten    --      9.9437                 2.0687                 5.1475

                     22                     23                     24
                      A                      A                      A
 Frequencies --   1013.0230              1079.3544              1091.1527
 Red. masses --      1.8319                 4.2866                 1.8981
 Frc consts  --      1.1076                 2.9423                 1.3315
 IR Inten    --     16.1346                75.1694                 3.9756

                     25                     26                     27
                      A                      A                      A
 Frequencies --   1115.5102              1132.8657              1166.3827
 Red. masses --      1.6951                 1.6806                 1.8016
 Frc consts  --      1.2428                 1.2708                 1.4441
 IR Inten    --      2.4501                 1.4899                10.1716

                     28                     29                     30
                      A                      A                      A
 Frequencies --   1216.7136              1242.2943              1272.5940
 Red. masses --      1.6471                 1.4198                 1.3683
 Frc consts  --      1.4366                 1.2910                 1.3056
 IR Inten    --      9.6559                15.3905                 2.8731

                     31                     32                     33
                      A                      A                      A
 Frequencies --   1312.1564              1320.7299              1368.4695
 Red. masses --      1.3018                 1.5232                 1.3595
 Frc consts  --      1.3206                 1.5654                 1.5000
 IR Inten    --      1.8881                 1.1607                 1.6941

                     34                     35                     36
                      A                      A                      A
 Frequencies --   1382.4294              1415.1477              1425.8109
 Red. masses --      1.4919                 1.2102                 1.2394
 Frc consts  --      1.6798                 1.4280                 1.4845
 IR Inten    --      5.7888                41.9522                13.1551

                     37                     38                     39
                      A                      A                      A
 Frequencies --   1475.9701              1494.6692              1499.8556
 Red. masses --      1.0813                 1.0926                 1.0880
 Frc consts  --      1.3878                 1.4381                 1.4420
 IR Inten    --      1.4317                 4.3055                 2.0900

                     40                     41                     42
                      A                      A                      A
 Frequencies --   1677.7050              1820.1969              2857.6794
 Red. masses --      6.4444                10.8939                 1.0828
 Frc consts  --     10.6872                21.2653                 5.2099
 IR Inten    --      1.4108               202.3366                97.8784

                     43                     44                     45
                      A                      A                      A
 Frequencies --   3010.6699              3022.0627              3053.2064
 Red. masses --      1.0686                 1.0643                 1.0976
 Frc consts  --      5.7070                 5.7269                 6.0285
 IR Inten    --     43.0003                31.0829                19.3531

                     46                     47                     48
                      A                      A                      A
 Frequencies --   3062.8741              3093.6652              3116.8416
 Red. masses --      1.0631                 1.0951                 1.1020
 Frc consts  --      5.8759                 6.1749                 6.3074
 IR Inten    --     23.0810                19.8127                 7.3964

                     49                     50                     51
                      A                      A                      A
 Frequencies --   3174.2551              3200.2177              3795.2936
 Red. masses --      1.0842                 1.1034                 1.0657
 Frc consts  --      6.4363                 6.6580                 9.0443
 IR Inten    --      2.7873                17.7139                16.3406

 - Thermochemistry -
 -------------------
 Temperature   298.150 Kelvin.  Pressure   1.00000 Atm.
 Atom     1 has atomic number  8 and mass  15.99491

 Molecular mass:   126.06808 amu.
 Principal axes and moments of inertia in atomic units:
                           1         2         3
     Eigenvalues --   873.982021180.445681580.13535
           X            0.99689  -0.07824  -0.00983
           Y            0.07843   0.99671   0.02045
           Z            0.00820  -0.02116   0.99974
 This molecule is an asymmetric top.
 Rotational symmetry number  1.
 Warning -- assumption of classical behavior for rotation
           may cause significant error
 Rotational temperatures (Kelvin)      0.09910     0.07337     0.05481
 Rotational constants (GHZ):           2.06496     1.52886     1.14214
 Zero-point vibrational energy     415889.5 (Joules/Mol)
                                   99.39997 (Kcal/Mol)
 Warning -- explicit consideration of  11 degrees of freedom as
           vibrations may cause significant error
 Vibrational temperatures:     50.48   103.80   191.08   270.73   318.78
          (Kelvin)            406.14   465.70   536.41   565.92   643.11
                              845.91   958.08  1045.13  1105.52  1142.20
                             1190.91  1281.19  1351.98  1394.97  1415.70
                             1436.98  1457.51  1552.95  1569.92  1604.97
                             1629.94  1678.16  1750.58  1787.38  1830.98
                             1887.90  1900.23  1968.92  1989.01  2036.08
                             2051.42  2123.59  2150.49  2157.96  2413.84
                             2618.85  4111.56  4331.68  4348.07  4392.88
                             4406.79  4451.09  4484.43  4567.04  4604.39
                             5460.57

 Zero-point correction=                           0.158404 (Hartree/Particle)
 Thermal correction to Energy=                    0.167547
 Thermal correction to Enthalpy=                  0.168491
 Thermal correction to Gibbs Free Energy=         0.123535
 Sum of electronic and zero-point Energies=           -423.042006
 Sum of electronic and thermal Energies=              -423.032863
 Sum of electronic and thermal Enthalpies=            -423.031919
 Sum of electronic and thermal Free Energies=         -423.076875

                     E (Thermal)             CV                S
                      KCal/Mol        Cal/Mol-Kelvin    Cal/Mol-Kelvin
 Total                  105.137             33.299             94.617
 Electronic               0.000              0.000              0.000
 Translational            0.889              2.981             40.409
 Rotational               0.889              2.981             28.879
 Vibrational            103.360             27.337             25.329
 Vibration     1          0.594              1.982              5.519
 Vibration     2          0.598              1.967              4.094
 Vibration     3          0.613              1.921              2.905
 Vibration     4          0.633              1.856              2.246
 Vibration     5          0.648              1.808              1.946
 Vibration     6          0.681              1.706              1.520
 Vibration     7          0.708              1.628              1.291
 Vibration     8          0.744              1.528              1.068
 Vibration     9          0.761              1.484              0.987
 Vibration    10          0.806              1.368              0.805
 Vibration    11          0.945              1.058              0.471

 Optimization completed on the basis of negligible forces.
    -- Stationary point found.
 Normal termination of Gaussian 09 at Tue Jan 28 09:51:48 2020.
