 Gaussian 09, Revision D.01,
 Gaussian 09:  ES64L-G09RevD.01 24-Apr-2013

 -----------------------------
 # b3lyp 6-31G(2df,p) opt Freq
 -----------------------------

 -----
 titel
 -----
 Symbolic Z-matrix:
 Charge =  0 Multiplicity = 1

 SCF Done:  E(RB3LYP) =  -423.177144019     A.U. after   13 cycles
 Optimization completed.
    -- Stationary point found.
 Normal termination of Gaussian 09 at Tue Jan 28 00:01:13 2020.

 ----------------------------------------------------------------------
 #N Geom=AllCheck Guess=TCheck SCRF=Check GenChk RB3LYP/6-31G(2df,p) Fr
 eq
 ----------------------------------------------------------------------

 Structure from the checkpoint file:  "/scratch/puck/g09_03890ff0-345c-4933-b904-3f67e8f07787/Gau-2002.chk"
 -----
 titel
 -----
 Charge =  0 Multiplicity = 1

                         Standard orientation:
 ---------------------------------------------------------------------
 Center     Atomic      Atomic             Coordinates (Angstroms)
 Number     Number       Type             X           Y           Z
 ---------------------------------------------------------------------
      1          6           0       -2.423534   -1.046301    0.497439
      2          6           0       -1.059850   -0.604200    0.073476
      3          6           0       -0.102812   -1.332605   -0.509377
      4          6           0        1.135370   -0.539027   -0.796894
      5          8           0        2.212535   -0.746774    0.165631
      6          6           0        1.929092    0.512151    0.806576
      7          6           0        0.828325    0.863835   -0.217634
      8          6           0       -0.635009    0.841957    0.260718
      9          8           0       -1.506936    1.660674   -0.519072
     10          1           0       -2.558526   -0.920191    1.579502
     11          1           0       -3.188001   -0.430913    0.011126
     12          1           0       -2.605440   -2.095163    0.250677
     13          1           0       -0.184911   -2.389860   -0.738792
     14          1           0        1.514311   -0.641314   -1.819369
     15          1           0        1.579946    0.384563    1.841089
     16          1           0        2.806053    1.170339    0.808662
     17          1           0        1.037141    1.726034   -0.851217
     18          1           0       -0.710673    1.133374    1.322179
     19          1           0       -1.364189    2.577059   -0.262152
 ---------------------------------------------------------------------

 SCF Done:  E(RB3LYP) =  -423.177144019     A.U. after    1 cycles

 The electronic state is 1-A.
 Alpha  occ. eigenvalues --  -19.13904 -19.12374 -10.23682 -10.22919 -10.22676
 Alpha  occ. eigenvalues --  -10.19178 -10.18685 -10.18079 -10.17690  -1.02982
 Alpha  occ. eigenvalues --   -1.01873  -0.83136  -0.74696  -0.71893  -0.65993
 Alpha  occ. eigenvalues --   -0.64634  -0.54866  -0.52908  -0.51930  -0.49402
 Alpha  occ. eigenvalues --   -0.47233  -0.43735  -0.42492  -0.41607  -0.40786
 Alpha  occ. eigenvalues --   -0.38366  -0.37094  -0.36771  -0.32836  -0.31207
 Alpha  occ. eigenvalues --   -0.31123  -0.26527  -0.25502  -0.24001
 Alpha virt. eigenvalues --    0.00877   0.07323   0.09879   0.11076   0.11314
 Alpha virt. eigenvalues --    0.12151   0.13432   0.14801   0.17200   0.17365
 Alpha virt. eigenvalues --    0.17982   0.19273   0.20002   0.21855   0.23382

 Mulliken charges:
               1
     1  C   -0.493973
     2  C    0.334005
     3  C   -0.191722
     4  C    0.095344
     5  O   -0.296033
     6  C   -0.089176
     7  C   -0.116312
     8  C    0.008319
     9  O   -0.438689
    10  H    0.124310
    11  H    0.146827
    12  H    0.123276
    13  H    0.095804
    14  H    0.078334
    15  H    0.093741
    16  H    0.099967
    17  H    0.078154
    18  H    0.065192
    19  H    0.282631
 Sum of Mulliken charges =   0.00000

 Dipole moment (field-independent basis, Debye):
    X=             -0.8851    Y=              1.7047    Z=              0.6836  Tot=              2.0388
 Quadrupole moment (field-independent basis, Debye-Ang):
   XX=            -58.0014   YY=            -47.7553   ZZ=            -52.6317
   XY=              4.2591   XZ=             -2.6696   YZ=              2.6204

  Exact polarizability:  88.880   0.940  77.162  -4.745   5.302  64.964
 Approx polarizability: 123.179  -9.136 114.488  -8.872  10.779 101.567

                      1                      2                      3
                      A                      A                      A
 Frequencies --     75.6731               147.0650               176.6592
 Red. masses --      3.1313                 2.0745                 1.3826
 Frc consts  --      0.0106                 0.0264                 0.0254
 IR Inten    --      1.4079                 0.8979                 1.4429

                      4                      5                      6
                      A                      A                      A
 Frequencies --    232.8369               249.5010               268.1729
 Red. masses --      2.8149                 3.0533                 1.1434
 Frc consts  --      0.0899                 0.1120                 0.0484
 IR Inten    --      4.3228                 3.6405                90.1395

                      7                      8                      9
                      A                      A                      A
 Frequencies --    331.0190               398.5881               461.6385
 Red. masses --      3.1802                 4.0752                 3.1410
 Frc consts  --      0.2053                 0.3815                 0.3944
 IR Inten    --      5.5149                 4.3933                 8.7700

                     10                     11                     12
                      A                      A                      A
 Frequencies --    587.6596               602.3365               705.0889
 Red. masses --      3.8398                 3.9277                 5.0888
 Frc consts  --      0.7813                 0.8396                 1.4906
 IR Inten    --      0.8082                 2.8627                 5.1665

                     13                     14                     15
                      A                      A                      A
 Frequencies --    810.0393               860.1912               872.1063
 Red. masses --      2.0681                 2.8237                 1.9419
 Frc consts  --      0.7995                 1.2310                 0.8702
 IR Inten    --      3.7995                 2.3972                 6.8082

                     16                     17                     18
                      A                      A                      A
 Frequencies --    886.5908               914.5539               960.6857
 Red. masses --      1.6068                 2.9216                 3.7716
 Frc consts  --      0.7442                 1.4398                 2.0509
 IR Inten    --      9.9461                13.3682                23.3060

                     19                     20                     21
                      A                      A                      A
 Frequencies --    986.3311              1010.9452              1034.0374
 Red. masses --      1.6928                 6.0084                 2.1124
 Frc consts  --      0.9703                 3.6179                 1.3308
 IR Inten    --     24.6475                62.1355                34.7564

                     22                     23                     24
                      A                      A                      A
 Frequencies --   1052.1548              1059.2383              1076.7087
 Red. masses --      1.6947                 2.4067                 1.9973
 Frc consts  --      1.1054                 1.5909                 1.3643
 IR Inten    --     40.8263                24.2752                13.3562

                     25                     26                     27
                      A                      A                      A
 Frequencies --   1104.3712              1158.8291              1164.0524
 Red. masses --      2.6390                 1.9213                 1.1513
 Frc consts  --      1.8964                 1.5201                 0.9192
 IR Inten    --     11.9493                 7.5693                 3.3883

                     28                     29                     30
                      A                      A                      A
 Frequencies --   1220.7179              1236.2592              1265.9988
 Red. masses --      1.3161                 1.4961                 1.5502
 Frc consts  --      1.1555                 1.3471                 1.4638
 IR Inten    --     43.6217                12.6726                 0.3488

                     31                     32                     33
                      A                      A                      A
 Frequencies --   1281.6033              1304.6074              1338.1233
 Red. masses --      1.3567                 1.4255                 1.7318
 Frc consts  --      1.3129                 1.4295                 1.8270
 IR Inten    --      3.3358                 3.8165                25.4086

                     34                     35                     36
                      A                      A                      A
 Frequencies --   1342.9256              1361.3249              1407.3312
 Red. masses --      1.6410                 1.4245                 1.3286
 Frc consts  --      1.7436                 1.5553                 1.5504
 IR Inten    --     16.6714                 2.0632                 2.3337

                     37                     38                     39
                      A                      A                      A
 Frequencies --   1426.0548              1474.6191              1490.0042
 Red. masses --      1.5413                 1.0459                 1.0638
 Frc consts  --      1.8467                 1.3399                 1.3915
 IR Inten    --     10.2227                 7.0057                10.2052

                     40                     41                     42
                      A                      A                      A
 Frequencies --   1519.7924              1713.4778              2951.4512
 Red. masses --      1.0985                 7.2669                 1.0822
 Frc consts  --      1.4950                12.5706                 5.5544
 IR Inten    --      0.6831                10.2406                44.9881

                     43                     44                     45
                      A                      A                      A
 Frequencies --   2997.8793              3024.1947              3047.3432
 Red. masses --      1.0597                 1.0408                 1.1019
 Frc consts  --      5.6115                 5.6081                 6.0291
 IR Inten    --     80.0978                25.0918                33.0289

                     46                     47                     48
                      A                      A                      A
 Frequencies --   3049.3908              3081.2620              3111.0744
 Red. masses --      1.0895                 1.0933                 1.0884
 Frc consts  --      5.9689                 6.1157                 6.2064
 IR Inten    --     60.9192                12.3536                26.6475

                     49                     50                     51
                      A                      A                      A
 Frequencies --   3120.9084              3189.2171              3817.9950
 Red. masses --      1.1013                 1.0938                 1.0664
 Frc consts  --      6.3200                 6.5550                 9.1585
 IR Inten    --     16.0037                12.8011                18.5483

 - Thermochemistry -
 -------------------
 Temperature   298.150 Kelvin.  Pressure   1.00000 Atm.
 Atom     1 has atomic number  6 and mass  12.00000

 Molecular mass:   126.06808 amu.
 Principal axes and moments of inertia in atomic units:
                           1         2         3
     Eigenvalues --   643.711181260.806411613.90802
           X            0.99825   0.05779  -0.01284
           Y           -0.05755   0.99818   0.01828
           Z            0.01387  -0.01751   0.99975
 This molecule is an asymmetric top.
 Rotational symmetry number  1.
 Warning -- assumption of classical behavior for rotation
           may cause significant error
 Rotational temperatures (Kelvin)      0.13455     0.06870     0.05367
 Rotational constants (GHZ):           2.80365     1.43142     1.11824
 Zero-point vibrational energy     418457.5 (Joules/Mol)
                                  100.01374 (Kcal/Mol)
 Warning -- explicit consideration of  11 degrees of freedom as
           vibrations may cause significant error
 Vibrational temperatures:    108.88   211.59   254.17   335.00   358.98
          (Kelvin)            385.84   476.26   573.48   664.19   845.51
                              866.63  1014.46  1165.46  1237.62  1254.76
                             1275.60  1315.84  1382.21  1419.11  1454.52
                             1487.75  1513.81  1524.01  1549.14  1588.94
                             1667.29  1674.81  1756.34  1778.70  1821.49
                             1843.94  1877.04  1925.26  1932.17  1958.64
                             2024.83  2051.77  2121.65  2143.78  2186.64
                             2465.31  4246.47  4313.27  4351.14  4384.44
                             4387.39  4433.24  4476.14  4490.29  4588.57
                             5493.24

 Zero-point correction=                           0.159382 (Hartree/Particle)
 Thermal correction to Energy=                    0.167817
 Thermal correction to Enthalpy=                  0.168761
 Thermal correction to Gibbs Free Energy=         0.126284
 Sum of electronic and zero-point Energies=           -423.017762
 Sum of electronic and thermal Energies=              -423.009327
 Sum of electronic and thermal Enthalpies=            -423.008383
 Sum of electronic and thermal Free Energies=         -423.050860

                     E (Thermal)             CV                S
                      KCal/Mol        Cal/Mol-Kelvin    Cal/Mol-Kelvin
 Total                  105.307             31.935             89.401
 Electronic               0.000              0.000              0.000
 Translational            0.889              2.981             40.409
 Rotational               0.889              2.981             28.662
 Vibrational            103.529             25.973             20.330
 Vibration     1          0.599              1.965              4.000
 Vibration     2          0.617              1.906              2.710
 Vibration     3          0.628              1.871              2.363
 Vibration     4          0.654              1.791              1.857
 Vibration     5          0.662              1.764              1.734
 Vibration     6          0.673              1.732              1.608
 Vibration     7          0.713              1.614              1.255
 Vibration     8          0.765              1.473              0.968
 Vibration     9          0.819              1.335              0.761
 Vibration    10          0.945              1.058              0.471
 Vibration    11          0.961              1.027              0.446

 Normal termination of Gaussian 09 at Tue Jan 28 00:41:53 2020.
