 Gaussian 09, Revision D.01,
 Gaussian 09:  ES64L-G09RevD.01 24-Apr-2013

 -----------------------------
 # b3lyp 6-31G(2df,p) opt Freq
 -----------------------------

 -----
 titel
 -----
 Symbolic Z-matrix:
 Charge =  0 Multiplicity = 1

 SCF Done:  E(RB3LYP) =  -423.142318498     A.U. after   14 cycles
 Optimization completed.
    -- Stationary point found.
 Normal termination of Gaussian 09 at Mon Jan 27 15:37:00 2020.

 ----------------------------------------------------------------------
 #N Geom=AllCheck Guess=TCheck SCRF=Check GenChk RB3LYP/6-31G(2df,p) Fr
 eq
 ----------------------------------------------------------------------

 Structure from the checkpoint file:  "/scratch/puck/g09_812bcce4-5d79-4a16-b9b8-c8121bf43a29/Gau-164835.chk"
 -----
 titel
 -----
 Charge =  0 Multiplicity = 1

                         Standard orientation:
 ---------------------------------------------------------------------
 Center     Atomic      Atomic             Coordinates (Angstroms)
 Number     Number       Type             X           Y           Z
 ---------------------------------------------------------------------
      1          6           0       -1.449018    1.892780    0.215865
      2          6           0       -0.981122    0.540647   -0.345750
      3          6           0       -1.921245   -0.577677    0.089824
      4          8           0       -2.148395   -1.565821   -0.557821
      5          6           0        0.436910    0.219806    0.075619
      6          6           0        0.853237   -0.502071    1.349503
      7          6           0        1.277064   -1.034422    0.013881
      8          8           0        2.433319   -0.339856   -0.459240
      9          6           0        1.680743    0.900547   -0.503474
     10          1           0       -0.786728    2.699763   -0.110155
     11          1           0       -2.461859    2.134150   -0.122052
     12          1           0       -1.447472    1.882005    1.310999
     13          1           0       -1.013680    0.555780   -1.442260
     14          1           0       -2.395518   -0.425533    1.088055
     15          1           0        1.599083   -0.074021    2.014072
     16          1           0        0.066637   -1.062748    1.845463
     17          1           0        1.083218   -2.031457   -0.363462
     18          1           0        2.151710    1.698185    0.083445
     19          1           0        1.545803    1.231634   -1.540427
 ---------------------------------------------------------------------

 SCF Done:  E(RB3LYP) =  -423.142318498     A.U. after    1 cycles

 The electronic state is 1-A.
 Alpha  occ. eigenvalues --  -19.14837 -19.14134 -10.27799 -10.24264 -10.24035
 Alpha  occ. eigenvalues --  -10.21305 -10.21089 -10.19661 -10.19452  -1.05679
 Alpha  occ. eigenvalues --   -1.05433  -0.85229  -0.79060  -0.70476  -0.66715
 Alpha  occ. eigenvalues --   -0.61679  -0.58087  -0.54890  -0.51400  -0.49327
 Alpha  occ. eigenvalues --   -0.47206  -0.45629  -0.45024  -0.40969  -0.40803
 Alpha  occ. eigenvalues --   -0.40045  -0.39170  -0.38428  -0.37927  -0.33657
 Alpha  occ. eigenvalues --   -0.32945  -0.27565  -0.25607  -0.23911
 Alpha virt. eigenvalues --   -0.03361   0.06695   0.09593   0.10117   0.11399
 Alpha virt. eigenvalues --    0.12002   0.13151   0.13702   0.15099   0.15579
 Alpha virt. eigenvalues --    0.16433   0.17595   0.18343   0.20370   0.20766

 Mulliken charges:
               1
     1  C   -0.414481
     2  C   -0.171820
     3  C    0.148643
     4  O   -0.248851
     5  C    0.280120
     6  C   -0.360821
     7  C    0.054283
     8  O   -0.285143
     9  C   -0.137698
    10  H    0.129003
    11  H    0.124320
    12  H    0.127912
    13  H    0.102192
    14  H    0.076758
    15  H    0.116857
    16  H    0.120861
    17  H    0.122961
    18  H    0.106461
    19  H    0.108442
 Sum of Mulliken charges =   0.00000

 Dipole moment (field-independent basis, Debye):
    X=             -0.7563    Y=              2.4967    Z=              1.1972  Tot=              2.8704
 Quadrupole moment (field-independent basis, Debye-Ang):
   XX=            -60.9153   YY=            -54.0902   ZZ=            -52.4490
   XY=             -2.6494   XZ=             -0.9883   YZ=             -2.6245

  Exact polarizability:  77.834   1.998  77.696  -1.653  -0.732  69.976
 Approx polarizability: 106.175   3.215 117.340  -2.433   3.409 109.220

                      1                      2                      3
                      A                      A                      A
 Frequencies --     17.9332                43.2005               160.8239
 Red. masses --      5.3038                 3.5142                 2.9534
 Frc consts  --      0.0010                 0.0039                 0.0450
 IR Inten    --      7.2269                 0.7351                 1.9366

                      4                      5                      6
                      A                      A                      A
 Frequencies --    194.6747               219.3143               262.6233
 Red. masses --      2.0489                 1.2821                 2.5366
 Frc consts  --      0.0457                 0.0363                 0.1031
 IR Inten    --      1.4188                 1.0333                 1.7311

                      7                      8                      9
                      A                      A                      A
 Frequencies --    300.5858               397.2949               408.0132
 Red. masses --      2.6104                 2.9868                 2.7279
 Frc consts  --      0.1390                 0.2778                 0.2676
 IR Inten    --      2.8956                 2.1190                 4.7168

                     10                     11                     12
                      A                      A                      A
 Frequencies --    466.2205               513.3958               663.8804
 Red. masses --      2.2414                 4.1350                 2.7530
 Frc consts  --      0.2870                 0.6421                 0.7149
 IR Inten    --      1.5931                 5.8808                 2.0421

                     13                     14                     15
                      A                      A                      A
 Frequencies --    756.3622               856.9166               868.9049
 Red. masses --      3.1542                 2.9508                 1.7366
 Frc consts  --      1.0632                 1.2766                 0.7725
 IR Inten    --      8.5580                11.2056                24.4967

                     16                     17                     18
                      A                      A                      A
 Frequencies --    904.5777               928.9948               965.1425
 Red. masses --      1.7748                 2.0420                 1.7850
 Frc consts  --      0.8556                 1.0383                 0.9797
 IR Inten    --      6.5822                14.0554                10.0840

                     19                     20                     21
                      A                      A                      A
 Frequencies --    986.1881              1000.5056              1007.0973
 Red. masses --      2.7496                 1.5389                 2.1245
 Frc consts  --      1.5756                 0.9076                 1.2695
 IR Inten    --     16.0818                11.0802                28.1909

                     22                     23                     24
                      A                      A                      A
 Frequencies --   1043.6507              1056.2244              1080.3418
 Red. masses --      1.8450                 1.8865                 1.6831
 Frc consts  --      1.1840                 1.2400                 1.1574
 IR Inten    --      5.3763                 9.5525                17.6255

                     25                     26                     27
                      A                      A                      A
 Frequencies --   1099.4413              1134.0619              1137.3007
 Red. masses --      2.4164                 2.3269                 2.1105
 Frc consts  --      1.7209                 1.7632                 1.6084
 IR Inten    --      4.7469                 3.8288                 9.1375

                     28                     29                     30
                      A                      A                      A
 Frequencies --   1160.2210              1208.1316              1266.6567
 Red. masses --      1.2192                 1.8327                 1.5060
 Frc consts  --      0.9669                 1.5760                 1.4236
 IR Inten    --      2.6703                 4.9684                16.1308

                     31                     32                     33
                      A                      A                      A
 Frequencies --   1305.6688              1314.0962              1339.1874
 Red. masses --      1.6694                 1.6119                 1.6083
 Frc consts  --      1.6768                 1.6400                 1.6994
 IR Inten    --      3.0802                 2.9258                 5.2163

                     34                     35                     36
                      A                      A                      A
 Frequencies --   1398.3247              1406.7478              1429.5256
 Red. masses --      1.7378                 1.2545                 1.2038
 Frc consts  --      2.0020                 1.4627                 1.4493
 IR Inten    --      1.0983                 3.5663                 2.3364

                     37                     38                     39
                      A                      A                      A
 Frequencies --   1481.5575              1495.6634              1498.9221
 Red. masses --      1.4201                 1.0651                 1.0474
 Frc consts  --      1.8365                 1.4038                 1.3865
 IR Inten    --      6.1997                 5.7699                 5.3324

                     40                     41                     42
                      A                      A                      A
 Frequencies --   1514.8643              1832.6663              2854.4211
 Red. masses --      1.1177                10.6634                 1.0818
 Frc consts  --      1.5112                21.1015                 5.1933
 IR Inten    --      0.4641               142.3354                95.9544

                     43                     44                     45
                      A                      A                      A
 Frequencies --   3016.3625              3034.6006              3036.0732
 Red. masses --      1.0545                 1.0797                 1.0382
 Frc consts  --      5.6528                 5.8582                 5.6382
 IR Inten    --     56.1789                11.8413                20.2763

                     46                     47                     48
                      A                      A                      A
 Frequencies --   3066.8850              3106.2922              3112.6628
 Red. masses --      1.1113                 1.1019                 1.0990
 Frc consts  --      6.1586                 6.2646                 6.2735
 IR Inten    --     36.1555                23.8237                16.0505

                     49                     50                     51
                      A                      A                      A
 Frequencies --   3113.3665              3189.2991              3205.9967
 Red. masses --      1.0567                 1.0958                 1.1140
 Frc consts  --      6.0346                 6.5673                 6.7460
 IR Inten    --     11.9399                 7.8195                10.1553

 - Thermochemistry -
 -------------------
 Temperature   298.150 Kelvin.  Pressure   1.00000 Atm.
 Atom     1 has atomic number  6 and mass  12.00000

 Molecular mass:   126.06808 amu.
 Principal axes and moments of inertia in atomic units:
                           1         2         3
     Eigenvalues --   690.513461396.850621727.53808
           X            0.99943  -0.03311  -0.00609
           Y            0.03295   0.99916  -0.02453
           Z            0.00690   0.02432   0.99968
 This molecule is an asymmetric top.
 Rotational symmetry number  1.
 Warning -- assumption of classical behavior for rotation
           may cause significant error
 Rotational temperatures (Kelvin)      0.12543     0.06201     0.05014
 Rotational constants (GHZ):           2.61362     1.29201     1.04469
 Zero-point vibrational energy     411885.4 (Joules/Mol)
                                   98.44298 (Kcal/Mol)
 Warning -- explicit consideration of  11 degrees of freedom as
           vibrations may cause significant error
 Vibrational temperatures:     25.80    62.16   231.39   280.09   315.54
          (Kelvin)            377.86   432.48   571.62   587.04   670.79
                              738.66   955.17  1088.24  1232.91  1250.16
                             1301.48  1336.61  1388.62  1418.90  1439.50
                             1448.99  1501.58  1519.67  1554.37  1581.85
                             1631.66  1636.32  1669.30  1738.23  1822.43
                             1878.56  1890.69  1926.79  2011.87  2023.99
                             2056.77  2131.63  2151.92  2156.61  2179.55
                             2636.79  4106.87  4339.87  4366.11  4368.23
                             4412.56  4469.26  4478.42  4479.43  4588.68
                             4612.71

 Zero-point correction=                           0.156879 (Hartree/Particle)
 Thermal correction to Energy=                    0.166034
 Thermal correction to Enthalpy=                  0.166978
 Thermal correction to Gibbs Free Energy=         0.121102
 Sum of electronic and zero-point Energies=           -422.985440
 Sum of electronic and thermal Energies=              -422.976285
 Sum of electronic and thermal Enthalpies=            -422.975341
 Sum of electronic and thermal Free Energies=         -423.021217

                     E (Thermal)             CV                S
                      KCal/Mol        Cal/Mol-Kelvin    Cal/Mol-Kelvin
 Total                  104.188             32.983             96.555
 Electronic               0.000              0.000              0.000
 Translational            0.889              2.981             40.409
 Rotational               0.889              2.981             28.901
 Vibrational            102.410             27.021             27.245
 Vibration     1          0.593              1.986              6.851
 Vibration     2          0.595              1.980              5.107
 Vibration     3          0.622              1.890              2.540
 Vibration     4          0.635              1.847              2.183
 Vibration     5          0.647              1.812              1.965
 Vibration     6          0.670              1.741              1.644
 Vibration     7          0.693              1.673              1.414
 Vibration     8          0.764              1.476              0.973
 Vibration     9          0.773              1.453              0.934
 Vibration    10          0.824              1.325              0.748
 Vibration    11          0.868              1.220              0.625

 Optimization completed.
    -- Stationary point found.
 Normal termination of Gaussian 09 at Mon Jan 27 16:22:19 2020.
