 Gaussian 09, Revision D.01,
 Gaussian 09:  ES64L-G09RevD.01 24-Apr-2013

 -----------------------------
 # b3lyp 6-31G(2df,p) opt Freq
 -----------------------------

 -----
 titel
 -----
 Symbolic Z-matrix:
 Charge =  0 Multiplicity = 1

 SCF Done:  E(RB3LYP) =  -423.162463335     A.U. after   14 cycles
 Optimization completed.
    -- Stationary point found.
 Normal termination of Gaussian 09 at Mon Jan 27 17:44:53 2020.

 ----------------------------------------------------------------------
 #N Geom=AllCheck Guess=TCheck SCRF=Check GenChk RB3LYP/6-31G(2df,p) Fr
 eq
 ----------------------------------------------------------------------

 Structure from the checkpoint file:  "/scratch/puck/g09_591f2439-2990-4066-aa0d-c88993d30dfd/Gau-87751.chk"
 -----
 titel
 -----
 Charge =  0 Multiplicity = 1

                         Standard orientation:
 ---------------------------------------------------------------------
 Center     Atomic      Atomic             Coordinates (Angstroms)
 Number     Number       Type             X           Y           Z
 ---------------------------------------------------------------------
      1          6           0        2.321278   -0.686344   -0.382489
      2          6           0        1.005327   -0.104498    0.061308
      3          8           0        1.058286    1.054058    0.891142
      4          6           0        0.483934    1.188448   -0.418019
      5          6           0       -1.031737    1.349814   -0.500829
      6          6           0       -1.710917    0.029368   -0.119299
      7          6           0       -1.065373   -1.194401   -0.813892
      8          6           0       -0.117669   -1.095397    0.403467
      9          8           0       -1.155414   -0.421644    1.148778
     10          1           0        2.789955   -1.242448    0.437251
     11          1           0        2.182119   -1.379925   -1.219380
     12          1           0        3.008293    0.103502   -0.696167
     13          1           0        1.082880    1.792977   -1.098791
     14          1           0       -1.362928    2.149086    0.171377
     15          1           0       -1.313973    1.637290   -1.521187
     16          1           0       -2.801251    0.103059   -0.091512
     17          1           0       -1.710124   -2.073146   -0.771338
     18          1           0       -0.645179   -1.071411   -1.815412
     19          1           0        0.238168   -2.000238    0.904307
 ---------------------------------------------------------------------

 SCF Done:  E(RB3LYP) =  -423.162463335     A.U. after    1 cycles

 The electronic state is 1-A.
 Alpha  occ. eigenvalues --  -19.14231 -19.13083 -10.23923 -10.23736 -10.23704
 Alpha  occ. eigenvalues --  -10.23233 -10.19187 -10.18892 -10.18580  -1.07322
 Alpha  occ. eigenvalues --   -1.03497  -0.78055  -0.76611  -0.72142  -0.67805
 Alpha  occ. eigenvalues --   -0.61490  -0.59287  -0.52415  -0.51287  -0.47839
 Alpha  occ. eigenvalues --   -0.46484  -0.45228  -0.43420  -0.41802  -0.39793
 Alpha  occ. eigenvalues --   -0.39634  -0.38733  -0.37057  -0.35294  -0.33304
 Alpha  occ. eigenvalues --   -0.30919  -0.27798  -0.25977  -0.24249
 Alpha virt. eigenvalues --    0.07786   0.09112   0.10353   0.10667   0.11836
 Alpha virt. eigenvalues --    0.13098   0.13561   0.15368   0.15786   0.17121
 Alpha virt. eigenvalues --    0.17534   0.18218   0.18483   0.19971   0.21886

 Mulliken charges:
               1
     1  C   -0.487745
     2  C    0.416993
     3  O   -0.283049
     4  C   -0.023349
     5  C   -0.246867
     6  C    0.092275
     7  C   -0.255468
     8  C    0.006009
     9  O   -0.276714
    10  H    0.130177
    11  H    0.122283
    12  H    0.130821
    13  H    0.087476
    14  H    0.123062
    15  H    0.100142
    16  H    0.078166
    17  H    0.112394
    18  H    0.098456
    19  H    0.074936
 Sum of Mulliken charges =   0.00000

 Dipole moment (field-independent basis, Debye):
    X=             -0.1255    Y=             -0.8818    Z=             -3.0161  Tot=              3.1449
 Quadrupole moment (field-independent basis, Debye-Ang):
   XX=            -51.2438   YY=            -51.1416   ZZ=            -56.2844
   XY=             -2.5195   XZ=              0.6960   YZ=             -2.0873

  Exact polarizability:  80.578  -4.125  76.431   1.543  -2.685  63.439
 Approx polarizability: 107.058  -5.765 110.983   3.488  -2.645 105.921

                      1                      2                      3
                      A                      A                      A
 Frequencies --    179.9589               194.8982               239.1102
 Red. masses --      1.5361                 1.6883                 2.3891
 Frc consts  --      0.0293                 0.0378                 0.0805
 IR Inten    --      0.4236                 0.1673                 0.3752

                      4                      5                      6
                      A                      A                      A
 Frequencies --    317.0656               353.1264               403.6115
 Red. masses --      2.3586                 2.4645                 3.8361
 Frc consts  --      0.1397                 0.1811                 0.3682
 IR Inten    --      0.7923                 0.7099                 0.9537

                      7                      8                      9
                      A                      A                      A
 Frequencies --    431.2799               505.9691               548.3675
 Red. masses --      3.7254                 3.6008                 4.9729
 Frc consts  --      0.4083                 0.5431                 0.8811
 IR Inten    --      2.3205                 4.9534                20.1496

                     10                     11                     12
                      A                      A                      A
 Frequencies --    638.4163               702.1415               798.0554
 Red. masses --      3.4866                 3.6067                 3.0363
 Frc consts  --      0.8373                 1.0476                 1.1394
 IR Inten    --      1.5058                 3.7608                 4.3423

                     13                     14                     15
                      A                      A                      A
 Frequencies --    836.8799               867.5419               885.0673
 Red. masses --      2.4563                 2.7706                 2.3455
 Frc consts  --      1.0136                 1.2286                 1.0825
 IR Inten    --      3.7721                18.6896                 3.5188

                     16                     17                     18
                      A                      A                      A
 Frequencies --    913.6724               929.7528               948.8150
 Red. masses --      2.9562                 2.2228                 3.1425
 Frc consts  --      1.4540                 1.1321                 1.6668
 IR Inten    --     22.7944                 1.8580                 9.9712

                     19                     20                     21
                      A                      A                      A
 Frequencies --    978.9191              1002.0640              1042.8202
 Red. masses --      2.7657                 2.3206                 1.3595
 Frc consts  --      1.5615                 1.3729                 0.8711
 IR Inten    --     47.9058                10.5977                 2.3355

                     22                     23                     24
                      A                      A                      A
 Frequencies --   1046.8940              1058.9842              1100.0130
 Red. masses --      1.6989                 1.9778                 2.6493
 Frc consts  --      1.0970                 1.3068                 1.8887
 IR Inten    --      8.3149                 4.1591                 3.9243

                     25                     26                     27
                      A                      A                      A
 Frequencies --   1127.4940              1134.6209              1197.4130
 Red. masses --      1.7666                 1.7412                 1.3527
 Frc consts  --      1.3232                 1.3207                 1.1427
 IR Inten    --      1.2671                17.2749                 9.9792

                     28                     29                     30
                      A                      A                      A
 Frequencies --   1227.2935              1230.7253              1251.9684
 Red. masses --      1.8597                 1.4987                 1.3359
 Frc consts  --      1.6504                 1.3375                 1.2337
 IR Inten    --      6.8576                 3.0568                 3.2151

                     31                     32                     33
                      A                      A                      A
 Frequencies --   1300.2653              1328.1087              1336.1318
 Red. masses --      1.4634                 1.6601                 1.6943
 Frc consts  --      1.4578                 1.7252                 1.7822
 IR Inten    --      8.9267                 0.3664                 4.8778

                     34                     35                     36
                      A                      A                      A
 Frequencies --   1347.8794              1377.5990              1411.5315
 Red. masses --      1.5715                 1.4550                 1.2734
 Frc consts  --      1.6821                 1.6269                 1.4948
 IR Inten    --      2.2351                 3.3085                 4.8973

                     37                     38                     39
                      A                      A                      A
 Frequencies --   1457.9212              1464.7593              1485.1590
 Red. masses --      1.3609                 1.4241                 1.1069
 Frc consts  --      1.7043                 1.8002                 1.4385
 IR Inten    --      4.0430                 6.5758                 0.9559

                     40                     41                     42
                      A                      A                      A
 Frequencies --   1489.0739              1500.6293              3031.3918
 Red. masses --      1.1078                 1.3988                 1.0369
 Frc consts  --      1.4472                 1.8558                 5.6137
 IR Inten    --      9.7007                 4.9907                21.0574

                     43                     44                     45
                      A                      A                      A
 Frequencies --   3033.0449              3063.8964              3071.4302
 Red. masses --      1.0601                 1.0643                 1.0850
 Frc consts  --      5.7457                 5.8868                 6.0308
 IR Inten    --     17.0310                22.1923                74.4733

                     46                     47                     48
                      A                      A                      A
 Frequencies --   3077.7899              3079.9600              3092.7016
 Red. masses --      1.0917                 1.0972                 1.1002
 Frc consts  --      6.0928                 6.1326                 6.2001
 IR Inten    --     33.2835                20.0930                18.9704

                     49                     50                     51
                      A                      A                      A
 Frequencies --   3109.4986              3121.4962              3135.1477
 Red. masses --      1.0893                 1.1006                 1.1072
 Frc consts  --      6.2058                 6.3183                 6.4117
 IR Inten    --     30.3963                19.2467                25.4109

 - Thermochemistry -
 -------------------
 Temperature   298.150 Kelvin.  Pressure   1.00000 Atm.
 Atom     1 has atomic number  6 and mass  12.00000

 Molecular mass:   126.06808 amu.
 Principal axes and moments of inertia in atomic units:
                           1         2         3
     Eigenvalues --   646.47180 999.163521209.77966
           X            0.99827  -0.05885   0.00033
           Y            0.05885   0.99806  -0.02025
           Z            0.00086   0.02023   0.99979
 This molecule is an asymmetric top.
 Rotational symmetry number  1.
 Warning -- assumption of classical behavior for rotation
           may cause significant error
 Rotational temperatures (Kelvin)      0.13398     0.08669     0.07159
 Rotational constants (GHZ):           2.79168     1.80625     1.49179
 Zero-point vibrational energy     421135.5 (Joules/Mol)
                                  100.65380 (Kcal/Mol)
 Warning -- explicit consideration of   9 degrees of freedom as
           vibrations may cause significant error
 Vibrational temperatures:    258.92   280.41   344.03   456.19   508.07
          (Kelvin)            580.71   620.51   727.98   788.98   918.54
                             1010.22  1148.22  1204.08  1248.20  1273.41
                             1314.57  1337.71  1365.13  1408.44  1441.74
                             1500.38  1506.25  1523.64  1582.67  1622.21
                             1632.46  1722.81  1765.80  1770.74  1801.30
                             1870.79  1910.85  1922.39  1939.30  1982.06
                             2030.88  2097.62  2107.46  2136.81  2142.44
                             2159.07  4361.49  4363.87  4408.26  4419.10
                             4428.25  4431.37  4449.70  4473.87  4491.13
                             4510.77

 Zero-point correction=                           0.160402 (Hartree/Particle)
 Thermal correction to Energy=                    0.167693
 Thermal correction to Enthalpy=                  0.168637
 Thermal correction to Gibbs Free Energy=         0.129177
 Sum of electronic and zero-point Energies=           -423.002061
 Sum of electronic and thermal Energies=              -422.994771
 Sum of electronic and thermal Enthalpies=            -422.993827
 Sum of electronic and thermal Free Energies=         -423.033286

                     E (Thermal)             CV                S
                      KCal/Mol        Cal/Mol-Kelvin    Cal/Mol-Kelvin
 Total                  105.229             29.835             83.050
 Electronic               0.000              0.000              0.000
 Translational            0.889              2.981             40.409
 Rotational               0.889              2.981             28.149
 Vibrational            103.451             23.874             14.493
 Vibration     1          0.629              1.867              2.329
 Vibration     2          0.636              1.847              2.181
 Vibration     3          0.657              1.781              1.809
 Vibration     4          0.704              1.641              1.325
 Vibration     5          0.729              1.569              1.152
 Vibration     6          0.769              1.462              0.949
 Vibration     7          0.792              1.402              0.854
 Vibration     8          0.861              1.237              0.643
 Vibration     9          0.904              1.143              0.548

 Optimization completed.
    -- Stationary point found.
 Normal termination of Gaussian 09 at Mon Jan 27 18:30:21 2020.
