 Gaussian 09, Revision D.01,
 Gaussian 09:  ES64L-G09RevD.01 24-Apr-2013

 -----------------------------
 # b3lyp 6-31G(2df,p) opt Freq
 -----------------------------

 -----
 titel
 -----
 Symbolic Z-matrix:
 Charge =  0 Multiplicity = 1

 SCF Done:  E(RB3LYP) =  -423.129779121     A.U. after   13 cycles
 Optimization completed.
    -- Stationary point found.
 Normal termination of Gaussian 09 at Mon Jan 27 22:15:00 2020.

 ----------------------------------------------------------------------
 #N Geom=AllCheck Guess=TCheck SCRF=Check GenChk RB3LYP/6-31G(2df,p) Fr
 eq
 ----------------------------------------------------------------------

 Structure from the checkpoint file:  "/scratch/puck/g09_3829fa43-a534-467a-8d16-169c3a1a0429/Gau-28909.chk"
 -----
 titel
 -----
 Charge =  0 Multiplicity = 1

                         Standard orientation:
 ---------------------------------------------------------------------
 Center     Atomic      Atomic             Coordinates (Angstroms)
 Number     Number       Type             X           Y           Z
 ---------------------------------------------------------------------
      1          6           0       -1.988930    1.552866    0.000560
      2          6           0       -1.030830    0.395499    0.022859
      3          6           0       -0.935572   -0.642031    1.172142
      4          6           0       -0.436274   -1.472946   -0.027630
      5          8           0       -1.406638   -0.740180   -0.851311
      6          6           0        0.895153   -0.828740   -0.461369
      7          6           0        1.586186    0.170046    0.435155
      8          8           0        2.881063    0.587351    0.119878
      9          6           0        0.433864    0.630191   -0.423353
     10          1           0       -1.669521    2.322371    0.710527
     11          1           0       -2.021213    2.003135   -0.997152
     12          1           0       -2.998713    1.228655    0.265001
     13          1           0       -0.306702   -0.466014    2.046073
     14          1           0       -1.932705   -0.963922    1.471961
     15          1           0       -0.533737   -2.555832   -0.091198
     16          1           0        1.436023   -1.247511   -1.303452
     17          1           0        1.499237    0.114318    1.513420
     18          1           0        2.967834    0.632997   -0.838179
     19          1           0        0.622507    1.325120   -1.235722
 ---------------------------------------------------------------------

 SCF Done:  E(RB3LYP) =  -423.129779122     A.U. after    1 cycles

 The electronic state is 1-A.
 Alpha  occ. eigenvalues --  -19.14846 -19.12417 -10.24674 -10.24457 -10.24080
 Alpha  occ. eigenvalues --  -10.18885 -10.18818 -10.18702 -10.18139  -1.04325
 Alpha  occ. eigenvalues --   -1.03200  -0.85308  -0.75848  -0.72912  -0.65477
 Alpha  occ. eigenvalues --   -0.63304  -0.56743  -0.55350  -0.51630  -0.49011
 Alpha  occ. eigenvalues --   -0.47478  -0.44306  -0.41893  -0.41332  -0.39779
 Alpha  occ. eigenvalues --   -0.38162  -0.37193  -0.36591  -0.35206  -0.32637
 Alpha  occ. eigenvalues --   -0.31382  -0.26515  -0.24869  -0.24394
 Alpha virt. eigenvalues --    0.07223   0.09064   0.09601   0.10499   0.11450
 Alpha virt. eigenvalues --    0.12037   0.14161   0.15513   0.16154   0.16756
 Alpha virt. eigenvalues --    0.18029   0.18629   0.19712   0.21772   0.23269

 Mulliken charges:
               1
     1  C   -0.502990
     2  C    0.409739
     3  C   -0.289375
     4  C    0.053626
     5  O   -0.328885
     6  C   -0.114364
     7  C    0.120149
     8  O   -0.441929
     9  C   -0.148559
    10  H    0.127361
    11  H    0.129681
    12  H    0.127826
    13  H    0.098545
    14  H    0.110092
    15  H    0.079811
    16  H    0.089803
    17  H    0.108464
    18  H    0.285265
    19  H    0.085740
 Sum of Mulliken charges =   0.00000

 Dipole moment (field-independent basis, Debye):
    X=             -0.0164    Y=              0.3018    Z=              0.0789  Tot=              0.3124
 Quadrupole moment (field-independent basis, Debye-Ang):
   XX=            -57.7659   YY=            -51.5429   ZZ=            -51.6740
   XY=             -2.4407   XZ=             -6.9145   YZ=             -2.1683

  Exact polarizability:  82.902  -0.785  73.461  -2.690  -1.170  66.223
 Approx polarizability: 114.923   1.354 110.430   2.240   0.597 104.965

                      1                      2                      3
                      A                      A                      A
 Frequencies --    194.3969               202.2752               221.9298
 Red. masses --      1.1162                 2.1289                 1.4079
 Frc consts  --      0.0249                 0.0513                 0.0409
 IR Inten    --      1.5403                12.9166                47.8516

                      4                      5                      6
                      A                      A                      A
 Frequencies --    243.5282               275.8652               365.0273
 Red. masses --      2.8323                 2.5137                 3.5200
 Frc consts  --      0.0990                 0.1127                 0.2763
 IR Inten    --     19.1992                13.6088                 5.0449

                      7                      8                      9
                      A                      A                      A
 Frequencies --    381.1457               432.1983               531.8056
 Red. masses --      2.9439                 3.7732                 3.0931
 Frc consts  --      0.2520                 0.4153                 0.5154
 IR Inten    --      1.9958                 1.6862                 0.5084

                     10                     11                     12
                      A                      A                      A
 Frequencies --    597.0263               604.6280               701.5133
 Red. masses --      3.9952                 2.8312                 4.2098
 Frc consts  --      0.8390                 0.6098                 1.2206
 IR Inten    --      1.6908                 1.3415                 8.5296

                     13                     14                     15
                      A                      A                      A
 Frequencies --    773.2434               798.5801               852.7754
 Red. masses --      2.1904                 2.5742                 2.0627
 Frc consts  --      0.7716                 0.9672                 0.8838
 IR Inten    --     15.2085                22.7036                29.0722

                     16                     17                     18
                      A                      A                      A
 Frequencies --    864.6609               895.7309               933.0094
 Red. masses --      4.4049                 3.6093                 2.3196
 Frc consts  --      1.9404                 1.7062                 1.1897
 IR Inten    --      7.6951                15.2873                14.6572

                     19                     20                     21
                      A                      A                      A
 Frequencies --    940.1098               964.5372               983.6960
 Red. masses --      2.5578                 2.5821                 1.7236
 Frc consts  --      1.3319                 1.4154                 0.9826
 IR Inten    --     19.9122                23.2207                 6.5366

                     22                     23                     24
                      A                      A                      A
 Frequencies --   1023.4289              1043.3926              1078.3637
 Red. masses --      2.0979                 1.2679                 1.4339
 Frc consts  --      1.2946                 0.8133                 0.9824
 IR Inten    --      3.9471                 8.8273                22.3741

                     25                     26                     27
                      A                      A                      A
 Frequencies --   1091.5480              1118.1027              1123.2805
 Red. masses --      1.2917                 1.9166                 2.1478
 Frc consts  --      0.9068                 1.4117                 1.5967
 IR Inten    --      0.1824                28.8867                46.8890

                     28                     29                     30
                      A                      A                      A
 Frequencies --   1145.4891              1210.4897              1216.9523
 Red. masses --      1.5890                 1.9106                 1.8577
 Frc consts  --      1.2285                 1.6495                 1.6209
 IR Inten    --     25.1521                 6.4792                38.8061

                     31                     32                     33
                      A                      A                      A
 Frequencies --   1235.2825              1247.7309              1277.2804
 Red. masses --      1.7236                 1.5326                 1.5648
 Frc consts  --      1.5496                 1.4058                 1.5041
 IR Inten    --      8.8715                34.2288                10.0884

                     34                     35                     36
                      A                      A                      A
 Frequencies --   1305.8629              1320.3688              1373.1082
 Red. masses --      1.6823                 2.0501                 1.6126
 Frc consts  --      1.6902                 2.1058                 1.7913
 IR Inten    --     11.1881                18.7449                 4.3609

                     37                     38                     39
                      A                      A                      A
 Frequencies --   1413.9183              1452.9118              1480.3666
 Red. masses --      1.4802                 1.7112                 1.0600
 Frc consts  --      1.7435                 2.1283                 1.3686
 IR Inten    --     12.1894                83.4021                 4.5758

                     40                     41                     42
                      A                      A                      A
 Frequencies --   1491.1068              1510.7648              3039.0823
 Red. masses --      1.0479                 1.1455                 1.0355
 Frc consts  --      1.3727                 1.5404                 5.6349
 IR Inten    --      3.6673                 9.4705                16.3395

                     43                     44                     45
                      A                      A                      A
 Frequencies --   3081.3304              3107.5366              3121.3046
 Red. masses --      1.0588                 1.1005                 1.1018
 Frc consts  --      5.9232                 6.2614                 6.3247
 IR Inten    --     27.7047                13.7820                13.7762

                     46                     47                     48
                      A                      A                      A
 Frequencies --   3131.8563              3146.0523              3157.3328
 Red. masses --      1.0915                 1.1068                 1.0894
 Frc consts  --      6.3078                 6.4541                 6.3985
 IR Inten    --     36.7345                23.7467                13.1619

                     49                     50                     51
                      A                      A                      A
 Frequencies --   3171.2733              3183.8170              3812.7803
 Red. masses --      1.0939                 1.0877                 1.0658
 Frc consts  --      6.4816                 6.4962                 9.1284
 IR Inten    --     13.2807                22.3229                20.3308

 - Thermochemistry -
 -------------------
 Temperature   298.150 Kelvin.  Pressure   1.00000 Atm.
 Atom     1 has atomic number  6 and mass  12.00000

 Molecular mass:   126.06808 amu.
 Principal axes and moments of inertia in atomic units:
                           1         2         3
     Eigenvalues --   575.014111295.883351518.71001
           X            0.99908  -0.03652  -0.02258
           Y            0.03567   0.99868  -0.03699
           Z            0.02390   0.03615   0.99906
 This molecule is an asymmetric top.
 Rotational symmetry number  1.
 Warning -- assumption of classical behavior for rotation
           may cause significant error
 Rotational temperatures (Kelvin)      0.15063     0.06684     0.05703
 Rotational constants (GHZ):           3.13860     1.39267     1.18834
 Zero-point vibrational energy     417914.2 (Joules/Mol)
                                   99.88389 (Kcal/Mol)
 Warning -- explicit consideration of  11 degrees of freedom as
           vibrations may cause significant error
 Vibrational temperatures:    279.69   291.03   319.31   350.38   396.91
          (Kelvin)            525.19   548.38   621.84   765.15   858.99
                              869.92  1009.32  1112.52  1148.98  1226.95
                             1244.05  1288.76  1342.39  1352.61  1387.75
                             1415.32  1472.48  1501.21  1551.52  1570.49
                             1608.70  1616.15  1648.10  1741.62  1750.92
                             1777.29  1795.20  1837.72  1878.84  1899.71
                             1975.59  2034.31  2090.41  2129.91  2145.37
                             2173.65  4372.56  4433.34  4471.05  4490.86
                             4506.04  4526.46  4542.69  4562.75  4580.80
                             5485.73

 Zero-point correction=                           0.159175 (Hartree/Particle)
 Thermal correction to Energy=                    0.167030
 Thermal correction to Enthalpy=                  0.167974
 Thermal correction to Gibbs Free Energy=         0.127392
 Sum of electronic and zero-point Energies=           -422.970604
 Sum of electronic and thermal Energies=              -422.962749
 Sum of electronic and thermal Enthalpies=            -422.961805
 Sum of electronic and thermal Free Energies=         -423.002387

                     E (Thermal)             CV                S
                      KCal/Mol        Cal/Mol-Kelvin    Cal/Mol-Kelvin
 Total                  104.813             31.925             85.412
 Electronic               0.000              0.000              0.000
 Translational            0.889              2.981             40.409
 Rotational               0.889              2.981             28.517
 Vibrational            103.035             25.963             16.487
 Vibration     1          0.635              1.848              2.185
 Vibration     2          0.639              1.837              2.112
 Vibration     3          0.648              1.808              1.943
 Vibration     4          0.659              1.773              1.777
 Vibration     5          0.678              1.718              1.559
 Vibration     6          0.738              1.544              1.101
 Vibration     7          0.751              1.510              1.035
 Vibration     8          0.793              1.400              0.852
 Vibration     9          0.887              1.180              0.583
 Vibration    10          0.955              1.038              0.455
 Vibration    11          0.963              1.022              0.442

 Normal termination of Gaussian 09 at Tue Jan 28 00:31:27 2020.
