 Gaussian 09, Revision D.01,
 Gaussian 09:  ES64L-G09RevD.01 24-Apr-2013

 -----------------------------
 # b3lyp 6-31G(2df,p) opt Freq
 -----------------------------

 -----
 titel
 -----
 Symbolic Z-matrix:
 Charge =  0 Multiplicity = 1

 SCF Done:  E(RB3LYP) =  -423.166195341     A.U. after   14 cycles
 Optimization completed.
    -- Stationary point found.
 Normal termination of Gaussian 09 at Tue Jan 28 14:05:53 2020.

 ----------------------------------------------------------------------
 #N Geom=AllCheck Guess=TCheck SCRF=Check GenChk RB3LYP/6-31G(2df,p) Fr
 eq
 ----------------------------------------------------------------------

 Structure from the checkpoint file:  "/scratch/puck/g09_56328b1e-5afe-4164-83a5-caa6f3f43edf/Gau-43837.chk"
 -----
 titel
 -----
 Charge =  0 Multiplicity = 1

                         Standard orientation:
 ---------------------------------------------------------------------
 Center     Atomic      Atomic             Coordinates (Angstroms)
 Number     Number       Type             X           Y           Z
 ---------------------------------------------------------------------
      1          6           0        3.008860   -0.322023    0.135138
      2          8           0        1.873330    0.336806   -0.387751
      3          6           0        0.763308    0.285870    0.460371
      4          6           0       -0.059393   -1.013296    0.536968
      5          6           0       -0.551751   -1.347914   -0.826893
      6          6           0       -1.318517   -0.288228   -0.042364
      7          6           0       -2.779565   -0.398576    0.284154
      8          6           0       -0.526077    0.981483   -0.075165
      9          8           0       -0.822588    2.132974   -0.226854
     10          1           0        2.827857   -1.397027    0.281164
     11          1           0        3.817845   -0.194311   -0.587520
     12          1           0        3.316972    0.112900    1.098335
     13          1           0        1.006211    0.684016    1.459177
     14          1           0       -0.057225   -1.716097    1.360189
     15          1           0        0.043317   -1.074567   -1.692043
     16          1           0       -1.093519   -2.282860   -0.929741
     17          1           0       -3.060057   -1.434382    0.499065
     18          1           0       -3.038155    0.215518    1.152485
     19          1           0       -3.390374   -0.055327   -0.557523
 ---------------------------------------------------------------------

 SCF Done:  E(RB3LYP) =  -423.166195341     A.U. after    1 cycles

 The electronic state is 1-A.
 Alpha  occ. eigenvalues --  -19.14989 -19.12877 -10.26286 -10.24197 -10.23002
 Alpha  occ. eigenvalues --  -10.21358 -10.20935 -10.20548 -10.19010  -1.04873
 Alpha  occ. eigenvalues --   -1.03389  -0.90684  -0.74777  -0.72064  -0.67869
 Alpha  occ. eigenvalues --   -0.62289  -0.58318  -0.51641  -0.50260  -0.48768
 Alpha  occ. eigenvalues --   -0.47633  -0.44634  -0.44052  -0.42591  -0.40458
 Alpha  occ. eigenvalues --   -0.40438  -0.38784  -0.37888  -0.37277  -0.32840
 Alpha  occ. eigenvalues --   -0.31421  -0.28011  -0.26246  -0.23623
 Alpha virt. eigenvalues --   -0.01236   0.07610   0.09643   0.10906   0.12323
 Alpha virt. eigenvalues --    0.13198   0.13671   0.14927   0.15368   0.15722
 Alpha virt. eigenvalues --    0.16763   0.17507   0.18732   0.20011   0.21237

 Mulliken charges:
               1
     1  C   -0.238275
     2  O   -0.238745
     3  C    0.000583
     4  C   -0.132974
     5  C   -0.322129
     6  C    0.209235
     7  C   -0.495541
     8  C    0.335509
     9  O   -0.316018
    10  H    0.111091
    11  H    0.133059
    12  H    0.108735
    13  H    0.088712
    14  H    0.102338
    15  H    0.138023
    16  H    0.122172
    17  H    0.121401
    18  H    0.132414
    19  H    0.140409
 Sum of Mulliken charges =   0.00000

 Dipole moment (field-independent basis, Debye):
    X=              0.3725    Y=             -3.6512    Z=              1.3656  Tot=              3.9159
 Quadrupole moment (field-independent basis, Debye-Ang):
   XX=            -48.2827   YY=            -59.0072   ZZ=            -51.8081
   XY=              2.0263   XZ=              1.1243   YZ=              1.4355

  Exact polarizability:  92.138  -0.927  77.750   1.628   1.565  63.010
 Approx polarizability: 114.803  -5.568 125.901   3.251  -1.502  98.835

                      1                      2                      3
                      A                      A                      A
 Frequencies --     71.7721                95.7852               156.0394
 Red. masses --      3.0197                 3.0289                 1.5891
 Frc consts  --      0.0092                 0.0164                 0.0228
 IR Inten    --      1.5046                 1.3698                 0.2435

                      4                      5                      6
                      A                      A                      A
 Frequencies --    168.8102               189.6940               230.6421
 Red. masses --      1.5416                 1.6043                 2.0826
 Frc consts  --      0.0259                 0.0340                 0.0653
 IR Inten    --      0.1640                 0.4013                 0.6948

                      7                      8                      9
                      A                      A                      A
 Frequencies --    288.1222               321.4451               332.5428
 Red. masses --      3.8388                 2.9176                 3.4256
 Frc consts  --      0.1878                 0.1776                 0.2232
 IR Inten    --      3.7658                 4.8628                 0.7287

                     10                     11                     12
                      A                      A                      A
 Frequencies --    480.2690               576.5541               626.1308
 Red. masses --      3.2659                 3.0327                 4.4834
 Frc consts  --      0.4438                 0.5940                 1.0356
 IR Inten    --      5.2006                 0.8393                 3.6543

                     13                     14                     15
                      A                      A                      A
 Frequencies --    643.6857               753.2314               816.4577
 Red. masses --      3.3439                 4.2323                 4.5243
 Frc consts  --      0.8163                 1.4147                 1.7769
 IR Inten    --      5.5187                19.1620                17.5980

                     16                     17                     18
                      A                      A                      A
 Frequencies --    848.7214               899.9740               941.7642
 Red. masses --      4.2860                 2.1185                 1.3943
 Frc consts  --      1.8190                 1.0110                 0.7286
 IR Inten    --      9.5880                 5.5300                 4.4026

                     19                     20                     21
                      A                      A                      A
 Frequencies --    975.7744               987.5789              1034.9732
 Red. masses --      1.5419                 1.4106                 2.2745
 Frc consts  --      0.8650                 0.8106                 1.4355
 IR Inten    --     20.9373                20.2300                 9.4122

                     22                     23                     24
                      A                      A                      A
 Frequencies --   1049.0799              1086.8475              1100.6290
 Red. masses --      2.3940                 1.4063                 2.1701
 Frc consts  --      1.5524                 0.9787                 1.5489
 IR Inten    --     46.4817                20.5219                19.8517

                     25                     26                     27
                      A                      A                      A
 Frequencies --   1110.2868              1157.3388              1179.9975
 Red. masses --      1.5239                 2.4822                 1.3125
 Frc consts  --      1.1068                 1.9589                 1.0768
 IR Inten    --      3.4862                97.3185                 2.1706

                     28                     29                     30
                      A                      A                      A
 Frequencies --   1202.1126              1232.0380              1260.5910
 Red. masses --      2.1754                 1.8176                 1.9152
 Frc consts  --      1.8521                 1.6255                 1.7932
 IR Inten    --     35.3171                39.1171                 9.0457

                     31                     32                     33
                      A                      A                      A
 Frequencies --   1302.8330              1364.5109              1383.2790
 Red. masses --      2.7731                 1.5376                 1.8850
 Frc consts  --      2.7733                 1.6868                 2.1251
 IR Inten    --      6.8359                26.8656                 7.1354

                     34                     35                     36
                      A                      A                      A
 Frequencies --   1418.4591              1477.3935              1482.9227
 Red. masses --      1.4651                 1.1489                 1.0472
 Frc consts  --      1.7369                 1.4775                 1.3568
 IR Inten    --      0.3049                 0.3443                 3.9771

                     37                     38                     39
                      A                      A                      A
 Frequencies --   1487.2557              1495.0622              1497.6777
 Red. masses --      1.0594                 1.1478                 1.1153
 Frc consts  --      1.3807                 1.5116                 1.4740
 IR Inten    --      4.5640                 5.3974                 5.4704

                     40                     41                     42
                      A                      A                      A
 Frequencies --   1506.3362              1878.7109              2975.8025
 Red. masses --      1.0624                12.6516                 1.0637
 Frc consts  --      1.4203                26.3098                 5.5499
 IR Inten    --      6.1313               307.3321                34.8505

                     43                     44                     45
                      A                      A                      A
 Frequencies --   2982.7357              3031.1435              3034.5531
 Red. masses --      1.0542                 1.1030                 1.0350
 Frc consts  --      5.5259                 5.9708                 5.6152
 IR Inten    --     60.6360                46.4624                26.4712

                     46                     47                     48
                      A                      A                      A
 Frequencies --   3099.6520              3107.3885              3120.6518
 Red. masses --      1.1008                 1.1017                 1.0970
 Frc consts  --      6.2313                 6.2678                 6.2944
 IR Inten    --     13.7261                14.3438                26.9452

                     49                     50                     51
                      A                      A                      A
 Frequencies --   3128.4824              3198.5011              3214.3552
 Red. masses --      1.0537                 1.0957                 1.1148
 Frc consts  --      6.0761                 6.6046                 6.7862
 IR Inten    --     13.5155                 4.7674                 4.1588

 - Thermochemistry -
 -------------------
 Temperature   298.150 Kelvin.  Pressure   1.00000 Atm.
 Atom     1 has atomic number  6 and mass  12.00000

 Molecular mass:   126.06808 amu.
 Principal axes and moments of inertia in atomic units:
                           1         2         3
     Eigenvalues --   603.332141426.860211816.25104
           X            0.99992   0.01200   0.00421
           Y           -0.01207   0.99978   0.01733
           Z           -0.00401  -0.01738   0.99984
 This molecule is an asymmetric top.
 Rotational symmetry number  1.
 Warning -- assumption of classical behavior for rotation
           may cause significant error
 Rotational temperatures (Kelvin)      0.14356     0.06070     0.04769
 Rotational constants (GHZ):           2.99129     1.26483     0.99366
 Zero-point vibrational energy     412751.1 (Joules/Mol)
                                   98.64988 (Kcal/Mol)
 Warning -- explicit consideration of  11 degrees of freedom as
           vibrations may cause significant error
 Vibrational temperatures:    103.26   137.81   224.51   242.88   272.93
          (Kelvin)            331.84   414.54   462.49   478.45   691.00
                              829.53   900.86   926.12  1083.73  1174.70
                             1221.12  1294.86  1354.99  1403.92  1420.90
                             1489.09  1509.39  1563.73  1583.56  1597.45
                             1665.15  1697.75  1729.57  1772.63  1813.71
                             1874.48  1963.22  1990.23  2040.84  2125.64
                             2133.59  2139.83  2151.06  2154.82  2167.28
                             2703.04  4281.51  4291.49  4361.13  4366.04
                             4459.70  4470.83  4489.92  4501.18  4601.92
                             4624.73

 Zero-point correction=                           0.157209 (Hartree/Particle)
 Thermal correction to Energy=                    0.166514
 Thermal correction to Enthalpy=                  0.167458
 Thermal correction to Gibbs Free Energy=         0.122869
 Sum of electronic and zero-point Energies=           -423.008987
 Sum of electronic and thermal Energies=              -422.999682
 Sum of electronic and thermal Enthalpies=            -422.998738
 Sum of electronic and thermal Free Energies=         -423.043327

                     E (Thermal)             CV                S
                      KCal/Mol        Cal/Mol-Kelvin    Cal/Mol-Kelvin
 Total                  104.489             33.689             93.846
 Electronic               0.000              0.000              0.000
 Translational            0.889              2.981             40.409
 Rotational               0.889              2.981             28.838
 Vibrational            102.711             27.727             24.599
 Vibration     1          0.598              1.967              4.104
 Vibration     2          0.603              1.952              3.538
 Vibration     3          0.620              1.896              2.597
 Vibration     4          0.625              1.881              2.449
 Vibration     5          0.633              1.854              2.231
 Vibration     6          0.652              1.794              1.874
 Vibration     7          0.685              1.696              1.485
 Vibration     8          0.707              1.632              1.303
 Vibration     9          0.714              1.611              1.248
 Vibration    10          0.837              1.294              0.709
 Vibration    11          0.933              1.082              0.492

 Optimization completed.
    -- Stationary point found.
 Normal termination of Gaussian 09 at Tue Jan 28 14:51:11 2020.
