 Gaussian 09, Revision D.01,
 Gaussian 09:  ES64L-G09RevD.01 24-Apr-2013

 -----------------------------
 # b3lyp 6-31G(2df,p) opt Freq
 -----------------------------

 -----
 titel
 -----
 Symbolic Z-matrix:
 Charge =  0 Multiplicity = 1

 SCF Done:  E(RB3LYP) =  -423.174542294     A.U. after   14 cycles
 Optimization completed.
    -- Stationary point found.
 Normal termination of Gaussian 09 at Tue Jan 28 03:55:59 2020.

 ----------------------------------------------------------------------
 #N Geom=AllCheck Guess=TCheck SCRF=Check GenChk RB3LYP/6-31G(2df,p) Fr
 eq
 ----------------------------------------------------------------------

 Structure from the checkpoint file:  "/scratch/puck/g09_01bf0b4d-fef6-4904-bfe4-c17eb2a4bab4/Gau-192815.chk"
 -----
 titel
 -----
 Charge =  0 Multiplicity = 1

                         Standard orientation:
 ---------------------------------------------------------------------
 Center     Atomic      Atomic             Coordinates (Angstroms)
 Number     Number       Type             X           Y           Z
 ---------------------------------------------------------------------
      1          8           0       -2.313336   -0.877737    0.050169
      2          6           0       -1.267815   -0.003475    0.458848
      3          6           0       -1.100685    1.188050   -0.497401
      4          6           0        0.187722    1.933145   -0.263502
      5          6           0        1.274995    1.365740    0.259026
      6          6           0        1.335478   -0.082340    0.644275
      7          8           0        1.886316   -0.911055   -0.426173
      8          6           0        0.597305   -1.513881   -0.676263
      9          6           0       -0.008626   -0.845973    0.574480
     10          1           0       -3.127712   -0.367113   -0.003159
     11          1           0       -1.481965    0.403811    1.461185
     12          1           0       -1.139080    0.818785   -1.531609
     13          1           0       -1.957178    1.866548   -0.390486
     14          1           0        0.215420    2.978306   -0.562104
     15          1           0        2.188643    1.942318    0.377926
     16          1           0        1.917672   -0.221212    1.562703
     17          1           0        0.170547   -1.192915   -1.634939
     18          1           0        0.647284   -2.607544   -0.661410
     19          1           0       -0.127713   -1.558244    1.393148
 ---------------------------------------------------------------------

 SCF Done:  E(RB3LYP) =  -423.174542294     A.U. after    1 cycles

 The electronic state is 1-A.
 Alpha  occ. eigenvalues --  -19.13978 -19.12318 -10.23711 -10.23200 -10.22131
 Alpha  occ. eigenvalues --  -10.19102 -10.19049 -10.18761 -10.18093  -1.02813
 Alpha  occ. eigenvalues --   -1.02020  -0.82101  -0.75299  -0.72706  -0.67355
 Alpha  occ. eigenvalues --   -0.61797  -0.57922  -0.52018  -0.51569  -0.48887
 Alpha  occ. eigenvalues --   -0.46884  -0.44951  -0.43442  -0.42370  -0.40185
 Alpha  occ. eigenvalues --   -0.39001  -0.37547  -0.36210  -0.32916  -0.31043
 Alpha  occ. eigenvalues --   -0.29351  -0.27194  -0.25884  -0.23709
 Alpha virt. eigenvalues --    0.00594   0.06627   0.08880   0.11159   0.11256
 Alpha virt. eigenvalues --    0.12588   0.13646   0.15218   0.16960   0.18442
 Alpha virt. eigenvalues --    0.18907   0.19562   0.20510   0.22424   0.22682

 Mulliken charges:
               1
     1  O   -0.439585
     2  C    0.098559
     3  C   -0.299764
     4  C   -0.064920
     5  C   -0.055443
     6  C    0.066792
     7  O   -0.298029
     8  C   -0.082329
     9  C   -0.055680
    10  H    0.282174
    11  H    0.069995
    12  H    0.126041
    13  H    0.094504
    14  H    0.094389
    15  H    0.093335
    16  H    0.075407
    17  H    0.101903
    18  H    0.105031
    19  H    0.087619
 Sum of Mulliken charges =   0.00000

 Dipole moment (field-independent basis, Debye):
    X=             -2.0215    Y=              1.6670    Z=              0.7851  Tot=              2.7352
 Quadrupole moment (field-independent basis, Debye-Ang):
   XX=            -52.8861   YY=            -52.5381   ZZ=            -52.6081
   XY=             -1.3672   XZ=              2.5142   YZ=             -0.8873

  Exact polarizability:  83.285  -2.227  80.738   6.800  -1.482  62.330
 Approx polarizability: 124.217  -7.491 112.758  12.827  -2.022  97.859

                      1                      2                      3
                      A                      A                      A
 Frequencies --     80.1847               131.6679               233.0509
 Red. masses --      3.0982                 3.6015                 3.0506
 Frc consts  --      0.0117                 0.0368                 0.0976
 IR Inten    --      1.1350                 1.3555                 3.3013

                      4                      5                      6
                      A                      A                      A
 Frequencies --    278.1014               289.0432               360.4208
 Red. masses --      2.8742                 1.1347                 3.1863
 Frc consts  --      0.1310                 0.0559                 0.2439
 IR Inten    --      5.1938                94.1905                 8.2745

                      7                      8                      9
                      A                      A                      A
 Frequencies --    433.0467               484.1280               521.7139
 Red. masses --      4.9632                 4.3504                 3.2088
 Frc consts  --      0.5484                 0.6008                 0.5146
 IR Inten    --      3.8981                 3.4203                 7.6116

                     10                     11                     12
                      A                      A                      A
 Frequencies --    573.2084               683.8419               727.1357
 Red. masses --      2.5308                 3.5857                 1.5050
 Frc consts  --      0.4899                 0.9880                 0.4688
 IR Inten    --      4.9261                 1.4188                16.1937

                     13                     14                     15
                      A                      A                      A
 Frequencies --    824.0033               851.6629               896.6693
 Red. masses --      3.4486                 2.3220                 2.7030
 Frc consts  --      1.3796                 0.9923                 1.2804
 IR Inten    --      5.1998                16.7231                11.1462

                     16                     17                     18
                      A                      A                      A
 Frequencies --    928.1286               963.9152               971.1780
 Red. masses --      2.5834                 2.6286                 2.1351
 Frc consts  --      1.3111                 1.4389                 1.1865
 IR Inten    --     10.7131                31.3103                 6.0934

                     19                     20                     21
                      A                      A                      A
 Frequencies --   1002.4671              1006.2670              1009.3590
 Red. masses --      4.3066                 1.9114                 1.8043
 Frc consts  --      2.5499                 1.1403                 1.0831
 IR Inten    --     36.0744                28.6256                19.2991

                     22                     23                     24
                      A                      A                      A
 Frequencies --   1079.3032              1089.0923              1094.9326
 Red. masses --      1.8926                 2.5466                 3.7853
 Frc consts  --      1.2990                 1.7797                 2.6738
 IR Inten    --     14.5745                20.7321                54.7342

                     25                     26                     27
                      A                      A                      A
 Frequencies --   1140.2489              1157.6163              1175.9067
 Red. masses --      1.6872                 1.1452                 1.1405
 Frc consts  --      1.2924                 0.9042                 0.9292
 IR Inten    --      9.4504                 1.0627                 0.8237

                     28                     29                     30
                      A                      A                      A
 Frequencies --   1211.6803              1240.9499              1278.7317
 Red. masses --      1.2698                 1.1535                 1.2398
 Frc consts  --      1.0984                 1.0466                 1.1944
 IR Inten    --      3.2830                10.6039                23.2160

                     31                     32                     33
                      A                      A                      A
 Frequencies --   1279.3837              1321.0998              1336.3897
 Red. masses --      1.4609                 1.5392                 1.2526
 Frc consts  --      1.4088                 1.5828                 1.3180
 IR Inten    --     24.9862                 6.6653                 3.8280

                     34                     35                     36
                      A                      A                      A
 Frequencies --   1366.0313              1366.5516              1402.8898
 Red. masses --      1.4536                 1.4059                 1.6374
 Frc consts  --      1.5982                 1.5469                 1.8987
 IR Inten    --      3.8840                 2.4804                16.3010

                     37                     38                     39
                      A                      A                      A
 Frequencies --   1417.7739              1442.8661              1483.3194
 Red. masses --      1.5322                 1.6386                 1.0971
 Frc consts  --      1.8145                 2.0099                 1.4222
 IR Inten    --      1.7033                13.2623                 2.5820

                     40                     41                     42
                      A                      A                      A
 Frequencies --   1530.8219              1715.4805              2956.1436
 Red. masses --      1.0991                 6.5763                 1.0826
 Frc consts  --      1.5175                11.4025                 5.5741
 IR Inten    --      1.0141                 5.1973                46.5514

                     43                     44                     45
                      A                      A                      A
 Frequencies --   3011.8242              3020.2208              3031.9141
 Red. masses --      1.0593                 1.0598                 1.0848
 Frc consts  --      5.6614                 5.6959                 5.8753
 IR Inten    --     13.1221                85.0763                28.4571

                     46                     47                     48
                      A                      A                      A
 Frequencies --   3042.1935              3066.0822              3092.0855
 Red. masses --      1.1011                 1.1041                 1.0892
 Frc consts  --      6.0041                 6.1155                 6.1357
 IR Inten    --     38.0287                25.5338                45.8715

                     49                     50                     51
                      A                      A                      A
 Frequencies --   3147.1699              3171.5194              3813.5069
 Red. masses --      1.0839                 1.0969                 1.0662
 Frc consts  --      6.3254                 6.5005                 9.1353
 IR Inten    --      8.2393                30.4673                16.6926

 - Thermochemistry -
 -------------------
 Temperature   298.150 Kelvin.  Pressure   1.00000 Atm.
 Atom     1 has atomic number  8 and mass  15.99491

 Molecular mass:   126.06808 amu.
 Principal axes and moments of inertia in atomic units:
                           1         2         3
     Eigenvalues --   753.632511019.137581507.54359
           X            0.99974  -0.01701   0.01494
           Y            0.01714   0.99982  -0.00864
           Z           -0.01479   0.00889   0.99985
 This molecule is an asymmetric top.
 Rotational symmetry number  1.
 Warning -- assumption of classical behavior for rotation
           may cause significant error
 Rotational temperatures (Kelvin)      0.11493     0.08499     0.05745
 Rotational constants (GHZ):           2.39472     1.77085     1.19714
 Zero-point vibrational energy     423076.8 (Joules/Mol)
                                  101.11779 (Kcal/Mol)
 Warning -- explicit consideration of  10 degrees of freedom as
           vibrations may cause significant error
 Vibrational temperatures:    115.37   189.44   335.31   400.13   415.87
          (Kelvin)            518.56   623.06   696.55   750.63   824.72
                              983.89  1046.18  1185.56  1225.35  1290.11
                             1335.37  1386.86  1397.31  1442.32  1447.79
                             1452.24  1552.87  1566.96  1575.36  1640.56
                             1665.55  1691.87  1743.34  1785.45  1839.81
                             1840.75  1900.77  1922.76  1965.41  1966.16
                             2018.44  2039.86  2075.96  2134.16  2202.51
                             2468.19  4253.23  4333.34  4345.42  4362.24
                             4377.03  4411.40  4448.82  4528.07  4563.10
                             5486.78

 Zero-point correction=                           0.161141 (Hartree/Particle)
 Thermal correction to Energy=                    0.168979
 Thermal correction to Enthalpy=                  0.169923
 Thermal correction to Gibbs Free Energy=         0.128698
 Sum of electronic and zero-point Energies=           -423.013401
 Sum of electronic and thermal Energies=              -423.005563
 Sum of electronic and thermal Enthalpies=            -423.004619
 Sum of electronic and thermal Free Energies=         -423.045844

                     E (Thermal)             CV                S
                      KCal/Mol        Cal/Mol-Kelvin    Cal/Mol-Kelvin
 Total                  106.036             30.554             86.766
 Electronic               0.000              0.000              0.000
 Translational            0.889              2.981             40.409
 Rotational               0.889              2.981             28.539
 Vibrational            104.258             24.593             17.818
 Vibration     1          0.600              1.963              3.886
 Vibration     2          0.612              1.922              2.922
 Vibration     3          0.654              1.790              1.855
 Vibration     4          0.679              1.714              1.545
 Vibration     5          0.686              1.694              1.480
 Vibration     6          0.735              1.554              1.120
 Vibration     7          0.794              1.398              0.849
 Vibration     8          0.840              1.285              0.699
 Vibration     9          0.877              1.202              0.606
 Vibration    10          0.929              1.089              0.498

 Optimization completed.
    -- Stationary point found.
 Normal termination of Gaussian 09 at Tue Jan 28 04:44:40 2020.
