 Gaussian 09, Revision D.01,
 Gaussian 09:  ES64L-G09RevD.01 24-Apr-2013

 -----------------------------
 # b3lyp 6-31G(2df,p) opt Freq
 -----------------------------

 -----
 titel
 -----
 Symbolic Z-matrix:
 Charge =  0 Multiplicity = 1

 SCF Done:  E(RB3LYP) =  -423.151560702     A.U. after   13 cycles
 Optimization completed.
    -- Stationary point found.
 Normal termination of Gaussian 09 at Mon Jan 27 11:15:05 2020.

 ----------------------------------------------------------------------
 #N Geom=AllCheck Guess=TCheck SCRF=Check GenChk RB3LYP/6-31G(2df,p) Fr
 eq
 ----------------------------------------------------------------------

 Structure from the checkpoint file:  "/scratch/puck/g09_8f0737f0-04f2-49c8-9e1e-641fc8d78c87/Gau-68671.chk"
 -----
 titel
 -----
 Charge =  0 Multiplicity = 1

                         Standard orientation:
 ---------------------------------------------------------------------
 Center     Atomic      Atomic             Coordinates (Angstroms)
 Number     Number       Type             X           Y           Z
 ---------------------------------------------------------------------
      1          6           0        1.732318   -1.242076   -0.421071
      2          6           0        1.898723   -0.065569    0.496596
      3          8           0        1.644824    1.224002   -0.003249
      4          6           0        0.361409    1.203925   -0.614414
      5          6           0       -0.450020    0.053694    0.026245
      6          6           0       -1.611238    0.400946    0.993566
      7          6           0       -2.513139   -0.250788   -0.069320
      8          8           0       -1.382848   -0.523034   -0.924157
      9          6           0        0.626572   -0.865904    0.556076
     10          1           0        1.569635   -1.076456   -1.480207
     11          1           0        2.300123   -2.136418   -0.189105
     12          1           0        2.652566   -0.059890    1.274594
     13          1           0       -0.095580    2.188045   -0.478859
     14          1           0        0.429920    1.004073   -1.693184
     15          1           0       -1.574790   -0.107831    1.958522
     16          1           0       -1.769535    1.467925    1.159177
     17          1           0       -3.022704   -1.171347    0.239704
     18          1           0       -3.241024    0.410393   -0.554279
     19          1           0        0.387827   -1.531617    1.376819
 ---------------------------------------------------------------------

 SCF Done:  E(RB3LYP) =  -423.151560702     A.U. after    1 cycles

 The electronic state is 1-A.
 Alpha  occ. eigenvalues --  -19.14201 -19.13092 -10.24321 -10.23656 -10.23107
 Alpha  occ. eigenvalues --  -10.22467 -10.19054 -10.18906 -10.18597  -1.04910
 Alpha  occ. eigenvalues --   -1.03178  -0.84814  -0.75639  -0.73093  -0.65475
 Alpha  occ. eigenvalues --   -0.60665  -0.58235  -0.54774  -0.51299  -0.48872
 Alpha  occ. eigenvalues --   -0.47881  -0.46619  -0.44100  -0.41851  -0.40572
 Alpha  occ. eigenvalues --   -0.38378  -0.37730  -0.35672  -0.34767  -0.31478
 Alpha  occ. eigenvalues --   -0.30952  -0.28267  -0.25090  -0.22949
 Alpha virt. eigenvalues --    0.06857   0.08798   0.09754   0.10421   0.12654
 Alpha virt. eigenvalues --    0.13260   0.14738   0.15489   0.16320   0.16648
 Alpha virt. eigenvalues --    0.17994   0.18459   0.19494   0.21252   0.23163

 Mulliken charges:
               1
     1  C   -0.337194
     2  C    0.120159
     3  O   -0.256040
     4  C   -0.167442
     5  C    0.437719
     6  C   -0.353862
     7  C   -0.069547
     8  O   -0.318889
     9  C   -0.142772
    10  H    0.129859
    11  H    0.115533
    12  H    0.102867
    13  H    0.108618
    14  H    0.112564
    15  H    0.111966
    16  H    0.112899
    17  H    0.103520
    18  H    0.103578
    19  H    0.086463
 Sum of Mulliken charges =   0.00000

 Dipole moment (field-independent basis, Debye):
    X=             -0.9183    Y=             -0.3823    Z=              1.4840  Tot=              1.7865
 Quadrupole moment (field-independent basis, Debye-Ang):
   XX=            -51.7797   YY=            -53.5491   ZZ=            -52.9871
   XY=             -4.8152   XZ=             -1.1027   YZ=             -2.2903

  Exact polarizability:  86.269  -4.237  70.395  -0.256  -1.458  65.608
 Approx polarizability: 112.360  -1.837 104.270   0.417  -0.080 100.672

                      1                      2                      3
                      A                      A                      A
 Frequencies --     73.7429               112.7065               209.3699
 Red. masses --      2.3359                 3.1705                 3.4308
 Frc consts  --      0.0075                 0.0237                 0.0886
 IR Inten    --      0.9973                 1.4883                 3.5395

                      4                      5                      6
                      A                      A                      A
 Frequencies --    310.5467               368.6552               388.1541
 Red. masses --      2.4255                 3.2405                 2.7445
 Frc consts  --      0.1378                 0.2595                 0.2436
 IR Inten    --      2.7664                 2.0754                 0.5686

                      7                      8                      9
                      A                      A                      A
 Frequencies --    460.2045               508.4012               685.3375
 Red. masses --      3.6976                 3.3336                 4.5339
 Frc consts  --      0.4614                 0.5077                 1.2547
 IR Inten    --      2.7025                 3.1999                 1.6867

                     10                     11                     12
                      A                      A                      A
 Frequencies --    736.1027               786.4385               801.4782
 Red. masses --      2.2492                 1.2017                 1.6895
 Frc consts  --      0.7181                 0.4379                 0.6394
 IR Inten    --      4.0292                 2.6014                21.7284

                     13                     14                     15
                      A                      A                      A
 Frequencies --    831.4897               865.9543               912.3249
 Red. masses --      2.1726                 4.2165                 2.1214
 Frc consts  --      0.8850                 1.8629                 1.0403
 IR Inten    --     13.1417                 4.1014                 4.4958

                     16                     17                     18
                      A                      A                      A
 Frequencies --    941.3067               960.5591               980.0753
 Red. masses --      1.9297                 2.4479                 2.5442
 Frc consts  --      1.0074                 1.3307                 1.4398
 IR Inten    --     17.0142                19.5410                 7.7360

                     19                     20                     21
                      A                      A                      A
 Frequencies --    989.5097              1014.8946              1024.6509
 Red. masses --      2.9213                 1.4947                 6.6978
 Frc consts  --      1.6853                 0.9071                 4.1432
 IR Inten    --     15.3529                13.1482               107.9810

                     22                     23                     24
                      A                      A                      A
 Frequencies --   1044.8018              1059.8148              1092.5032
 Red. masses --      1.7552                 1.9975                 1.7023
 Frc consts  --      1.1289                 1.3219                 1.1971
 IR Inten    --     26.0066                 9.9089                27.4516

                     25                     26                     27
                      A                      A                      A
 Frequencies --   1107.6148              1161.4369              1163.5508
 Red. masses --      1.9164                 1.4183                 2.2325
 Frc consts  --      1.3852                 1.1272                 1.7808
 IR Inten    --     28.1500                18.3961                33.5937

                     28                     29                     30
                      A                      A                      A
 Frequencies --   1177.0928              1200.3452              1209.1140
 Red. masses --      2.4077                 1.5773                 1.4920
 Frc consts  --      1.9655                 1.3390                 1.2851
 IR Inten    --     11.7707                 1.2529                10.6374

                     31                     32                     33
                      A                      A                      A
 Frequencies --   1236.3241              1252.2244              1264.5376
 Red. masses --      1.2155                 2.0479                 1.6236
 Frc consts  --      1.0947                 1.8920                 1.5296
 IR Inten    --      2.4665                15.4646                 8.6366

                     34                     35                     36
                      A                      A                      A
 Frequencies --   1319.1195              1353.2619              1376.8350
 Red. masses --      1.3665                 1.4065                 2.0643
 Frc consts  --      1.4009                 1.5176                 2.3056
 IR Inten    --      5.7893                 3.1879                20.3563

                     37                     38                     39
                      A                      A                      A
 Frequencies --   1395.4309              1478.4703              1489.6511
 Red. masses --      1.5084                 1.2697                 1.1016
 Frc consts  --      1.7306                 1.6352                 1.4403
 IR Inten    --      6.1370                 9.6209                 5.0731

                     40                     41                     42
                      A                      A                      A
 Frequencies --   1517.9109              1533.6020              3007.8223
 Red. masses --      1.0880                 1.1073                 1.0672
 Frc consts  --      1.4770                 1.5345                 5.6884
 IR Inten    --      1.7339                 1.3315                33.0718

                     43                     44                     45
                      A                      A                      A
 Frequencies --   3019.5758              3058.4013              3076.7217
 Red. masses --      1.0552                 1.1113                 1.0609
 Frc consts  --      5.6689                 6.1246                 5.9172
 IR Inten    --     91.0011                33.4819                17.2454

                     46                     47                     48
                      A                      A                      A
 Frequencies --   3085.9615              3131.2537              3137.7697
 Red. masses --      1.0955                 1.1087                 1.0541
 Frc consts  --      6.1468                 6.4047                 6.1147
 IR Inten    --     32.1189                23.5013                 8.9113

                     49                     50                     51
                      A                      A                      A
 Frequencies --   3177.2368              3189.3891              3224.8651
 Red. masses --      1.0899                 1.0954                 1.1157
 Frc consts  --      6.4823                 6.5653                 6.8366
 IR Inten    --     10.7634                17.5034                 7.6596

 - Thermochemistry -
 -------------------
 Temperature   298.150 Kelvin.  Pressure   1.00000 Atm.
 Atom     1 has atomic number  6 and mass  12.00000

 Molecular mass:   126.06808 amu.
 Principal axes and moments of inertia in atomic units:
                           1         2         3
     Eigenvalues --   524.237721296.246271440.19858
           X            0.99933  -0.03433  -0.01268
           Y            0.03372   0.99838  -0.04581
           Z            0.01423   0.04535   0.99887
 This molecule is an asymmetric top.
 Rotational symmetry number  1.
 Warning -- assumption of classical behavior for rotation
           may cause significant error
 Rotational temperatures (Kelvin)      0.16522     0.06682     0.06014
 Rotational constants (GHZ):           3.44260     1.39228     1.25312
 Zero-point vibrational energy     421710.8 (Joules/Mol)
                                  100.79130 (Kcal/Mol)
 Warning -- explicit consideration of   8 degrees of freedom as
           vibrations may cause significant error
 Vibrational temperatures:    106.10   162.16   301.24   446.81   530.41
          (Kelvin)            558.47   662.13   731.47   986.05  1059.09
                             1131.51  1153.15  1196.33  1245.91  1312.63
                             1354.33  1382.03  1410.11  1423.68  1460.21
                             1474.24  1503.23  1524.84  1571.87  1593.61
                             1671.05  1674.09  1693.57  1727.03  1739.64
                             1778.79  1801.67  1819.39  1897.92  1947.04
                             1980.96  2007.71  2127.19  2143.27  2183.93
                             2206.51  4327.58  4344.49  4400.35  4426.71
                             4440.00  4505.17  4514.55  4571.33  4588.81
                             4639.86

 Zero-point correction=                           0.160621 (Hartree/Particle)
 Thermal correction to Energy=                    0.168131
 Thermal correction to Enthalpy=                  0.169075
 Thermal correction to Gibbs Free Energy=         0.128319
 Sum of electronic and zero-point Energies=           -422.990940
 Sum of electronic and thermal Energies=              -422.983430
 Sum of electronic and thermal Enthalpies=            -422.982485
 Sum of electronic and thermal Free Energies=         -423.023242

                     E (Thermal)             CV                S
                      KCal/Mol        Cal/Mol-Kelvin    Cal/Mol-Kelvin
 Total                  105.504             29.486             85.779
 Electronic               0.000              0.000              0.000
 Translational            0.889              2.981             40.409
 Rotational               0.889              2.981             28.372
 Vibrational            103.726             23.525             16.999
 Vibration     1          0.599              1.966              4.051
 Vibration     2          0.607              1.939              3.222
 Vibration     3          0.642              1.826              2.049
 Vibration     4          0.699              1.654              1.359
 Vibration     5          0.741              1.537              1.085
 Vibration     6          0.756              1.495              1.007
 Vibration     7          0.818              1.338              0.766
 Vibration     8          0.864              1.231              0.637

 Optimization completed.
    -- Stationary point found.
 Normal termination of Gaussian 09 at Mon Jan 27 12:01:40 2020.
