 Gaussian 09, Revision D.01,
 Gaussian 09:  ES64L-G09RevD.01 24-Apr-2013

 -----------------------------
 # b3lyp 6-31G(2df,p) opt Freq
 -----------------------------

 -----
 titel
 -----
 Symbolic Z-matrix:
 Charge =  0 Multiplicity = 1

 SCF Done:  E(RB3LYP) =  -423.141756532     A.U. after   15 cycles
 SCF Done:  E(RB3LYP) =  -423.141756500     A.U. after    7 cycles
 SCF Done:  E(RB3LYP) =  -423.141756364     A.U. after    7 cycles
 SCF Done:  E(RB3LYP) =  -423.141756427     A.U. after    7 cycles
 Optimization completed.
    -- Stationary point found.
 Normal termination of Gaussian 09 at Tue Jan 28 12:21:53 2020.

 ----------------------------------------------------------------------
 #N Geom=AllCheck Guess=TCheck SCRF=Check GenChk RB3LYP/6-31G(2df,p) Fr
 eq
 ----------------------------------------------------------------------

 Structure from the checkpoint file:  "/scratch/puck/g09_44eb9e93-cc7f-4a3f-9ca8-fb6a49810b72/Gau-113945.chk"
 -----
 titel
 -----
 Charge =  0 Multiplicity = 1

                         Standard orientation:
 ---------------------------------------------------------------------
 Center     Atomic      Atomic             Coordinates (Angstroms)
 Number     Number       Type             X           Y           Z
 ---------------------------------------------------------------------
      1          6           0        3.045540   -0.189974   -0.293339
      2          8           0        1.790293    0.239639    0.179437
      3          6           0        0.728190   -0.547725   -0.302177
      4          6           0       -0.589083    0.016697    0.256108
      5          6           0       -0.574402    0.033643    1.806267
      6          6           0       -1.760666   -0.875906   -0.186168
      7          8           0       -1.642158   -1.912800   -0.781283
      8          6           0       -0.866169    1.356419   -0.263383
      9          6           0       -1.157952    2.436178   -0.704080
     10          1           0        3.104739   -0.141329   -1.391645
     11          1           0        3.799109    0.476734    0.132177
     12          1           0        3.266534   -1.223439    0.016777
     13          1           0        0.698015   -0.543475   -1.401852
     14          1           0        0.831398   -1.595486    0.019236
     15          1           0        0.230096    0.684290    2.150691
     16          1           0       -1.523810    0.405224    2.200735
     17          1           0       -0.401682   -0.976147    2.191494
     18          1           0       -2.755516   -0.475989    0.107496
     19          1           0       -1.386711    3.398918   -1.089726
 ---------------------------------------------------------------------

 SCF Done:  E(RB3LYP) =  -423.141756427     A.U. after    1 cycles

 The electronic state is 1-A.
 Alpha  occ. eigenvalues --  -19.15171 -19.14651 -10.28099 -10.23518 -10.23070
 Alpha  occ. eigenvalues --  -10.22792 -10.19256 -10.18901 -10.18132  -1.06001
 Alpha  occ. eigenvalues --   -1.04064  -0.83744  -0.73888  -0.71606  -0.67380
 Alpha  occ. eigenvalues --   -0.63648  -0.58470  -0.53160  -0.50751  -0.49228
 Alpha  occ. eigenvalues --   -0.47450  -0.45924  -0.44862  -0.42939  -0.41362
 Alpha  occ. eigenvalues --   -0.39997  -0.38600  -0.37380  -0.36284  -0.32522
 Alpha  occ. eigenvalues --   -0.28873  -0.27425  -0.26060  -0.25291
 Alpha virt. eigenvalues --   -0.03221   0.04441   0.05927   0.08928   0.11277
 Alpha virt. eigenvalues --    0.12320   0.12648   0.12963   0.14984   0.16095
 Alpha virt. eigenvalues --    0.16882   0.17114   0.17932   0.19943   0.20710

 Mulliken charges:
               1
     1  C   -0.227174
     2  O   -0.241766
     3  C   -0.063540
     4  C   -0.062160
     5  C   -0.421230
     6  C    0.151032
     7  O   -0.251032
     8  C    0.342603
     9  C   -0.490179
    10  H    0.109666
    11  H    0.129383
    12  H    0.106752
    13  H    0.105012
    14  H    0.101763
    15  H    0.157276
    16  H    0.127106
    17  H    0.125978
    18  H    0.097346
    19  H    0.203167
 Sum of Mulliken charges =   0.00000

 Dipole moment (field-independent basis, Debye):
    X=              0.7199    Y=              0.9774    Z=              0.7559  Tot=              1.4300
 Quadrupole moment (field-independent basis, Debye-Ang):
   XX=            -49.4452   YY=            -54.8933   ZZ=            -53.0001
   XY=             -5.3093   XZ=             -2.9067   YZ=             -4.1127

  Exact polarizability:  80.901  -5.194  88.887   0.597  -4.530  67.326
 Approx polarizability: 101.052  -9.270 143.999   3.213  -6.283 100.048

                      1                      2                      3
                      A                      A                      A
 Frequencies --     68.6446                75.8379               100.4261
 Red. masses --      3.1444                 4.6487                 2.2510
 Frc consts  --      0.0087                 0.0158                 0.0134
 IR Inten    --      0.4989                 4.7549                 3.2342

                      4                      5                      6
                      A                      A                      A
 Frequencies --    137.4490               172.3256               182.4995
 Red. masses --      3.5991                 2.7467                 3.2274
 Frc consts  --      0.0401                 0.0481                 0.0633
 IR Inten    --      4.6340                 1.1945                 2.2414

                      7                      8                      9
                      A                      A                      A
 Frequencies --    221.4920               235.7090               280.3570
 Red. masses --      1.0624                 1.3843                 2.9166
 Frc consts  --      0.0307                 0.0453                 0.1351
 IR Inten    --      0.7666                 1.8291                 0.7213

                     10                     11                     12
                      A                      A                      A
 Frequencies --    339.3950               358.1010               401.6877
 Red. masses --      3.1828                 2.3397                 3.5800
 Frc consts  --      0.2160                 0.1768                 0.3403
 IR Inten    --      1.9952                 1.0829                 0.4660

                     13                     14                     15
                      A                      A                      A
 Frequencies --    496.9645               562.9903               623.0408
 Red. masses --      6.5878                 4.6433                 2.3777
 Frc consts  --      0.9586                 0.8671                 0.5438
 IR Inten    --      2.5827                 6.9997                 7.6537

                     16                     17                     18
                      A                      A                      A
 Frequencies --    630.9534               651.1301               760.7816
 Red. masses --      1.6181                 1.2624                 3.4793
 Frc consts  --      0.3795                 0.3153                 1.1865
 IR Inten    --     52.7235                52.9350                 6.2311

                     19                     20                     21
                      A                      A                      A
 Frequencies --    906.2083               922.6608               982.0219
 Red. masses --      1.8406                 2.2693                 1.7873
 Frc consts  --      0.8906                 1.1382                 1.0155
 IR Inten    --     22.7741                 4.3117                 5.4608

                     22                     23                     24
                      A                      A                      A
 Frequencies --   1010.1587              1030.7076              1135.7043
 Red. masses --      2.8717                 1.8318                 2.6087
 Frc consts  --      1.7265                 1.1465                 1.9824
 IR Inten    --     20.6406                 6.0987                10.0746

                     25                     26                     27
                      A                      A                      A
 Frequencies --   1165.7627              1182.4096              1195.3691
 Red. masses --      3.0775                 1.8163                 2.0233
 Frc consts  --      2.4641                 1.4961                 1.7034
 IR Inten    --    112.9244                36.0895                 3.5845

                     28                     29                     30
                      A                      A                      A
 Frequencies --   1227.4100              1235.5508              1289.1553
 Red. masses --      2.4937                 1.8192                 1.3397
 Frc consts  --      2.2135                 1.6363                 1.3118
 IR Inten    --     18.8107                28.5960                11.8029

                     31                     32                     33
                      A                      A                      A
 Frequencies --   1391.8736              1407.5922              1424.6624
 Red. masses --      1.2076                 1.2315                 1.2613
 Frc consts  --      1.3784                 1.4376                 1.5083
 IR Inten    --      1.5776                29.8983                 1.9061

                     34                     35                     36
                      A                      A                      A
 Frequencies --   1479.8066              1485.3705              1486.5416
 Red. masses --      1.1384                 1.0465                 1.0660
 Frc consts  --      1.4688                 1.3604                 1.3879
 IR Inten    --      2.9023                 5.4493                 4.3624

                     37                     38                     39
                      A                      A                      A
 Frequencies --   1495.7677              1501.5814              1520.5897
 Red. masses --      1.0586                 1.0620                 1.0843
 Frc consts  --      1.3955                 1.4109                 1.4772
 IR Inten    --      5.7908                 6.6706                 3.8166

                     40                     41                     42
                      A                      A                      A
 Frequencies --   1831.4442              2230.3262              2899.1167
 Red. masses --     10.7484                 5.9356                 1.0850
 Frc consts  --     21.2413                17.3961                 5.3729
 IR Inten    --    176.3188                 0.2429                91.0611

                     43                     44                     45
                      A                      A                      A
 Frequencies --   2971.4487              2986.3759              3018.6216
 Red. masses --      1.0390                 1.0525                 1.1028
 Frc consts  --      5.4053                 5.5307                 5.9205
 IR Inten    --     48.5776                45.2025                87.7201

                     46                     47                     48
                      A                      A                      A
 Frequencies --   3022.5531              3046.1952              3117.8226
 Red. masses --      1.1063                 1.0355                 1.0964
 Frc consts  --      5.9547                 5.6614                 6.2795
 IR Inten    --      0.3164                20.5327                26.3101

                     49                     50                     51
                      A                      A                      A
 Frequencies --   3119.4135              3151.2957              3502.1551
 Red. masses --      1.1022                 1.1009                 1.1616
 Frc consts  --      6.3192                 6.4411                 8.3945
 IR Inten    --     18.4469                 4.7722                68.7646

 - Thermochemistry -
 -------------------
 Temperature   298.150 Kelvin.  Pressure   1.00000 Atm.
 Atom     1 has atomic number  6 and mass  12.00000

 Molecular mass:   126.06808 amu.
 Principal axes and moments of inertia in atomic units:
                           1         2         3
     Eigenvalues --   937.377571463.926161838.72879
           X            0.99820  -0.05348  -0.02731
           Y            0.05288   0.99836  -0.02203
           Z            0.02844   0.02055   0.99938
 This molecule is an asymmetric top.
 Rotational symmetry number  1.
 Warning -- assumption of classical behavior for rotation
           may cause significant error
 Rotational temperatures (Kelvin)      0.09240     0.05917     0.04711
 Rotational constants (GHZ):           1.92531     1.23281     0.98152
 Zero-point vibrational energy     404777.2 (Joules/Mol)
                                   96.74406 (Kcal/Mol)
 Warning -- explicit consideration of  14 degrees of freedom as
           vibrations may cause significant error
 Vibrational temperatures:     98.76   109.11   144.49   197.76   247.94
          (Kelvin)            262.58   318.68   339.13   403.37   488.31
                              515.23   577.94   715.02   810.02   896.42
                              907.80   936.83  1094.59  1303.83  1327.50
                             1412.91  1453.39  1482.96  1634.02  1677.27
                             1701.22  1719.87  1765.97  1777.68  1854.80
                             2002.59  2025.21  2049.77  2129.11  2137.11
                             2138.80  2152.07  2160.44  2187.79  2635.04
                             3208.94  4171.18  4275.25  4296.72  4343.12
                             4348.77  4382.79  4485.85  4488.13  4534.01
                             5038.81

 Zero-point correction=                           0.154171 (Hartree/Particle)
 Thermal correction to Energy=                    0.164993
 Thermal correction to Enthalpy=                  0.165937
 Thermal correction to Gibbs Free Energy=         0.117910
 Sum of electronic and zero-point Energies=           -422.987585
 Sum of electronic and thermal Energies=              -422.976763
 Sum of electronic and thermal Enthalpies=            -422.975819
 Sum of electronic and thermal Free Energies=         -423.023847

                     E (Thermal)             CV                S
                      KCal/Mol        Cal/Mol-Kelvin    Cal/Mol-Kelvin
 Total                  103.535             37.682            101.082
 Electronic               0.000              0.000              0.000
 Translational            0.889              2.981             40.409
 Rotational               0.889              2.981             29.313
 Vibrational            101.757             31.721             31.361
 Vibration     1          0.598              1.969              4.192
 Vibration     2          0.599              1.965              3.996
 Vibration     3          0.604              1.949              3.446
 Vibration     4          0.614              1.916              2.839
 Vibration     5          0.626              1.877              2.410
 Vibration     6          0.630              1.864              2.303
 Vibration     7          0.648              1.808              1.947
 Vibration     8          0.655              1.786              1.835
 Vibration     9          0.680              1.710              1.531
 Vibration    10          0.719              1.597              1.215
 Vibration    11          0.733              1.559              1.130
 Vibration    12          0.767              1.466              0.956
 Vibration    13          0.852              1.257              0.666
 Vibration    14          0.919              1.111              0.518

 Optimization completed.
    -- Stationary point found.
 Normal termination of Gaussian 09 at Tue Jan 28 13:00:09 2020.
