 Gaussian 09, Revision D.01,
 Gaussian 09:  ES64L-G09RevD.01 24-Apr-2013

 -----------------------------
 # b3lyp 6-31G(2df,p) opt Freq
 -----------------------------

 -----
 titel
 -----
 Symbolic Z-matrix:
 Charge =  0 Multiplicity = 1

 SCF Done:  E(RB3LYP) =  -423.154345171     A.U. after   13 cycles
 Optimization completed.
    -- Stationary point found.
 Normal termination of Gaussian 09 at Mon Jan 27 12:20:25 2020.

 ----------------------------------------------------------------------
 #N Geom=AllCheck Guess=TCheck SCRF=Check GenChk RB3LYP/6-31G(2df,p) Fr
 eq
 ----------------------------------------------------------------------

 Structure from the checkpoint file:  "/scratch/puck/g09_5d47c1c3-1ffc-4af6-ab3c-cc995bf27898/Gau-72996.chk"
 -----
 titel
 -----
 Charge =  0 Multiplicity = 1

                         Standard orientation:
 ---------------------------------------------------------------------
 Center     Atomic      Atomic             Coordinates (Angstroms)
 Number     Number       Type             X           Y           Z
 ---------------------------------------------------------------------
      1          6           0        1.979612    0.447121    0.365049
      2          8           0        1.744445   -0.970520    0.206231
      3          6           0        0.618421   -0.741086   -0.671228
      4          6           0       -0.727169   -1.187766   -0.116799
      5          6           0       -1.789938   -0.251194   -0.769738
      6          6           0       -1.396141    0.768045    0.337308
      7          6           0       -1.003709   -0.447321    1.219658
      8          8           0       -0.266306    1.545200   -0.043237
      9          6           0        0.809969    0.798140   -0.580944
     10          1           0        1.841984    0.786109    1.398295
     11          1           0        2.977086    0.735773    0.012971
     12          1           0        0.795243   -1.174201   -1.664262
     13          1           0       -0.856231   -2.271245   -0.160150
     14          1           0       -1.648712    0.057651   -1.809601
     15          1           0       -2.807296   -0.624496   -0.632077
     16          1           0       -2.137097    1.482972    0.697219
     17          1           0       -0.182523   -0.331826    1.928551
     18          1           0       -1.875733   -0.860464    1.732826
     19          1           0        1.121901    1.286651   -1.507556
 ---------------------------------------------------------------------

 SCF Done:  E(RB3LYP) =  -423.154345171     A.U. after    1 cycles

 The electronic state is 1-A.
 Alpha  occ. eigenvalues --  -19.14275 -19.13188 -10.23727 -10.23595 -10.23447
 Alpha  occ. eigenvalues --  -10.22599 -10.19377 -10.18670 -10.18103  -1.05165
 Alpha  occ. eigenvalues --   -1.02159  -0.84872  -0.74542  -0.70156  -0.66641
 Alpha  occ. eigenvalues --   -0.62316  -0.59724  -0.53006  -0.51069  -0.49172
 Alpha  occ. eigenvalues --   -0.47523  -0.45904  -0.43613  -0.40811  -0.39833
 Alpha  occ. eigenvalues --   -0.38892  -0.38420  -0.36125  -0.32509  -0.32320
 Alpha  occ. eigenvalues --   -0.32145  -0.27341  -0.24950  -0.24397
 Alpha virt. eigenvalues --    0.07389   0.08869   0.10379   0.11069   0.12419
 Alpha virt. eigenvalues --    0.13475   0.14682   0.14850   0.16736   0.17124
 Alpha virt. eigenvalues --    0.18267   0.18840   0.19696   0.20816   0.22173

 Mulliken charges:
               1
     1  C   -0.100388
     2  O   -0.301775
     3  C    0.112680
     4  C   -0.052010
     5  C   -0.250674
     6  C    0.126504
     7  C   -0.250479
     8  O   -0.283656
     9  C    0.055955
    10  H    0.107676
    11  H    0.101645
    12  H    0.076572
    13  H    0.069794
    14  H    0.100007
    15  H    0.105432
    16  H    0.078199
    17  H    0.113110
    18  H    0.101110
    19  H    0.090296
 Sum of Mulliken charges =   0.00000

 Dipole moment (field-independent basis, Debye):
    X=             -1.0873    Y=             -0.0232    Z=             -0.5906  Tot=              1.2376
 Quadrupole moment (field-independent basis, Debye-Ang):
   XX=            -51.5220   YY=            -57.0982   ZZ=            -51.3093
   XY=              4.1989   XZ=             -1.5853   YZ=              0.8728

  Exact polarizability:  83.070   3.702  67.346  -0.512   1.212  69.590
 Approx polarizability: 111.656   2.104 104.211   0.316   1.462 104.188

                      1                      2                      3
                      A                      A                      A
 Frequencies --    115.1932               205.7826               339.6561
 Red. masses --      3.1761                 3.9694                 2.5160
 Frc consts  --      0.0248                 0.0990                 0.1710
 IR Inten    --      5.3415                 1.9508                 3.2296

                      4                      5                      6
                      A                      A                      A
 Frequencies --    384.9970               435.1270               457.3425
 Red. masses --      2.7467                 2.9269                 2.9610
 Frc consts  --      0.2399                 0.3265                 0.3649
 IR Inten    --      1.2284                 2.0815                 4.3135

                      7                      8                      9
                      A                      A                      A
 Frequencies --    506.3553               600.0728               750.3867
 Red. masses --      3.5989                 3.4520                 2.7916
 Frc consts  --      0.5437                 0.7324                 0.9261
 IR Inten    --      1.2995                 2.1841                 4.6323

                     10                     11                     12
                      A                      A                      A
 Frequencies --    793.6366               806.4897               863.4754
 Red. masses --      2.3909                 2.1871                 3.2792
 Frc consts  --      0.8873                 0.8381                 1.4405
 IR Inten    --      2.9186                 1.7980                13.4320

                     13                     14                     15
                      A                      A                      A
 Frequencies --    870.4958               893.3498               916.0894
 Red. masses --      2.2890                 2.1775                 2.1135
 Frc consts  --      1.0220                 1.0239                 1.0450
 IR Inten    --      2.8018                 1.1828                16.9507

                     16                     17                     18
                      A                      A                      A
 Frequencies --    942.0978               956.3637               994.4431
 Red. masses --      3.2426                 2.0177                 2.6452
 Frc consts  --      1.6957                 1.0873                 1.5413
 IR Inten    --      9.2096                15.6622                 0.1985

                     19                     20                     21
                      A                      A                      A
 Frequencies --   1009.7346              1028.1900              1059.0660
 Red. masses --      2.8087                 4.3955                 2.0956
 Frc consts  --      1.6872                 2.7378                 1.3849
 IR Inten    --     59.6301                55.2121                 5.5350

                     22                     23                     24
                      A                      A                      A
 Frequencies --   1070.4323              1088.3374              1104.1458
 Red. masses --      1.2053                 2.5359                 1.5254
 Frc consts  --      0.8137                 1.7697                 1.0957
 IR Inten    --      5.7002                48.9878                11.8767

                     25                     26                     27
                      A                      A                      A
 Frequencies --   1138.2284              1143.5185              1167.8241
 Red. masses --      1.6290                 1.8042                 1.3196
 Frc consts  --      1.2435                 1.3900                 1.0604
 IR Inten    --      3.5518                 2.5317                 0.0234

                     28                     29                     30
                      A                      A                      A
 Frequencies --   1205.1706              1239.2300              1252.2711
 Red. masses --      2.3921                 1.3482                 1.7118
 Frc consts  --      2.0470                 1.2199                 1.5817
 IR Inten    --     97.0882                 0.2504                 4.8404

                     31                     32                     33
                      A                      A                      A
 Frequencies --   1263.7260              1267.5888              1282.1358
 Red. masses --      1.5719                 1.4774                 1.4604
 Frc consts  --      1.4790                 1.3986                 1.4145
 IR Inten    --      7.3442                 1.9227                 1.6064

                     34                     35                     36
                      A                      A                      A
 Frequencies --   1335.1813              1346.3471              1358.9254
 Red. masses --      1.6526                 1.2771                 1.4129
 Frc consts  --      1.7358                 1.3639                 1.5373
 IR Inten    --      2.0125                 1.0688                 8.7957

                     37                     38                     39
                      A                      A                      A
 Frequencies --   1376.9400              1401.4099              1470.4835
 Red. masses --      1.3981                 1.3854                 1.0925
 Frc consts  --      1.5617                 1.6031                 1.3918
 IR Inten    --      5.5842                 7.8429                 4.2311

                     40                     41                     42
                      A                      A                      A
 Frequencies --   1499.0741              1514.3832              3016.5131
 Red. masses --      1.1281                 1.0969                 1.0711
 Frc consts  --      1.4936                 1.4822                 5.7424
 IR Inten    --      4.5322                 2.0599                77.4364

                     43                     44                     45
                      A                      A                      A
 Frequencies --   3022.5957              3056.0547              3063.5451
 Red. masses --      1.0697                 1.0588                 1.0985
 Frc consts  --      5.7578                 5.8260                 6.0744
 IR Inten    --     25.4214                27.9046                 8.8312

                     46                     47                     48
                      A                      A                      A
 Frequencies --   3069.6051              3078.0546              3087.5559
 Red. masses --      1.0617                 1.0991                 1.0872
 Frc consts  --      5.8942                 6.1355                 6.1067
 IR Inten    --     13.2696                86.6653                44.9406

                     49                     50                     51
                      A                      A                      A
 Frequencies --   3104.9680              3118.2447              3132.8619
 Red. masses --      1.0916                 1.1059                 1.1063
 Frc consts  --      6.2004                 6.3354                 6.3975
 IR Inten    --     39.2909                32.6575                22.0897

 - Thermochemistry -
 -------------------
 Temperature   298.150 Kelvin.  Pressure   1.00000 Atm.
 Atom     1 has atomic number  6 and mass  12.00000

 Molecular mass:   126.06808 amu.
 Principal axes and moments of inertia in atomic units:
                           1         2         3
     Eigenvalues --   592.45587 999.908941190.32375
           X            0.99850   0.05462  -0.00308
           Y           -0.05458   0.99843   0.01220
           Z            0.00375  -0.01201   0.99992
 This molecule is an asymmetric top.
 Rotational symmetry number  1.
 Warning -- assumption of classical behavior for rotation
           may cause significant error
 Rotational temperatures (Kelvin)      0.14619     0.08662     0.07276
 Rotational constants (GHZ):           3.04620     1.80491     1.51618
 Zero-point vibrational energy     425892.7 (Joules/Mol)
                                  101.79079 (Kcal/Mol)
 Warning -- explicit consideration of   8 degrees of freedom as
           vibrations may cause significant error
 Vibrational temperatures:    165.74   296.07   488.69   553.92   626.05
          (Kelvin)            658.01   728.53   863.37  1079.64  1141.86
                             1160.36  1242.35  1252.45  1285.33  1318.05
                             1355.47  1375.99  1430.78  1452.78  1479.33
                             1523.76  1540.11  1565.87  1588.62  1637.65
                             1645.27  1680.24  1733.97  1782.97  1801.74
                             1818.22  1823.78  1844.71  1921.03  1937.09
                             1955.19  1981.11  2016.31  2115.70  2156.83
                             2178.86  4340.08  4348.84  4396.98  4407.75
                             4416.47  4428.63  4442.30  4467.35  4486.45
                             4507.48

 Zero-point correction=                           0.162214 (Hartree/Particle)
 Thermal correction to Energy=                    0.168900
 Thermal correction to Enthalpy=                  0.169844
 Thermal correction to Gibbs Free Energy=         0.131273
 Sum of electronic and zero-point Energies=           -422.992131
 Sum of electronic and thermal Energies=              -422.985445
 Sum of electronic and thermal Enthalpies=            -422.984501
 Sum of electronic and thermal Free Energies=         -423.023072

                     E (Thermal)             CV                S
                      KCal/Mol        Cal/Mol-Kelvin    Cal/Mol-Kelvin
 Total                  105.986             27.708             81.180
 Electronic               0.000              0.000              0.000
 Translational            0.889              2.981             40.409
 Rotational               0.889              2.981             28.047
 Vibrational            104.209             21.746             12.725
 Vibration     1          0.608              1.937              3.179
 Vibration     2          0.640              1.832              2.081
 Vibration     3          0.720              1.596              1.214
 Vibration     4          0.754              1.502              1.019
 Vibration     5          0.796              1.394              0.842
 Vibration     6          0.815              1.345              0.774
 Vibration     7          0.862              1.236              0.642
 Vibration     8          0.958              1.032              0.450

 Optimization completed.
    -- Stationary point found.
 Normal termination of Gaussian 09 at Mon Jan 27 13:11:43 2020.
