 Gaussian 09, Revision D.01,
 Gaussian 09:  ES64L-G09RevD.01 24-Apr-2013

 -----------------------------
 # b3lyp 6-31G(2df,p) opt Freq
 -----------------------------

 -----
 titel
 -----
 Symbolic Z-matrix:
 Charge =  0 Multiplicity = 1

 SCF Done:  E(RB3LYP) =  -423.222407615     A.U. after   12 cycles
 Optimization completed.
    -- Stationary point found.
 Normal termination of Gaussian 09 at Mon Jan 27 12:20:24 2020.

 ----------------------------------------------------------------------
 #N Geom=AllCheck Guess=TCheck SCRF=Check GenChk RB3LYP/6-31G(2df,p) Fr
 eq
 ----------------------------------------------------------------------

 Structure from the checkpoint file:  "/scratch/puck/g09_14840c52-fd37-4bef-a07d-796a14ef7efb/Gau-152610.chk"
 -----
 titel
 -----
 Charge =  0 Multiplicity = 1

                         Standard orientation:
 ---------------------------------------------------------------------
 Center     Atomic      Atomic             Coordinates (Angstroms)
 Number     Number       Type             X           Y           Z
 ---------------------------------------------------------------------
      1          6           0       -1.763265   -0.776808   -0.102989
      2          6           0       -1.763233    0.776841   -0.103000
      3          6           0       -0.338247    1.173542    0.306559
      4          8           0        0.543360    1.162103   -0.847479
      5          6           0        1.341874    0.000011   -0.695895
      6          6           0        1.700635   -0.000060    0.790979
      7          6           0        0.212991   -0.000044    1.157279
      8          6           0       -0.338275   -1.173556    0.306485
      9          8           0        0.543303   -1.162026   -0.847577
     10          1           0       -2.482409   -1.171346    0.622318
     11          1           0       -2.007118   -1.208547   -1.075891
     12          1           0       -2.006970    1.208565   -1.075939
     13          1           0       -2.482430    1.171430    0.622224
     14          1           0       -0.276719    2.160076    0.776236
     15          1           0        2.122128    0.000024   -1.454756
     16          1           0        2.237932   -0.897948    1.102777
     17          1           0        2.237972    0.897781    1.102841
     18          1           0       -0.073821   -0.000073    2.208047
     19          1           0       -0.276738   -2.160128    0.776084
 ---------------------------------------------------------------------

 SCF Done:  E(RB3LYP) =  -423.222407615     A.U. after    1 cycles

 The electronic state is 1-A.
 Alpha  occ. eigenvalues --  -19.13397 -19.13396 -10.26995 -10.23026 -10.23024
 Alpha  occ. eigenvalues --  -10.19466 -10.18417 -10.17893 -10.17874  -1.07323
 Alpha  occ. eigenvalues --   -0.99133  -0.82709  -0.77457  -0.69518  -0.69303
 Alpha  occ. eigenvalues --   -0.60434  -0.56807  -0.53922  -0.53129  -0.49782
 Alpha  occ. eigenvalues --   -0.48031  -0.44617  -0.41912  -0.41601  -0.38400
 Alpha  occ. eigenvalues --   -0.36451  -0.35577  -0.35383  -0.34321  -0.34109
 Alpha  occ. eigenvalues --   -0.32770  -0.30577  -0.26180  -0.24609
 Alpha virt. eigenvalues --    0.08222   0.10536   0.12583   0.12868   0.14054
 Alpha virt. eigenvalues --    0.14808   0.15724   0.15917   0.16416   0.16499
 Alpha virt. eigenvalues --    0.18124   0.18303   0.19504   0.19882   0.22603

 Mulliken charges:
               1
     1  C   -0.225230
     2  C   -0.225229
     3  C    0.120758
     4  O   -0.285243
     5  C    0.197829
     6  C   -0.254010
     7  C   -0.112577
     8  C    0.120762
     9  O   -0.285245
    10  H    0.095449
    11  H    0.116994
    12  H    0.116998
    13  H    0.095449
    14  H    0.071310
    15  H    0.089881
    16  H    0.107148
    17  H    0.107147
    18  H    0.076499
    19  H    0.071308
 Sum of Mulliken charges =   0.00000

 Dipole moment (field-independent basis, Debye):
    X=             -0.3376    Y=             -0.0001    Z=              2.1816  Tot=              2.2076
 Quadrupole moment (field-independent basis, Debye-Ang):
   XX=            -49.7934   YY=            -54.9494   ZZ=            -53.4822
   XY=             -0.0002   XZ=             -0.0213   YZ=              0.0000

  Exact polarizability:  81.126   0.000  70.386  -0.901   0.000  66.212
 Approx polarizability: 108.992   0.000 105.754  -4.715   0.000 103.934

                      1                      2                      3
                      A                      A                      A
 Frequencies --    126.6682               329.2394               340.6718
 Red. masses --      2.3445                 2.5434                 2.5552
 Frc consts  --      0.0222                 0.1624                 0.1747
 IR Inten    --      0.8329                 1.5205                 2.1966

                      4                      5                      6
                      A                      A                      A
 Frequencies --    459.2307               533.1699               579.7686
 Red. masses --      2.0080                 6.4903                 4.8136
 Frc consts  --      0.2495                 1.0870                 0.9533
 IR Inten    --      0.2538                10.2162                 0.1461

                      7                      8                      9
                      A                      A                      A
 Frequencies --    598.4981               744.2745               758.0589
 Red. masses --      5.6203                 4.5418                 1.5127
 Frc consts  --      1.1861                 1.4823                 0.5122
 IR Inten    --      0.9051                 1.9514                 4.3710

                     10                     11                     12
                      A                      A                      A
 Frequencies --    824.5605               825.1314               852.6958
 Red. masses --      5.4570                 3.1706                 3.0680
 Frc consts  --      2.1860                 1.2718                 1.3143
 IR Inten    --      1.0596                 1.4010                12.7875

                     13                     14                     15
                      A                      A                      A
 Frequencies --    889.4158               893.6943               909.1433
 Red. masses --      2.1745                 4.4288                 3.1739
 Frc consts  --      1.0135                 2.0841                 1.5456
 IR Inten    --     16.7137                 2.9343                19.4891

                     16                     17                     18
                      A                      A                      A
 Frequencies --    918.6364               953.7302               973.1336
 Red. masses --      2.5126                 2.9348                 1.5248
 Frc consts  --      1.2493                 1.5728                 0.8508
 IR Inten    --     72.3255                22.3579                 3.5234

                     19                     20                     21
                      A                      A                      A
 Frequencies --    980.0671              1002.8185              1028.6314
 Red. masses --      1.7426                 3.0831                 1.6085
 Frc consts  --      0.9862                 1.8267                 1.0028
 IR Inten    --      4.1772                13.6829                11.1440

                     22                     23                     24
                      A                      A                      A
 Frequencies --   1048.7520              1074.4710              1088.6510
 Red. masses --      2.2950                 1.9914                 4.5967
 Frc consts  --      1.4872                 1.3546                 3.2098
 IR Inten    --      0.4634                13.3994               116.1001

                     25                     26                     27
                      A                      A                      A
 Frequencies --   1142.0140              1154.5083              1230.3098
 Red. masses --      1.1867                 1.2942                 1.7830
 Frc consts  --      0.9118                 1.0164                 1.5901
 IR Inten    --      1.4436                26.1399                 8.8481

                     28                     29                     30
                      A                      A                      A
 Frequencies --   1231.8125              1259.0010              1266.4242
 Red. masses --      1.7089                 1.8557                 1.3401
 Frc consts  --      1.5278                 1.7330                 1.2663
 IR Inten    --      4.9934                14.2213                 2.7465

                     31                     32                     33
                      A                      A                      A
 Frequencies --   1275.5125              1287.9451              1310.2812
 Red. masses --      1.3608                 1.3311                 1.5979
 Frc consts  --      1.3044                 1.3009                 1.6164
 IR Inten    --      1.1717                 0.3937                 7.2380

                     34                     35                     36
                      A                      A                      A
 Frequencies --   1324.2886              1338.5855              1362.2244
 Red. masses --      1.1878                 1.5929                 1.5765
 Frc consts  --      1.2273                 1.6817                 1.7237
 IR Inten    --      0.1556                 1.0094                 3.4543

                     37                     38                     39
                      A                      A                      A
 Frequencies --   1369.8191              1372.6812              1471.9178
 Red. masses --      1.3226                 1.4067                 1.0760
 Frc consts  --      1.4622                 1.5617                 1.3735
 IR Inten    --     11.0390                 8.1414                 0.3790

                     40                     41                     42
                      A                      A                      A
 Frequencies --   1488.7254              1491.8609              3044.6433
 Red. masses --      1.1254                 1.0992                 1.0702
 Frc consts  --      1.4695                 1.4414                 5.8448
 IR Inten    --      3.6879                 5.6267                 0.0019

                     43                     44                     45
                      A                      A                      A
 Frequencies --   3052.0116              3060.3690              3068.8580
 Red. masses --      1.0756                 1.0827                 1.0778
 Frc consts  --      5.9032                 5.9746                 5.9806
 IR Inten    --     16.5397               105.9397                37.7051

                     46                     47                     48
                      A                      A                      A
 Frequencies --   3075.5591              3103.9783              3120.1626
 Red. masses --      1.0581                 1.0982                 1.1006
 Frc consts  --      5.8971                 6.2342                 6.3132
 IR Inten    --     19.5518                 2.0256                20.4806

                     49                     50                     51
                      A                      A                      A
 Frequencies --   3130.3025              3134.6201              3151.3641
 Red. masses --      1.0890                 1.1093                 1.0924
 Frc consts  --      6.2869                 6.4222                 6.3918
 IR Inten    --     30.2474                17.9673                27.6683

 - Thermochemistry -
 -------------------
 Temperature   298.150 Kelvin.  Pressure   1.00000 Atm.
 Atom     1 has atomic number  6 and mass  12.00000

 Molecular mass:   126.06808 amu.
 Principal axes and moments of inertia in atomic units:
                           1         2         3
     Eigenvalues --   628.60472 883.954041022.94907
           X            0.99977   0.00000   0.02153
           Y            0.00000   1.00000   0.00000
           Z           -0.02153   0.00000   0.99977
 This molecule is an asymmetric top.
 Rotational symmetry number  1.
 Warning -- assumption of classical behavior for rotation
           may cause significant error
 Rotational temperatures (Kelvin)      0.13779     0.09798     0.08467
 Rotational constants (GHZ):           2.87103     2.04167     1.76425
 Zero-point vibrational energy     430972.0 (Joules/Mol)
                                  103.00478 (Kcal/Mol)
 Warning -- explicit consideration of   7 degrees of freedom as
           vibrations may cause significant error
 Vibrational temperatures:    182.25   473.70   490.15   660.73   767.11
          (Kelvin)            834.16   861.10  1070.84  1090.68  1186.36
                             1187.18  1226.84  1279.67  1285.83  1308.05
                             1321.71  1372.20  1400.12  1410.10  1442.83
                             1479.97  1508.92  1545.92  1566.32  1643.10
                             1661.08  1770.14  1772.30  1811.42  1822.10
                             1835.18  1853.06  1885.20  1905.35  1925.92
                             1959.93  1970.86  1974.98  2117.76  2141.94
                             2146.45  4380.56  4391.16  4403.18  4415.40
                             4425.04  4465.93  4489.21  4503.80  4510.01
                             4534.10

 Zero-point correction=                           0.164149 (Hartree/Particle)
 Thermal correction to Energy=                    0.170291
 Thermal correction to Enthalpy=                  0.171236
 Thermal correction to Gibbs Free Energy=         0.133808
 Sum of electronic and zero-point Energies=           -423.058259
 Sum of electronic and thermal Energies=              -423.052116
 Sum of electronic and thermal Enthalpies=            -423.051172
 Sum of electronic and thermal Free Energies=         -423.088600

                     E (Thermal)             CV                S
                      KCal/Mol        Cal/Mol-Kelvin    Cal/Mol-Kelvin
 Total                  106.859             26.354             78.773
 Electronic               0.000              0.000              0.000
 Translational            0.889              2.981             40.409
 Rotational               0.889              2.981             27.832
 Vibrational            105.082             20.393             10.532
 Vibration     1          0.611              1.926              2.996
 Vibration     2          0.712              1.617              1.264
 Vibration     3          0.720              1.594              1.209
 Vibration     4          0.817              1.340              0.768
 Vibration     5          0.888              1.177              0.580
 Vibration     6          0.936              1.075              0.486
 Vibration     7          0.956              1.035              0.452

 Optimization completed.
    -- Stationary point found.
 Normal termination of Gaussian 09 at Mon Jan 27 13:13:13 2020.
