 Gaussian 09, Revision D.01,
 Gaussian 09:  ES64L-G09RevD.01 24-Apr-2013

 -----------------------------
 # b3lyp 6-31G(2df,p) opt Freq
 -----------------------------

 -----
 titel
 -----
 Symbolic Z-matrix:
 Charge =  0 Multiplicity = 1

 SCF Done:  E(RB3LYP) =  -423.200590528     A.U. after   14 cycles
 Optimization completed.
    -- Stationary point found.
 Normal termination of Gaussian 09 at Tue Jan 28 08:13:21 2020.

 ----------------------------------------------------------------------
 #N Geom=AllCheck Guess=TCheck SCRF=Check GenChk RB3LYP/6-31G(2df,p) Fr
 eq
 ----------------------------------------------------------------------

 Structure from the checkpoint file:  "/scratch/puck/g09_2618c087-160d-4995-8981-4ab98f6ce17b/Gau-43510.chk"
 -----
 titel
 -----
 Charge =  0 Multiplicity = 1

                         Standard orientation:
 ---------------------------------------------------------------------
 Center     Atomic      Atomic             Coordinates (Angstroms)
 Number     Number       Type             X           Y           Z
 ---------------------------------------------------------------------
      1          6           0       -0.079523    1.937286   -0.194312
      2          6           0       -0.781461    0.783922    0.523438
      3          8           0       -2.119135    0.655277    0.032105
      4          6           0       -2.375107   -0.680909   -0.385501
      5          6           0       -1.073446   -1.403976   -0.201796
      6          6           0       -0.162973   -0.585519    0.319946
      7          6           0        1.263122   -0.889388    0.679715
      8          6           0        2.234254   -0.459665   -0.414901
      9          8           0        3.153404    0.298634   -0.256619
     10          1           0       -0.002381    1.732877   -1.266703
     11          1           0       -0.656072    2.856517   -0.060423
     12          1           0        0.926128    2.099548    0.205511
     13          1           0       -0.818813    1.017190    1.602551
     14          1           0       -3.181318   -1.123638    0.222581
     15          1           0       -2.723565   -0.684260   -1.429985
     16          1           0       -0.937130   -2.451457   -0.443227
     17          1           0        1.563674   -0.397977    1.610298
     18          1           0        1.385448   -1.973349    0.803527
     19          1           0        2.020676   -0.917246   -1.407559
 ---------------------------------------------------------------------

 SCF Done:  E(RB3LYP) =  -423.200590528     A.U. after    1 cycles

 The electronic state is 1-A.
 Alpha  occ. eigenvalues --  -19.14816 -19.13540 -10.28072 -10.23893 -10.23442
 Alpha  occ. eigenvalues --  -10.20899 -10.20285 -10.19341 -10.17531  -1.05530
 Alpha  occ. eigenvalues --   -1.03515  -0.82453  -0.76901  -0.74086  -0.67357
 Alpha  occ. eigenvalues --   -0.59494  -0.58689  -0.55309  -0.50565  -0.47748
 Alpha  occ. eigenvalues --   -0.47336  -0.44426  -0.44106  -0.43769  -0.41663
 Alpha  occ. eigenvalues --   -0.39150  -0.38421  -0.37962  -0.37209  -0.34418
 Alpha  occ. eigenvalues --   -0.31791  -0.28486  -0.25655  -0.23548
 Alpha virt. eigenvalues --   -0.03410   0.01655   0.09807   0.11043   0.11402
 Alpha virt. eigenvalues --    0.12536   0.12864   0.14085   0.15472   0.15564
 Alpha virt. eigenvalues --    0.17534   0.17603   0.18226   0.20478   0.22403

 Mulliken charges:
               1
     1  C   -0.402168
     2  C    0.059157
     3  O   -0.277519
     4  C   -0.110909
     5  C   -0.212230
     6  C    0.283780
     7  C   -0.388573
     8  C    0.166365
     9  O   -0.232553
    10  H    0.117106
    11  H    0.127620
    12  H    0.131486
    13  H    0.080893
    14  H    0.105446
    15  H    0.108265
    16  H    0.102740
    17  H    0.128405
    18  H    0.129659
    19  H    0.083030
 Sum of Mulliken charges =   0.00000

 Dipole moment (field-independent basis, Debye):
    X=             -0.9493    Y=             -2.3807    Z=              0.1219  Tot=              2.5659
 Quadrupole moment (field-independent basis, Debye-Ang):
   XX=            -64.3650   YY=            -50.2996   ZZ=            -52.0200
   XY=             -0.5428   XZ=              1.5372   YZ=              1.2439

  Exact polarizability:  94.295  11.335  78.775   5.347   5.217  64.120
 Approx polarizability: 133.518  23.459 117.167  12.269  12.073  98.812

                      1                      2                      3
                      A                      A                      A
 Frequencies --     46.0509                62.6484                83.0071
 Red. masses --      4.0291                 5.1242                 3.3827
 Frc consts  --      0.0050                 0.0118                 0.0137
 IR Inten    --      5.7468                 4.0960                 3.2551

                      4                      5                      6
                      A                      A                      A
 Frequencies --    150.5498               239.1826               242.5995
 Red. masses --      2.3814                 1.6037                 1.4072
 Frc consts  --      0.0318                 0.0541                 0.0488
 IR Inten    --      2.2901                 0.4247                 0.1666

                      7                      8                      9
                      A                      A                      A
 Frequencies --    289.4336               350.0799               391.8837
 Red. masses --      2.5062                 2.5540                 3.3729
 Frc consts  --      0.1237                 0.1844                 0.3052
 IR Inten    --      3.2022                 2.2794                 2.0458

                     10                     11                     12
                      A                      A                      A
 Frequencies --    465.0296               598.8014               634.9460
 Red. masses --      3.2321                 2.9692                 3.4755
 Frc consts  --      0.4118                 0.6273                 0.8255
 IR Inten    --     10.0025                12.1218                 3.2125

                     13                     14                     15
                      A                      A                      A
 Frequencies --    764.2755               786.5386               826.7064
 Red. masses --      3.1151                 3.3751                 1.2845
 Frc consts  --      1.0721                 1.2302                 0.5172
 IR Inten    --      2.7338                 2.6660                 1.9486

                     16                     17                     18
                      A                      A                      A
 Frequencies --    843.3334               879.8995               947.2424
 Red. masses --      1.8681                 2.4917                 2.2003
 Frc consts  --      0.7828                 1.1366                 1.1632
 IR Inten    --      5.0109                15.8846                 5.9890

                     19                     20                     21
                      A                      A                      A
 Frequencies --   1012.2175              1034.6065              1046.8371
 Red. masses --      1.7348                 2.1588                 1.8387
 Frc consts  --      1.0472                 1.3615                 1.1872
 IR Inten    --      1.6109                30.6532                 4.5989

                     22                     23                     24
                      A                      A                      A
 Frequencies --   1057.5415              1083.0830              1114.5818
 Red. masses --      2.6296                 1.8289                 2.1721
 Frc consts  --      1.7327                 1.2641                 1.5899
 IR Inten    --     25.5998                 5.0428                 6.6320

                     25                     26                     27
                      A                      A                      A
 Frequencies --   1120.3228              1176.3057              1199.1608
 Red. masses --      5.1330                 1.6583                 1.1079
 Frc consts  --      3.7958                 1.3519                 0.9386
 IR Inten    --     87.2619                 6.6703                 1.6844

                     28                     29                     30
                      A                      A                      A
 Frequencies --   1212.8188              1288.6358              1301.6843
 Red. masses --      1.5696                 1.5135                 1.3172
 Frc consts  --      1.3603                 1.4808                 1.3150
 IR Inten    --      8.6614                 2.7651                 2.7358

                     31                     32                     33
                      A                      A                      A
 Frequencies --   1357.3423              1371.7455              1382.9041
 Red. masses --      1.8096                 1.4694                 1.4476
 Frc consts  --      1.9644                 1.6291                 1.6311
 IR Inten    --      0.3917                15.9935                13.9163

                     34                     35                     36
                      A                      A                      A
 Frequencies --   1404.5454              1416.2933              1462.1039
 Red. masses --      1.2580                 1.1693                 1.1003
 Frc consts  --      1.4621                 1.3819                 1.3859
 IR Inten    --      6.0738                 4.7622                 6.7097

                     37                     38                     39
                      A                      A                      A
 Frequencies --   1486.0251              1495.9036              1521.8335
 Red. masses --      1.0577                 1.0496                 1.0855
 Frc consts  --      1.3761                 1.3838                 1.4813
 IR Inten    --      4.5754                 3.5349                 1.5737

                     40                     41                     42
                      A                      A                      A
 Frequencies --   1718.7067              1834.5956              2876.8795
 Red. masses --      7.7958                10.0376                 1.0834
 Frc consts  --     13.5680                19.9049                 5.2833
 IR Inten    --      8.5351               180.6985                82.6473

                     43                     44                     45
                      A                      A                      A
 Frequencies --   2938.8783              2966.5615              2989.5189
 Red. masses --      1.0815                 1.0648                 1.0962
 Frc consts  --      5.5037                 5.5213                 5.7723
 IR Inten    --     62.9368                86.8385                49.2338

                     46                     47                     48
                      A                      A                      A
 Frequencies --   3027.3106              3039.9915              3094.2256
 Red. masses --      1.0607                 1.0345                 1.1006
 Frc consts  --      5.7272                 5.6328                 6.2084
 IR Inten    --     11.6648                12.4299                 9.6183

                     49                     50                     51
                      A                      A                      A
 Frequencies --   3116.7547              3121.7926              3206.2055
 Red. masses --      1.1022                 1.1020                 1.0954
 Frc consts  --      6.3083                 6.3275                 6.6342
 IR Inten    --     20.8600                16.1961                 7.4468

 - Thermochemistry -
 -------------------
 Temperature   298.150 Kelvin.  Pressure   1.00000 Atm.
 Atom     1 has atomic number  6 and mass  12.00000

 Molecular mass:   126.06808 amu.
 Principal axes and moments of inertia in atomic units:
                           1         2         3
     Eigenvalues --   582.932711628.141092013.15198
           X            0.99995   0.00588   0.00822
           Y           -0.00593   0.99997   0.00540
           Z           -0.00819  -0.00545   0.99995
 This molecule is an asymmetric top.
 Rotational symmetry number  1.
 Warning -- assumption of classical behavior for rotation
           may cause significant error
 Rotational temperatures (Kelvin)      0.14858     0.05320     0.04302
 Rotational constants (GHZ):           3.09597     1.10847     0.89648
 Zero-point vibrational energy     413190.9 (Joules/Mol)
                                   98.75499 (Kcal/Mol)
 Warning -- explicit consideration of  11 degrees of freedom as
           vibrations may cause significant error
 Vibrational temperatures:     66.26    90.14   119.43   216.61   344.13
          (Kelvin)            349.05   416.43   503.69   563.83   669.07
                              861.54   913.54  1099.62  1131.65  1189.44
                             1213.37  1265.98  1362.87  1456.35  1488.57
                             1506.16  1521.56  1558.31  1603.63  1611.89
                             1692.44  1725.32  1744.97  1854.06  1872.83
                             1952.91  1973.63  1989.69  2020.83  2037.73
                             2103.64  2138.06  2152.27  2189.58  2472.83
                             2639.57  4139.18  4228.39  4268.21  4301.25
                             4355.62  4373.86  4451.89  4484.31  4491.56
                             4613.01

 Zero-point correction=                           0.157376 (Hartree/Particle)
 Thermal correction to Energy=                    0.166686
 Thermal correction to Enthalpy=                  0.167630
 Thermal correction to Gibbs Free Energy=         0.122003
 Sum of electronic and zero-point Energies=           -423.043214
 Sum of electronic and thermal Energies=              -423.033905
 Sum of electronic and thermal Enthalpies=            -423.032961
 Sum of electronic and thermal Free Energies=         -423.078588

                     E (Thermal)             CV                S
                      KCal/Mol        Cal/Mol-Kelvin    Cal/Mol-Kelvin
 Total                  104.597             32.973             96.031
 Electronic               0.000              0.000              0.000
 Translational            0.889              2.981             40.409
 Rotational               0.889              2.981             29.037
 Vibrational            102.819             27.012             26.585
 Vibration     1          0.595              1.979              4.980
 Vibration     2          0.597              1.972              4.372
 Vibration     3          0.600              1.961              3.818
 Vibration     4          0.618              1.902              2.665
 Vibration     5          0.657              1.781              1.809
 Vibration     6          0.659              1.775              1.784
 Vibration     7          0.686              1.693              1.477
 Vibration     8          0.727              1.575              1.166
 Vibration     9          0.759              1.488              0.993
 Vibration    10          0.822              1.328              0.752
 Vibration    11          0.957              1.034              0.452

 Normal termination of Gaussian 09 at Tue Jan 28 08:56:39 2020.
