 Gaussian 09, Revision D.01,
 Gaussian 09:  ES64L-G09RevD.01 24-Apr-2013

 -----------------------------
 # b3lyp 6-31G(2df,p) opt Freq
 -----------------------------

 -----
 titel
 -----
 Symbolic Z-matrix:
 Charge =  0 Multiplicity = 1

 SCF Done:  E(RB3LYP) =  -423.131318603     A.U. after   14 cycles
 Optimization completed.
    -- Stationary point found.
 Normal termination of Gaussian 09 at Tue Jan 28 03:02:55 2020.

 ----------------------------------------------------------------------
 #N Geom=AllCheck Guess=TCheck SCRF=Check GenChk RB3LYP/6-31G(2df,p) Fr
 eq
 ----------------------------------------------------------------------

 Structure from the checkpoint file:  "/scratch/puck/g09_3461e29d-b4eb-4ac3-8224-134cdf68542b/Gau-65434.chk"
 -----
 titel
 -----
 Charge =  0 Multiplicity = 1

                         Standard orientation:
 ---------------------------------------------------------------------
 Center     Atomic      Atomic             Coordinates (Angstroms)
 Number     Number       Type             X           Y           Z
 ---------------------------------------------------------------------
      1          6           0        2.217757   -0.913663    0.628524
      2          6           0        1.289181   -0.528105   -0.519284
      3          6           0        0.062870   -1.483717   -0.737927
      4          6           0       -0.835883   -0.421265   -0.088910
      5          6           0       -1.865222   -0.544306    0.943832
      6          8           0       -2.187439   -0.153471   -0.401412
      7          6           0        0.285379    0.587378   -0.163450
      8          6           0        0.216888    1.980539   -0.601617
      9          8           0        0.499516    1.632667    0.765073
     10          1           0        2.901611   -0.093729    0.866882
     11          1           0        1.650761   -1.143426    1.536866
     12          1           0        2.812961   -1.794860    0.368835
     13          1           0        1.866592   -0.332580   -1.426929
     14          1           0       -0.180768   -1.637668   -1.791868
     15          1           0        0.113878   -2.452261   -0.235163
     16          1           0       -2.217796   -1.531736    1.238533
     17          1           0       -1.962912    0.240127    1.691967
     18          1           0        1.049774    2.414789   -1.153077
     19          1           0       -0.756539    2.436610   -0.772336
 ---------------------------------------------------------------------

 SCF Done:  E(RB3LYP) =  -423.131318603     A.U. after    1 cycles

 The electronic state is 1-A.
 Alpha  occ. eigenvalues --  -19.15522 -19.15460 -10.24171 -10.23908 -10.23451
 Alpha  occ. eigenvalues --  -10.23432 -10.19798 -10.19026 -10.17980  -1.08078
 Alpha  occ. eigenvalues --   -1.06826  -0.84385  -0.72190  -0.67401  -0.66159
 Alpha  occ. eigenvalues --   -0.63644  -0.60302  -0.53042  -0.51099  -0.50267
 Alpha  occ. eigenvalues --   -0.47033  -0.46231  -0.43022  -0.41586  -0.40434
 Alpha  occ. eigenvalues --   -0.39779  -0.36561  -0.35044  -0.34551  -0.32609
 Alpha  occ. eigenvalues --   -0.31745  -0.28487  -0.28149  -0.25298
 Alpha virt. eigenvalues --    0.05071   0.09531   0.10373   0.11078   0.12114
 Alpha virt. eigenvalues --    0.12742   0.13955   0.14895   0.15376   0.16057
 Alpha virt. eigenvalues --    0.16829   0.18428   0.19548   0.19668   0.20348

 Mulliken charges:
               1
     1  C   -0.387394
     2  C   -0.116185
     3  C   -0.359276
     4  C    0.393857
     5  C   -0.263909
     6  O   -0.277563
     7  C    0.389693
     8  C   -0.266943
     9  O   -0.279457
    10  H    0.129019
    11  H    0.120590
    12  H    0.115246
    13  H    0.081021
    14  H    0.119427
    15  H    0.109841
    16  H    0.117180
    17  H    0.128966
    18  H    0.116736
    19  H    0.129149
 Sum of Mulliken charges =   0.00000

 Dipole moment (field-independent basis, Debye):
    X=              1.0829    Y=             -1.0522    Z=             -0.4645  Tot=              1.5797
 Quadrupole moment (field-independent basis, Debye-Ang):
   XX=            -55.7465   YY=            -51.4284   ZZ=            -52.5411
   XY=             -0.2049   XZ=             -4.4397   YZ=             -3.5898

  Exact polarizability:  79.223   0.192  79.806  -4.912  -3.321  67.395
 Approx polarizability: 107.294   0.665 110.532  -3.775  -3.005 106.584

                      1                      2                      3
                      A                      A                      A
 Frequencies --     64.6039               168.5944               198.2827
 Red. masses --      3.0345                 3.5718                 3.1739
 Frc consts  --      0.0075                 0.0598                 0.0735
 IR Inten    --      0.7674                 5.4514                 2.0553

                      4                      5                      6
                      A                      A                      A
 Frequencies --    210.8029               217.1312               258.4128
 Red. masses --      1.1434                 3.0946                 3.2324
 Frc consts  --      0.0299                 0.0860                 0.1272
 IR Inten    --      0.3138                 5.2700                 3.2176

                      7                      8                      9
                      A                      A                      A
 Frequencies --    344.4485               402.4141               463.9565
 Red. masses --      2.0840                 3.1240                 2.8752
 Frc consts  --      0.1457                 0.2981                 0.3647
 IR Inten    --      0.6096                 1.4067                 0.5046

                     10                     11                     12
                      A                      A                      A
 Frequencies --    537.2282               589.5349               617.9893
 Red. masses --      4.0450                 3.9392                 4.0541
 Frc consts  --      0.6878                 0.8066                 0.9122
 IR Inten    --      4.4616                 4.0755                 7.4146

                     13                     14                     15
                      A                      A                      A
 Frequencies --    801.3794               832.2684               862.7881
 Red. masses --      2.1215                 2.0917                 2.0673
 Frc consts  --      0.8027                 0.8536                 0.9067
 IR Inten    --      3.9866                13.3353                 8.8813

                     16                     17                     18
                      A                      A                      A
 Frequencies --    881.0425               886.0009               929.1258
 Red. masses --      1.9532                 4.8378                 1.8036
 Frc consts  --      0.8933                 2.2375                 0.9174
 IR Inten    --      3.8271                27.0812                27.8933

                     19                     20                     21
                      A                      A                      A
 Frequencies --    940.6573               963.4661              1026.8239
 Red. masses --      2.3603                 3.7078                 1.7997
 Frc consts  --      1.2305                 2.0279                 1.1180
 IR Inten    --     23.2291                 7.9230                 6.7414

                     22                     23                     24
                      A                      A                      A
 Frequencies --   1080.7120              1119.1265              1122.9530
 Red. masses --      1.6761                 1.5171                 1.6052
 Frc consts  --      1.1534                 1.1195                 1.1926
 IR Inten    --      3.4106                 2.4681                 6.1446

                     25                     26                     27
                      A                      A                      A
 Frequencies --   1126.7839              1134.0202              1159.1479
 Red. masses --      1.4623                 1.5747                 1.4426
 Frc consts  --      1.0938                 1.1931                 1.1420
 IR Inten    --      3.3871                 0.5230                 0.1581

                     28                     29                     30
                      A                      A                      A
 Frequencies --   1170.5854              1178.8840              1193.0686
 Red. masses --      1.5399                 2.0026                 1.6503
 Frc consts  --      1.2432                 1.6398                 1.3840
 IR Inten    --      0.9310                 5.7776                 3.4045

                     31                     32                     33
                      A                      A                      A
 Frequencies --   1245.5882              1258.9316              1345.9391
 Red. masses --      1.8549                 1.5173                 1.5206
 Frc consts  --      1.6956                 1.4169                 1.6230
 IR Inten    --      7.3569                 3.7840                 2.2483

                     34                     35                     36
                      A                      A                      A
 Frequencies --   1402.4456              1413.5574              1453.7246
 Red. masses --      2.2211                 1.3877                 1.5500
 Frc consts  --      2.5739                 1.6338                 1.9300
 IR Inten    --     14.6829                 1.9576                 3.0699

                     37                     38                     39
                      A                      A                      A
 Frequencies --   1481.5550              1494.0089              1496.3873
 Red. masses --      1.1784                 1.0489                 1.0503
 Frc consts  --      1.5240                 1.3794                 1.3856
 IR Inten    --      4.0715                 4.5621                 2.2027

                     40                     41                     42
                      A                      A                      A
 Frequencies --   1526.7321              1538.2501              3035.2060
 Red. masses --      1.4420                 2.1717                 1.0350
 Frc consts  --      1.9804                 3.0276                 5.6177
 IR Inten    --      5.2871                 8.5766                20.9442

                     43                     44                     45
                      A                      A                      A
 Frequencies --   3062.4626              3069.2373              3084.7191
 Red. masses --      1.0742                 1.0705                 1.0501
 Frc consts  --      5.9357                 5.9413                 5.8874
 IR Inten    --     12.4356                20.0701                20.6311

                     46                     47                     48
                      A                      A                      A
 Frequencies --   3085.4783              3104.7290              3111.3875
 Red. masses --      1.0499                 1.1014                 1.1015
 Frc consts  --      5.8892                 6.2555                 6.2828
 IR Inten    --     26.2703                32.6216                16.9922

                     49                     50                     51
                      A                      A                      A
 Frequencies --   3121.8463              3177.6200              3178.9310
 Red. masses --      1.1078                 1.1196                 1.1200
 Frc consts  --      6.3609                 6.6608                 6.6685
 IR Inten    --     18.5305                15.6381                14.3421

 - Thermochemistry -
 -------------------
 Temperature   298.150 Kelvin.  Pressure   1.00000 Atm.
 Atom     1 has atomic number  6 and mass  12.00000

 Molecular mass:   126.06808 amu.
 Principal axes and moments of inertia in atomic units:
                           1         2         3
     Eigenvalues --   799.549041075.735841470.65127
           X            0.99824  -0.05742  -0.01464
           Y            0.05677   0.99753  -0.04131
           Z            0.01697   0.04041   0.99904
 This molecule is an asymmetric top.
 Rotational symmetry number  1.
 Warning -- assumption of classical behavior for rotation
           may cause significant error
 Rotational temperatures (Kelvin)      0.10833     0.08052     0.05889
 Rotational constants (GHZ):           2.25720     1.67768     1.22717
 Zero-point vibrational energy     413734.3 (Joules/Mol)
                                   98.88487 (Kcal/Mol)
 Warning -- explicit consideration of  12 degrees of freedom as
           vibrations may cause significant error
 Vibrational temperatures:     92.95   242.57   285.28   303.30   312.40
          (Kelvin)            371.80   495.58   578.98   667.53   772.95
                              848.21   889.15  1153.00  1197.45  1241.36
                             1267.62  1274.76  1336.80  1353.39  1386.21
                             1477.37  1554.90  1610.17  1615.68  1621.19
                             1631.60  1667.75  1684.21  1696.15  1716.56
                             1792.12  1811.32  1936.50  2017.80  2033.79
                             2091.58  2131.62  2149.54  2152.96  2196.62
                             2213.20  4366.98  4406.20  4415.94  4438.22
                             4439.31  4467.01  4476.59  4491.63  4571.88
                             4573.77

 Zero-point correction=                           0.157583 (Hartree/Particle)
 Thermal correction to Energy=                    0.166156
 Thermal correction to Enthalpy=                  0.167100
 Thermal correction to Gibbs Free Energy=         0.124360
 Sum of electronic and zero-point Energies=           -422.973736
 Sum of electronic and thermal Energies=              -422.965163
 Sum of electronic and thermal Enthalpies=            -422.964219
 Sum of electronic and thermal Free Energies=         -423.006958

                     E (Thermal)             CV                S
                      KCal/Mol        Cal/Mol-Kelvin    Cal/Mol-Kelvin
 Total                  104.264             32.516             89.953
 Electronic               0.000              0.000              0.000
 Translational            0.889              2.981             40.409
 Rotational               0.889              2.981             28.627
 Vibrational            102.487             26.555             20.918
 Vibration     1          0.597              1.971              4.311
 Vibration     2          0.625              1.881              2.451
 Vibration     3          0.637              1.842              2.149
 Vibration     4          0.643              1.824              2.037
 Vibration     5          0.646              1.815              1.983
 Vibration     6          0.667              1.749              1.672
 Vibration     7          0.723              1.587              1.191
 Vibration     8          0.768              1.465              0.954
 Vibration     9          0.821              1.330              0.755
 Vibration    10          0.892              1.168              0.571
 Vibration    11          0.947              1.054              0.468
 Vibration    12          0.978              0.994              0.420

 Optimization completed.
    -- Stationary point found.
 Normal termination of Gaussian 09 at Tue Jan 28 03:55:07 2020.
