 Gaussian 09, Revision D.01,
 Gaussian 09:  ES64L-G09RevD.01 24-Apr-2013

 -----------------------------
 # b3lyp 6-31G(2df,p) opt Freq
 -----------------------------

 -----
 titel
 -----
 Symbolic Z-matrix:
 Charge =  0 Multiplicity = 1

 SCF Done:  E(RB3LYP) =  -423.112160090     A.U. after   13 cycles
 Optimization completed.
    -- Stationary point found.
 Normal termination of Gaussian 09 at Tue Jan 28 08:07:59 2020.

 ----------------------------------------------------------------------
 #N Geom=AllCheck Guess=TCheck SCRF=Check GenChk RB3LYP/6-31G(2df,p) Fr
 eq
 ----------------------------------------------------------------------

 Structure from the checkpoint file:  "/scratch/puck/g09_3f4516fc-53f8-462f-919a-cb7edae64597/Gau-127838.chk"
 -----
 titel
 -----
 Charge =  0 Multiplicity = 1

                         Standard orientation:
 ---------------------------------------------------------------------
 Center     Atomic      Atomic             Coordinates (Angstroms)
 Number     Number       Type             X           Y           Z
 ---------------------------------------------------------------------
      1          8           0       -4.138036    0.951003    0.344451
      2          6           0       -3.603723   -0.135731   -0.398560
      3          6           0       -2.200377   -0.416614   -0.102606
      4          6           0       -1.033225   -0.593264    0.135677
      5          6           0        0.366207   -0.839100    0.449321
      6          8           0        1.201778   -0.154895   -0.475485
      7          6           0        2.556663   -0.353693   -0.211984
      8          6           0        3.481159    0.731069   -0.652842
      9          6           0        3.237527    0.502934    0.827033
     10          1           0       -3.542907    1.698823    0.226756
     11          1           0       -4.222421   -1.003435   -0.143716
     12          1           0       -3.716179    0.024585   -1.482904
     13          1           0        0.585919   -0.509106    1.477206
     14          1           0        0.568541   -1.922952    0.416175
     15          1           0        2.885270   -1.389479   -0.312427
     16          1           0        4.438919    0.453087   -1.077554
     17          1           0        3.018963    1.603774   -1.099421
     18          1           0        4.027378    0.068233    1.429568
     19          1           0        2.621184    1.233999    1.338355
 ---------------------------------------------------------------------

 SCF Done:  E(RB3LYP) =  -423.112160090     A.U. after    1 cycles

 The electronic state is 1-A.
 Alpha  occ. eigenvalues --  -19.14997 -19.14020 -10.25453 -10.25213 -10.23790
 Alpha  occ. eigenvalues --  -10.18794 -10.18764 -10.18209 -10.17927  -1.04594
 Alpha  occ. eigenvalues --   -1.02209  -0.85133  -0.77753  -0.72866  -0.66791
 Alpha  occ. eigenvalues --   -0.60631  -0.59153  -0.53288  -0.52065  -0.49932
 Alpha  occ. eigenvalues --   -0.48351  -0.46440  -0.45525  -0.44357  -0.42305
 Alpha  occ. eigenvalues --   -0.37105  -0.36242  -0.35557  -0.32286  -0.29299
 Alpha  occ. eigenvalues --   -0.28609  -0.26629  -0.26045  -0.25061
 Alpha virt. eigenvalues --    0.03050   0.03662   0.09626   0.10246   0.10898
 Alpha virt. eigenvalues --    0.11793   0.13044   0.14050   0.15193   0.16655
 Alpha virt. eigenvalues --    0.17382   0.18413   0.21220   0.21623   0.22478

 Mulliken charges:
               1
     1  O   -0.401837
     2  C   -0.194720
     3  C    0.130652
     4  C   -0.015150
     5  C   -0.212092
     6  O   -0.249612
     7  C    0.161036
     8  C   -0.287631
     9  C   -0.288718
    10  H    0.288310
    11  H    0.141185
    12  H    0.121857
    13  H    0.122585
    14  H    0.119392
    15  H    0.084109
    16  H    0.116030
    17  H    0.128896
    18  H    0.114349
    19  H    0.121359
 Sum of Mulliken charges =   0.00000

 Dipole moment (field-independent basis, Debye):
    X=              1.7439    Y=             -0.3817    Z=              0.1003  Tot=              1.7880
 Quadrupole moment (field-independent basis, Debye-Ang):
   XX=            -54.7330   YY=            -49.4431   ZZ=            -53.9336
   XY=             -0.5788   XZ=              4.7117   YZ=             -0.8407

  Exact polarizability: 118.254  -1.543  66.283   4.242  -0.808  63.405
 Approx polarizability: 151.566  -6.293  96.068   8.079  -1.471  94.519

                      1                      2                      3
                      A                      A                      A
 Frequencies --     29.0413                44.1184                81.1618
 Red. masses --      3.2043                 3.5371                 3.0003
 Frc consts  --      0.0016                 0.0041                 0.0116
 IR Inten    --      2.2285                 1.0070                 1.2695

                      4                      5                      6
                      A                      A                      A
 Frequencies --    116.1543               139.0975               208.8542
 Red. masses --      4.2028                 2.9341                 2.9136
 Frc consts  --      0.0334                 0.0334                 0.0749
 IR Inten    --      2.0001                 2.4352                 4.7790

                      7                      8                      9
                      A                      A                      A
 Frequencies --    278.4925               297.2187               360.9947
 Red. masses --      2.5476                 1.8660                 2.4252
 Frc consts  --      0.1164                 0.0971                 0.1862
 IR Inten    --     32.6032                45.8362                51.0765

                     10                     11                     12
                      A                      A                      A
 Frequencies --    387.4804               442.8424               499.4465
 Red. masses --      3.4413                 2.6983                 4.3142
 Frc consts  --      0.3044                 0.3118                 0.6340
 IR Inten    --      5.2482                 1.0680                 0.6613

                     13                     14                     15
                      A                      A                      A
 Frequencies --    574.8417               755.1593               788.8895
 Red. masses --      6.4843                 1.3838                 2.1857
 Frc consts  --      1.2624                 0.4649                 0.8015
 IR Inten    --      9.2421                 3.8432                 4.9179

                     16                     17                     18
                      A                      A                      A
 Frequencies --    820.4678               846.2522               960.9955
 Red. masses --      1.4437                 2.4146                 3.2011
 Frc consts  --      0.5726                 1.0188                 1.7418
 IR Inten    --     10.1041                 6.2484                 8.6593

                     19                     20                     21
                      A                      A                      A
 Frequencies --    984.2067               987.7936              1026.7608
 Red. masses --      1.8206                 2.0926                 1.7061
 Frc consts  --      1.0391                 1.2030                 1.0597
 IR Inten    --     34.3107                15.5107                 2.2042

                     22                     23                     24
                      A                      A                      A
 Frequencies --   1045.6195              1048.4471              1073.0328
 Red. masses --      2.5645                 2.1704                 1.7219
 Frc consts  --      1.6519                 1.4057                 1.1681
 IR Inten    --     80.4661                24.9344                24.3246

                     25                     26                     27
                      A                      A                      A
 Frequencies --   1077.4542              1127.7030              1164.3256
 Red. masses --      2.7757                 1.2300                 3.4732
 Frc consts  --      1.8986                 0.9216                 2.7741
 IR Inten    --     72.6020                 6.3036                27.5354

                     28                     29                     30
                      A                      A                      A
 Frequencies --   1193.8883              1201.4495              1215.7784
 Red. masses --      1.3300                 2.4516                 1.0882
 Frc consts  --      1.1170                 2.0850                 0.9477
 IR Inten    --      1.7526                72.5751                12.4181

                     31                     32                     33
                      A                      A                      A
 Frequencies --   1240.0405              1253.8616              1358.3460
 Red. masses --      1.8387                 1.1192                 1.2250
 Frc consts  --      1.6658                 1.0367                 1.3317
 IR Inten    --     45.7555                12.1852                13.6307

                     34                     35                     36
                      A                      A                      A
 Frequencies --   1368.6604              1419.4002              1429.7535
 Red. masses --      1.3365                 1.2446                 1.3620
 Frc consts  --      1.4751                 1.4774                 1.6404
 IR Inten    --    162.2885                88.9983                 5.7989

                     37                     38                     39
                      A                      A                      A
 Frequencies --   1453.4281              1488.4291              1494.6923
 Red. masses --      1.0916                 1.0783                 1.1831
 Frc consts  --      1.3586                 1.4074                 1.5573
 IR Inten    --      1.5028                 1.1860                 7.4670

                     40                     41                     42
                      A                      A                      A
 Frequencies --   1501.6106              2365.4022              2963.0235
 Red. masses --      1.3271                11.8912                 1.0591
 Frc consts  --      1.7631                39.2000                 5.4786
 IR Inten    --      7.9099                 0.7628                35.0297

                     43                     44                     45
                      A                      A                      A
 Frequencies --   2977.3001              2989.1606              3062.7712
 Red. masses --      1.0712                 1.0982                 1.0883
 Frc consts  --      5.5946                 5.7812                 6.0151
 IR Inten    --     44.0195                28.0903                17.2709

                     46                     47                     48
                      A                      A                      A
 Frequencies --   3086.8522              3136.5530              3143.8023
 Red. masses --      1.0868                 1.0521                 1.0574
 Frc consts  --      6.1013                 6.0984                 6.1576
 IR Inten    --     35.8549                12.0029                 7.5151

                     49                     50                     51
                      A                      A                      A
 Frequencies --   3221.4829              3236.4587              3816.7861
 Red. masses --      1.1184                 1.1159                 1.0663
 Frc consts  --      6.8384                 6.8867                 9.1519
 IR Inten    --      2.0039                13.9382                20.3165

 - Thermochemistry -
 -------------------
 Temperature   298.150 Kelvin.  Pressure   1.00000 Atm.
 Atom     1 has atomic number  8 and mass  15.99491

 Molecular mass:   126.06808 amu.
 Principal axes and moments of inertia in atomic units:
                           1         2         3
     Eigenvalues --   321.309783626.656693698.31682
           X            0.99997   0.00369   0.00685
           Y           -0.00331   0.99850  -0.05458
           Z           -0.00704   0.05456   0.99849
 This molecule is an asymmetric top.
 Rotational symmetry number  1.
 Rotational temperatures (Kelvin)      0.26956     0.02388     0.02342
 Rotational constants (GHZ):           5.61683     0.49763     0.48799
 Zero-point vibrational energy     411430.3 (Joules/Mol)
                                   98.33421 (Kcal/Mol)
 Warning -- explicit consideration of  13 degrees of freedom as
           vibrations may cause significant error
 Vibrational temperatures:     41.78    63.48   116.77   167.12   200.13
          (Kelvin)            300.49   400.69   427.63   519.39   557.50
                              637.15   718.59   827.07  1086.50  1135.03
                             1180.47  1217.57  1382.66  1416.05  1421.21
                             1477.28  1504.41  1508.48  1543.85  1550.21
                             1622.51  1675.20  1717.74  1728.62  1749.23
                             1784.14  1804.02  1954.35  1969.19  2042.20
                             2057.09  2091.16  2141.51  2150.53  2160.48
                             3403.28  4263.12  4283.67  4300.73  4406.64
                             4441.29  4512.79  4523.22  4634.99  4656.54
                             5491.50

 Zero-point correction=                           0.156706 (Hartree/Particle)
 Thermal correction to Energy=                    0.166915
 Thermal correction to Enthalpy=                  0.167859
 Thermal correction to Gibbs Free Energy=         0.119341
 Sum of electronic and zero-point Energies=           -422.955455
 Sum of electronic and thermal Energies=              -422.945245
 Sum of electronic and thermal Enthalpies=            -422.944301
 Sum of electronic and thermal Free Energies=         -422.992819

                     E (Thermal)             CV                S
                      KCal/Mol        Cal/Mol-Kelvin    Cal/Mol-Kelvin
 Total                  104.741             35.331            102.114
 Electronic               0.000              0.000              0.000
 Translational            0.889              2.981             40.409
 Rotational               0.889              2.981             29.845
 Vibrational            102.963             29.369             31.861
 Vibration     1          0.593              1.984              5.894
 Vibration     2          0.595              1.980              5.065
 Vibration     3          0.600              1.962              3.863
 Vibration     4          0.608              1.936              3.163
 Vibration     5          0.615              1.914              2.816
 Vibration     6          0.642              1.827              2.054
 Vibration     7          0.679              1.713              1.543
 Vibration     8          0.691              1.679              1.433
 Vibration     9          0.735              1.553              1.118
 Vibration    10          0.756              1.497              1.010
 Vibration    11          0.802              1.377              0.818
 Vibration    12          0.855              1.251              0.660
 Vibration    13          0.931              1.086              0.495

 Optimization completed.
    -- Stationary point found.
 Normal termination of Gaussian 09 at Tue Jan 28 08:38:15 2020.
