 Gaussian 09, Revision D.01,
 Gaussian 09:  ES64L-G09RevD.01 24-Apr-2013

 -----------------------------
 # b3lyp 6-31G(2df,p) opt Freq
 -----------------------------

 -----
 titel
 -----
 Symbolic Z-matrix:
 Charge =  0 Multiplicity = 1

 SCF Done:  E(RB3LYP) =  -423.113006179     A.U. after   14 cycles
 Optimization completed.
    -- Stationary point found.
 Normal termination of Gaussian 09 at Tue Jan 28 08:19:00 2020.

 ----------------------------------------------------------------------
 #N Geom=AllCheck Guess=TCheck SCRF=Check GenChk RB3LYP/6-31G(2df,p) Fr
 eq
 ----------------------------------------------------------------------

 Structure from the checkpoint file:  "/scratch/puck/g09_968065ea-13aa-4134-89ce-08fc3aa3fae7/Gau-14773.chk"
 -----
 titel
 -----
 Charge =  0 Multiplicity = 1

                         Standard orientation:
 ---------------------------------------------------------------------
 Center     Atomic      Atomic             Coordinates (Angstroms)
 Number     Number       Type             X           Y           Z
 ---------------------------------------------------------------------
      1          6           0       -1.357806    2.099507    0.194774
      2          8           0       -1.884495    0.910345   -0.355384
      3          6           0       -1.342577   -0.283310    0.181253
      4          6           0       -2.234416   -1.431873   -0.275583
      5          6           0        0.087548   -0.491000   -0.291863
      6          8           0        0.812768   -1.541511    0.339900
      7          6           0        1.257755   -0.192347    0.563113
      8          6           0        2.527185    0.191367    0.007958
      9          6           0        3.588705    0.534638   -0.439277
     10          1           0       -0.295775    2.243223   -0.047668
     11          1           0       -1.928135    2.927594   -0.232730
     12          1           0       -1.469575    2.121662    1.290128
     13          1           0       -1.337360   -0.236635    1.283784
     14          1           0       -1.850542   -2.381219    0.106289
     15          1           0       -3.253705   -1.284001    0.089428
     16          1           0       -2.263994   -1.477318   -1.368681
     17          1           0        0.224978   -0.427894   -1.372527
     18          1           0        1.062504    0.170334    1.572251
     19          1           0        4.527055    0.831688   -0.838657
 ---------------------------------------------------------------------

 SCF Done:  E(RB3LYP) =  -423.113006179     A.U. after    1 cycles

 The electronic state is 1-A.
 Alpha  occ. eigenvalues --  -19.16474 -19.14590 -10.26524 -10.24558 -10.24237
 Alpha  occ. eigenvalues --  -10.22838 -10.19244 -10.18779 -10.17738  -1.08549
 Alpha  occ. eigenvalues --   -1.03786  -0.78085  -0.77090  -0.69269  -0.67932
 Alpha  occ. eigenvalues --   -0.66196  -0.59091  -0.54983  -0.51485  -0.50544
 Alpha  occ. eigenvalues --   -0.48816  -0.45838  -0.44397  -0.41939  -0.41520
 Alpha  occ. eigenvalues --   -0.38739  -0.37777  -0.36255  -0.34196  -0.31964
 Alpha  occ. eigenvalues --   -0.29106  -0.28395  -0.26953  -0.25522
 Alpha virt. eigenvalues --    0.01598   0.03520   0.07963   0.10852   0.11766
 Alpha virt. eigenvalues --    0.11888   0.12505   0.14463   0.15210   0.16088
 Alpha virt. eigenvalues --    0.16958   0.17546   0.17877   0.18658   0.20307

 Mulliken charges:
               1
     1  C   -0.241040
     2  O   -0.239587
     3  C    0.091857
     4  C   -0.406102
     5  C    0.053649
     6  O   -0.243339
     7  C   -0.166138
     8  C    0.316551
     9  C   -0.405960
    10  H    0.116981
    11  H    0.130809
    12  H    0.103998
    13  H    0.069264
    14  H    0.135553
    15  H    0.124398
    16  H    0.126291
    17  H    0.110255
    18  H    0.118227
    19  H    0.204334
 Sum of Mulliken charges =   0.00000

 Dipole moment (field-independent basis, Debye):
    X=              0.1141    Y=              1.5623    Z=              0.4027  Tot=              1.6174
 Quadrupole moment (field-independent basis, Debye-Ang):
   XX=            -50.9067   YY=            -54.2866   ZZ=            -51.9780
   XY=              3.9369   XZ=             -3.2529   YZ=              1.3418

  Exact polarizability: 104.084  10.188  71.642  -5.002  -0.602  62.627
 Approx polarizability: 141.834  16.952 102.964  -9.521  -4.915  98.585

                      1                      2                      3
                      A                      A                      A
 Frequencies --     69.4098                75.1063               113.6530
 Red. masses --      4.1072                 3.2065                 2.1819
 Frc consts  --      0.0117                 0.0107                 0.0166
 IR Inten    --      1.3001                 0.3903                 3.2884

                      4                      5                      6
                      A                      A                      A
 Frequencies --    142.6146               197.1435               221.9574
 Red. masses --      3.2361                 1.3349                 1.1463
 Frc consts  --      0.0388                 0.0306                 0.0333
 IR Inten    --      0.2625                 1.6325                 1.1095

                      7                      8                      9
                      A                      A                      A
 Frequencies --    236.2935               264.6221               335.1287
 Red. masses --      3.1663                 3.2044                 3.1698
 Frc consts  --      0.1042                 0.1322                 0.2098
 IR Inten    --      2.3878                 2.7696                 8.4071

                     10                     11                     12
                      A                      A                      A
 Frequencies --    347.7826               468.7845               499.7251
 Red. masses --      3.8946                 4.5245                 4.6348
 Frc consts  --      0.2775                 0.5858                 0.6819
 IR Inten    --      2.5428                 0.9307                 5.7257

                     13                     14                     15
                      A                      A                      A
 Frequencies --    535.0150               566.1964               621.9087
 Red. masses --      3.6953                 6.4869                 1.2083
 Frc consts  --      0.6232                 1.2252                 0.2753
 IR Inten    --      1.6016                 6.5092                43.9356

                     16                     17                     18
                      A                      A                      A
 Frequencies --    673.2359               839.1574               868.4116
 Red. masses --      1.2478                 5.5458                 2.2960
 Frc consts  --      0.3332                 2.3009                 1.0202
 IR Inten    --     34.2317                11.3622                13.5069

                     19                     20                     21
                      A                      A                      A
 Frequencies --    906.0931               936.6631               995.1880
 Red. masses --      2.8638                 2.4231                 4.2165
 Frc consts  --      1.3853                 1.2525                 2.4604
 IR Inten    --     19.9774                28.5901                14.0369

                     22                     23                     24
                      A                      A                      A
 Frequencies --   1072.6125              1079.9459              1129.6238
 Red. masses --      2.6672                 1.4416                 1.6780
 Frc consts  --      1.8080                 0.9906                 1.2615
 IR Inten    --     18.7713                 6.7226                16.1518

                     25                     26                     27
                      A                      A                      A
 Frequencies --   1143.1052              1156.3352              1174.0920
 Red. masses --      1.7859                 3.3151                 2.1412
 Frc consts  --      1.3749                 2.6116                 1.7391
 IR Inten    --     45.2461                67.7526                16.3247

                     28                     29                     30
                      A                      A                      A
 Frequencies --   1183.4123              1234.5550              1261.7004
 Red. masses --      1.2958                 1.6161                 1.6052
 Frc consts  --      1.0692                 1.4512                 1.5056
 IR Inten    --      2.9171                28.5120                15.5109

                     31                     32                     33
                      A                      A                      A
 Frequencies --   1304.8204              1354.1284              1373.0642
 Red. masses --      1.2427                 1.2570                 1.3236
 Frc consts  --      1.2466                 1.3581                 1.4703
 IR Inten    --     22.8095                19.1679                 5.0615

                     34                     35                     36
                      A                      A                      A
 Frequencies --   1403.5972              1461.5252              1477.4995
 Red. masses --      1.3087                 2.2627                 1.1096
 Frc consts  --      1.5190                 2.8477                 1.4271
 IR Inten    --      9.0181                 4.4738                 2.6685

                     37                     38                     39
                      A                      A                      A
 Frequencies --   1487.1947              1491.0009              1499.8285
 Red. masses --      1.0669                 1.0754                 1.1063
 Frc consts  --      1.3904                 1.4086                 1.4662
 IR Inten    --      3.7228                 3.3773                 1.5537

                     40                     41                     42
                      A                      A                      A
 Frequencies --   1511.1144              2241.7217              2957.9859
 Red. masses --      1.0615                 5.9498                 1.0813
 Frc consts  --      1.4281                17.6164                 5.5741
 IR Inten    --      8.6435                 0.7206                28.8337

                     43                     44                     45
                      A                      A                      A
 Frequencies --   2980.5642              3036.2919              3047.1348
 Red. masses --      1.0409                 1.0989                 1.0347
 Frc consts  --      5.4484                 5.9692                 5.6606
 IR Inten    --     52.8762                46.9248                14.0034

                     46                     47                     48
                      A                      A                      A
 Frequencies --   3105.5348              3111.7371              3116.2833
 Red. masses --      1.0889                 1.0852                 1.0969
 Frc consts  --      6.1876                 6.1910                 6.2759
 IR Inten    --      4.6009                21.0734                28.5335

                     49                     50                     51
                      A                      A                      A
 Frequencies --   3121.6226              3134.1944              3502.1640
 Red. masses --      1.1011                 1.1026                 1.1624
 Frc consts  --      6.3217                 6.3816                 8.3996
 IR Inten    --     23.9434                15.0412                73.9047

 - Thermochemistry -
 -------------------
 Temperature   298.150 Kelvin.  Pressure   1.00000 Atm.
 Atom     1 has atomic number  6 and mass  12.00000

 Molecular mass:   126.06808 amu.
 Principal axes and moments of inertia in atomic units:
                           1         2         3
     Eigenvalues --   673.809781761.000162270.02853
           X            0.99975   0.02150  -0.00630
           Y           -0.02134   0.99949   0.02379
           Z            0.00681  -0.02365   0.99970
 This molecule is an asymmetric top.
 Rotational symmetry number  1.
 Warning -- assumption of classical behavior for rotation
           may cause significant error
 Rotational temperatures (Kelvin)      0.12854     0.04918     0.03816
 Rotational constants (GHZ):           2.67841     1.02484     0.79503
 Zero-point vibrational energy     407139.9 (Joules/Mol)
                                   97.30878 (Kcal/Mol)
 Warning -- explicit consideration of  14 degrees of freedom as
           vibrations may cause significant error
 Vibrational temperatures:     99.87   108.06   163.52   205.19   283.65
          (Kelvin)            319.35   339.97   380.73   482.17   500.38
                              674.48   718.99   769.77   814.63   894.79
                              968.64  1207.36  1249.45  1303.66  1347.65
                             1431.85  1543.25  1553.80  1625.27  1644.67
                             1663.71  1689.25  1702.66  1776.25  1815.30
                             1877.34  1948.29  1975.53  2019.46  2102.81
                             2125.79  2139.74  2145.21  2157.92  2174.15
                             3225.33  4255.88  4288.36  4368.54  4384.14
                             4468.17  4477.09  4483.63  4491.31  4509.40
                             5038.83

 Zero-point correction=                           0.155071 (Hartree/Particle)
 Thermal correction to Energy=                    0.165292
 Thermal correction to Enthalpy=                  0.166237
 Thermal correction to Gibbs Free Energy=         0.119453
 Sum of electronic and zero-point Energies=           -422.957935
 Sum of electronic and thermal Energies=              -422.947714
 Sum of electronic and thermal Enthalpies=            -422.946770
 Sum of electronic and thermal Free Energies=         -422.993553

                     E (Thermal)             CV                S
                      KCal/Mol        Cal/Mol-Kelvin    Cal/Mol-Kelvin
 Total                  103.723             36.370             98.464
 Electronic               0.000              0.000              0.000
 Translational            0.889              2.981             40.409
 Rotational               0.889              2.981             29.378
 Vibrational            101.945             30.408             28.677
 Vibration     1          0.598              1.969              4.170
 Vibration     2          0.599              1.966              4.015
 Vibration     3          0.607              1.938              3.206
 Vibration     4          0.616              1.911              2.769
 Vibration     5          0.637              1.844              2.160
 Vibration     6          0.648              1.808              1.943
 Vibration     7          0.655              1.785              1.831
 Vibration     8          0.671              1.738              1.631
 Vibration     9          0.716              1.605              1.235
 Vibration    10          0.725              1.580              1.176
 Vibration    11          0.826              1.319              0.741
 Vibration    12          0.855              1.251              0.659
 Vibration    13          0.890              1.173              0.576
 Vibration    14          0.922              1.104              0.512

 Optimization completed.
    -- Stationary point found.
 Normal termination of Gaussian 09 at Tue Jan 28 09:00:47 2020.
