 Gaussian 09, Revision D.01,
 Gaussian 09:  ES64L-G09RevD.01 24-Apr-2013

 -----------------------------
 # b3lyp 6-31G(2df,p) opt Freq
 -----------------------------

 -----
 titel
 -----
 Symbolic Z-matrix:
 Charge =  0 Multiplicity = 1

 SCF Done:  E(RB3LYP) =  -423.152494610     A.U. after   13 cycles
 Optimization completed.
    -- Stationary point found.
 Normal termination of Gaussian 09 at Tue Jan 28 02:55:28 2020.

 ----------------------------------------------------------------------
 #N Geom=AllCheck Guess=TCheck SCRF=Check GenChk RB3LYP/6-31G(2df,p) Fr
 eq
 ----------------------------------------------------------------------

 Structure from the checkpoint file:  "/scratch/puck/g09_f5684223-e29d-4589-bd25-2648786fe574/Gau-65415.chk"
 -----
 titel
 -----
 Charge =  0 Multiplicity = 1

                         Standard orientation:
 ---------------------------------------------------------------------
 Center     Atomic      Atomic             Coordinates (Angstroms)
 Number     Number       Type             X           Y           Z
 ---------------------------------------------------------------------
      1          6           0       -2.645188   -0.157293   -0.338092
      2          6           0       -1.196377   -0.604934   -0.258560
      3          8           0       -0.779704   -0.630509    1.124829
      4          6           0        0.605709   -0.369010    1.133187
      5          6           0        1.101297    1.013707    0.685793
      6          6           0        0.021022    1.647896   -0.187232
      7          6           0       -0.135743    0.276795   -0.929258
      8          6           0        1.178350   -0.199609   -0.227882
      9          8           0        2.278921   -0.807861   -0.791573
     10          1           0       -2.998662   -0.203680   -1.373097
     11          1           0       -3.276081   -0.813637    0.267969
     12          1           0       -2.769117    0.865453    0.027117
     13          1           0       -1.114652   -1.627312   -0.670736
     14          1           0        1.154105   -0.872443    1.920750
     15          1           0        1.894832    1.521428    1.222105
     16          1           0       -0.863676    2.040375    0.321843
     17          1           0        0.429898    2.417322   -0.845869
     18          1           0       -0.164776    0.295650   -2.018078
     19          1           0        2.139971   -1.761511   -0.785803
 ---------------------------------------------------------------------

 SCF Done:  E(RB3LYP) =  -423.152494610     A.U. after    1 cycles

 The electronic state is 1-A.
 Alpha  occ. eigenvalues --  -19.15387 -19.13525 -10.23550 -10.23158 -10.22857
 Alpha  occ. eigenvalues --  -10.18992 -10.18752 -10.18478 -10.17486  -1.04738
 Alpha  occ. eigenvalues --   -1.02846  -0.87593  -0.77737  -0.70429  -0.66720
 Alpha  occ. eigenvalues --   -0.59891  -0.58334  -0.54510  -0.52395  -0.48350
 Alpha  occ. eigenvalues --   -0.47154  -0.44571  -0.41695  -0.40475  -0.40057
 Alpha  occ. eigenvalues --   -0.37945  -0.37349  -0.36155  -0.33895  -0.32608
 Alpha  occ. eigenvalues --   -0.31925  -0.27724  -0.25740  -0.22047
 Alpha virt. eigenvalues --    0.06944   0.08935   0.11415   0.11654   0.13451
 Alpha virt. eigenvalues --    0.13794   0.14189   0.15702   0.16512   0.17130
 Alpha virt. eigenvalues --    0.18700   0.19482   0.20086   0.20878   0.23000

 Mulliken charges:
               1
     1  C   -0.406676
     2  C    0.142097
     3  O   -0.282438
     4  C    0.014656
     5  C   -0.145778
     6  C   -0.234713
     7  C   -0.148447
     8  C    0.340543
     9  O   -0.465109
    10  H    0.113445
    11  H    0.127930
    12  H    0.124718
    13  H    0.056564
    14  H    0.102119
    15  H    0.088308
    16  H    0.102421
    17  H    0.106149
    18  H    0.076870
    19  H    0.287339
 Sum of Mulliken charges =   0.00000

 Dipole moment (field-independent basis, Debye):
    X=             -0.2046    Y=             -0.6313    Z=             -0.8409  Tot=              1.0712
 Quadrupole moment (field-independent basis, Debye-Ang):
   XX=            -55.4526   YY=            -48.9084   ZZ=            -54.0236
   XY=             -2.1017   XZ=              4.2530   YZ=              1.2960

  Exact polarizability:  81.065   0.740  73.559   4.061   1.239  67.597
 Approx polarizability: 108.816   0.893 110.060   1.049   2.604 106.072

                      1                      2                      3
                      A                      A                      A
 Frequencies --    150.9543               203.6947               227.6693
 Red. masses --      3.4508                 1.2258                 1.3792
 Frc consts  --      0.0463                 0.0300                 0.0421
 IR Inten    --      0.6885                11.1345                34.4156

                      4                      5                      6
                      A                      A                      A
 Frequencies --    257.3234               304.4111               307.4953
 Red. masses --      2.7600                 2.7416                 1.8486
 Frc consts  --      0.1077                 0.1497                 0.1030
 IR Inten    --      2.8250                14.7264                36.3008

                      7                      8                      9
                      A                      A                      A
 Frequencies --    397.1460               486.0156               520.9950
 Red. masses --      3.3394                 2.9240                 3.1236
 Frc consts  --      0.3103                 0.4069                 0.4995
 IR Inten    --      6.7012                 1.9407                 6.1312

                     10                     11                     12
                      A                      A                      A
 Frequencies --    593.1301               621.5151               734.8975
 Red. masses --      3.9550                 3.3384                 3.7758
 Frc consts  --      0.8198                 0.7598                 1.2015
 IR Inten    --      0.5951                 7.5688                 1.2167

                     13                     14                     15
                      A                      A                      A
 Frequencies --    769.1338               802.5948               838.6941
 Red. masses --      5.1203                 2.4904                 2.3108
 Frc consts  --      1.7846                 0.9452                 0.9577
 IR Inten    --      8.7621                 2.4453                17.9485

                     16                     17                     18
                      A                      A                      A
 Frequencies --    895.6408               911.2381               932.7397
 Red. masses --      2.2476                 1.8793                 1.9788
 Frc consts  --      1.0623                 0.9194                 1.0143
 IR Inten    --     18.5930                 1.5911                11.7743

                     19                     20                     21
                      A                      A                      A
 Frequencies --    974.3454               981.4544              1020.2586
 Red. masses --      1.9823                 1.5923                 1.6080
 Frc consts  --      1.1088                 0.9037                 0.9862
 IR Inten    --      3.6189                10.6265                20.7641

                     22                     23                     24
                      A                      A                      A
 Frequencies --   1039.2176              1071.2042              1084.9180
 Red. masses --      1.8283                 3.9927                 1.7998
 Frc consts  --      1.1634                 2.6994                 1.2481
 IR Inten    --      2.0425                81.6509                 6.3367

                     25                     26                     27
                      A                      A                      A
 Frequencies --   1106.6523              1138.5732              1152.3283
 Red. masses --      1.9015                 1.6424                 1.6111
 Frc consts  --      1.3720                 1.2545                 1.2605
 IR Inten    --      1.7884                11.8232                14.6955

                     28                     29                     30
                      A                      A                      A
 Frequencies --   1162.1706              1180.0445              1227.6206
 Red. masses --      1.9365                 2.3439                 2.0446
 Frc consts  --      1.5410                 1.9230                 1.8155
 IR Inten    --      7.7940                23.5703                58.6543

                     31                     32                     33
                      A                      A                      A
 Frequencies --   1278.7299              1286.6114              1304.7755
 Red. masses --      1.3346                 1.9601                 1.5480
 Frc consts  --      1.2858                 1.9117                 1.5528
 IR Inten    --      2.9479                64.2696                 3.6753

                     34                     35                     36
                      A                      A                      A
 Frequencies --   1321.1779              1352.8003              1386.4890
 Red. masses --      1.4685                 1.3718                 1.3933
 Frc consts  --      1.5102                 1.4791                 1.5780
 IR Inten    --     33.4829                 4.6722                 8.9864

                     37                     38                     39
                      A                      A                      A
 Frequencies --   1413.1596              1465.3069              1485.9944
 Red. masses --      1.3871                 2.0530                 1.1235
 Frc consts  --      1.6321                 2.5971                 1.4618
 IR Inten    --     18.7761                27.7924                 0.4927

                     40                     41                     42
                      A                      A                      A
 Frequencies --   1493.1667              1503.6299              2930.0779
 Red. masses --      1.1464                 1.2458                 1.0825
 Frc consts  --      1.5060                 1.6595                 5.4756
 IR Inten    --      3.2735                19.0216                74.2658

                     43                     44                     45
                      A                      A                      A
 Frequencies --   3044.2938              3058.9075              3110.3025
 Red. masses --      1.0358                 1.0571                 1.1069
 Frc consts  --      5.6559                 5.8279                 6.3089
 IR Inten    --     13.9172                43.2546                18.3992

                     46                     47                     48
                      A                      A                      A
 Frequencies --   3114.0404              3124.4878              3127.3721
 Red. masses --      1.1008                 1.0982                 1.0933
 Frc consts  --      6.2896                 6.3165                 6.3001
 IR Inten    --     15.8811                17.5189                33.5247

                     49                     50                     51
                      A                      A                      A
 Frequencies --   3177.2713              3191.4730              3791.5276
 Red. masses --      1.0917                 1.0928                 1.0662
 Frc consts  --      6.4931                 6.5581                 9.0308
 IR Inten    --     10.4277                20.9627                20.7911

 - Thermochemistry -
 -------------------
 Temperature   298.150 Kelvin.  Pressure   1.00000 Atm.
 Atom     1 has atomic number  6 and mass  12.00000

 Molecular mass:   126.06808 amu.
 Principal axes and moments of inertia in atomic units:
                           1         2         3
     Eigenvalues --   599.181411239.019911282.51826
           X            0.99943  -0.00248   0.03377
           Y            0.00047   0.99823   0.05946
           Z           -0.03386  -0.05941   0.99766
 This molecule is an asymmetric top.
 Rotational symmetry number  1.
 Warning -- assumption of classical behavior for rotation
           may cause significant error
 Rotational temperatures (Kelvin)      0.14455     0.06991     0.06753
 Rotational constants (GHZ):           3.01201     1.45659     1.40719
 Zero-point vibrational energy     419026.0 (Joules/Mol)
                                  100.14961 (Kcal/Mol)
 Warning -- explicit consideration of  10 degrees of freedom as
           vibrations may cause significant error
 Vibrational temperatures:    217.19   293.07   327.56   370.23   437.98
          (Kelvin)            442.42   571.40   699.27   749.59   853.38
                              894.22  1057.35  1106.61  1154.75  1206.69
                             1288.63  1311.07  1342.00  1401.86  1412.09
                             1467.92  1495.20  1541.22  1560.95  1592.22
                             1638.15  1657.94  1672.10  1697.82  1766.27
                             1839.80  1851.14  1877.28  1900.88  1946.38
                             1994.85  2033.22  2108.25  2138.01  2148.33
                             2163.39  4215.72  4380.05  4401.08  4475.03
                             4480.40  4495.44  4499.59  4571.38  4591.81
                             5455.16

 Zero-point correction=                           0.159599 (Hartree/Particle)
 Thermal correction to Energy=                    0.167412
 Thermal correction to Enthalpy=                  0.168357
 Thermal correction to Gibbs Free Energy=         0.127822
 Sum of electronic and zero-point Energies=           -422.992896
 Sum of electronic and thermal Energies=              -422.985082
 Sum of electronic and thermal Enthalpies=            -422.984138
 Sum of electronic and thermal Free Energies=         -423.024672

                     E (Thermal)             CV                S
                      KCal/Mol        Cal/Mol-Kelvin    Cal/Mol-Kelvin
 Total                  105.053             31.457             85.311
 Electronic               0.000              0.000              0.000
 Translational            0.889              2.981             40.409
 Rotational               0.889              2.981             28.345
 Vibrational            103.275             25.495             16.558
 Vibration     1          0.618              1.902              2.660
 Vibration     2          0.639              1.835              2.099
 Vibration     3          0.651              1.799              1.897
 Vibration     4          0.667              1.750              1.680
 Vibration     5          0.695              1.665              1.393
 Vibration     6          0.697              1.659              1.376
 Vibration     7          0.764              1.476              0.973
 Vibration     8          0.842              1.281              0.694
 Vibration     9          0.876              1.204              0.608
 Vibration    10          0.951              1.046              0.462

 Optimization completed.
    -- Stationary point found.
 Normal termination of Gaussian 09 at Tue Jan 28 03:54:58 2020.
