 Gaussian 09, Revision D.01,
 Gaussian 09:  ES64L-G09RevD.01 24-Apr-2013

 -----------------------------
 # b3lyp 6-31G(2df,p) opt Freq
 -----------------------------

 -----
 titel
 -----
 Symbolic Z-matrix:
 Charge =  0 Multiplicity = 1

 SCF Done:  E(RB3LYP) =  -423.179628695     A.U. after   14 cycles
 Optimization completed.
    -- Stationary point found.
 Normal termination of Gaussian 09 at Mon Jan 27 16:24:11 2020.

 ----------------------------------------------------------------------
 #N Geom=AllCheck Guess=TCheck SCRF=Check GenChk RB3LYP/6-31G(2df,p) Fr
 eq
 ----------------------------------------------------------------------

 Structure from the checkpoint file:  "/scratch/puck/g09_823c0a9e-d4ee-41d4-9550-0119feffa2cd/Gau-69792.chk"
 -----
 titel
 -----
 Charge =  0 Multiplicity = 1

                         Standard orientation:
 ---------------------------------------------------------------------
 Center     Atomic      Atomic             Coordinates (Angstroms)
 Number     Number       Type             X           Y           Z
 ---------------------------------------------------------------------
      1          8           0       -2.109039    1.187639   -0.000702
      2          6           0       -1.268917    0.084398   -0.000144
      3          6           0       -1.744644   -1.146895   -0.751375
      4          6           0       -1.744813   -1.146465    0.751881
      5          6           0        0.175644    0.465542    0.000179
      6          8           0        0.449715    1.658262    0.000567
      7          6           0        1.234882   -0.574698    0.000027
      8          6           0        2.524024   -0.246436    0.743900
      9          6           0        2.523768   -0.246350   -0.744319
     10          1           0       -1.500634    1.945956   -0.000006
     11          1           0       -2.696210   -1.017906   -1.253944
     12          1           0       -1.023243   -1.755866   -1.284124
     13          1           0       -2.696479   -1.017140    1.254169
     14          1           0       -1.023508   -1.755111    1.285128
     15          1           0        0.919116   -1.609879   -0.000023
     16          1           0        2.542148    0.714998    1.243398
     17          1           0        3.006237   -1.061060    1.271534
     18          1           0        2.541732    0.715133   -1.243729
     19          1           0        3.005771   -1.060923   -1.272223
 ---------------------------------------------------------------------

 SCF Done:  E(RB3LYP) =  -423.179628695     A.U. after    1 cycles

 The electronic state is 1-A.
 Alpha  occ. eigenvalues --  -19.13372 -19.13170 -10.27306 -10.24866 -10.20923
 Alpha  occ. eigenvalues --  -10.20342 -10.20313 -10.19772 -10.19746  -1.05586
 Alpha  occ. eigenvalues --   -1.01377  -0.87306  -0.85461  -0.69077  -0.61616
 Alpha  occ. eigenvalues --   -0.61155  -0.60719  -0.55462  -0.53579  -0.49345
 Alpha  occ. eigenvalues --   -0.48286  -0.45734  -0.44064  -0.42132  -0.40046
 Alpha  occ. eigenvalues --   -0.38538  -0.37633  -0.36087  -0.34724  -0.32202
 Alpha  occ. eigenvalues --   -0.31552  -0.30002  -0.26183  -0.24060
 Alpha virt. eigenvalues --   -0.02255   0.07485   0.10042   0.11251   0.11936
 Alpha virt. eigenvalues --    0.12444   0.13741   0.15174   0.16061   0.17697
 Alpha virt. eigenvalues --    0.18032   0.20593   0.20900   0.21825   0.22179

 Mulliken charges:
               1
     1  O   -0.475089
     2  C    0.356834
     3  C   -0.322159
     4  C   -0.322150
     5  C    0.338808
     6  O   -0.386432
     7  C   -0.119462
     8  C   -0.251927
     9  C   -0.251914
    10  H    0.293624
    11  H    0.137284
    12  H    0.122269
    13  H    0.137284
    14  H    0.122270
    15  H    0.093488
    16  H    0.142727
    17  H    0.120908
    18  H    0.142723
    19  H    0.120915
 Sum of Mulliken charges =   0.00000

 Dipole moment (field-independent basis, Debye):
    X=              1.3846    Y=             -2.7364    Z=              0.0003  Tot=              3.0668
 Quadrupole moment (field-independent basis, Debye-Ang):
   XX=            -53.6857   YY=            -54.1415   ZZ=            -52.0207
   XY=             -0.3656   XZ=             -0.0037   YZ=              0.0008

  Exact polarizability:  94.391   2.421  76.404  -0.002   0.001  64.118
 Approx polarizability: 122.251   5.722 124.820  -0.001   0.003  97.156

                      1                      2                      3
                      A                      A                      A
 Frequencies --     49.3320                76.1859               177.5161
 Red. masses --      2.9323                 5.5844                 3.6926
 Frc consts  --      0.0042                 0.0191                 0.0686
 IR Inten    --      0.1390                 0.1033                 0.4828

                      4                      5                      6
                      A                      A                      A
 Frequencies --    216.8811               275.5458               303.9282
 Red. masses --      2.3857                 3.7920                 2.5051
 Frc consts  --      0.0661                 0.1696                 0.1363
 IR Inten    --      0.0678                 4.8855                 0.5799

                      7                      8                      9
                      A                      A                      A
 Frequencies --    375.0715               421.3253               428.1106
 Red. masses --      5.5433                 2.1126                 4.0621
 Frc consts  --      0.4595                 0.2210                 0.4386
 IR Inten    --     26.0983                37.4221                 2.7809

                     10                     11                     12
                      A                      A                      A
 Frequencies --    471.1952               537.4789               725.5437
 Red. masses --      1.3683                 4.5378                 2.2726
 Frc consts  --      0.1790                 0.7724                 0.7048
 IR Inten    --     20.0061                 7.3534                 4.1555

                     13                     14                     15
                      A                      A                      A
 Frequencies --    740.5159               777.4781               801.6898
 Red. masses --      3.2770                 1.0482                 1.1335
 Frc consts  --      1.0588                 0.3733                 0.4292
 IR Inten    --     16.7426                 0.7484                 3.0121

                     16                     17                     18
                      A                      A                      A
 Frequencies --    829.6072               850.7276               879.2749
 Red. masses --      2.5448                 2.0081                 3.1168
 Frc consts  --      1.0319                 0.8563                 1.4197
 IR Inten    --      1.2706                 9.3801                30.0358

                     19                     20                     21
                      A                      A                      A
 Frequencies --    916.4111               922.6542               940.0063
 Red. masses --      2.9606                 3.3689                 1.4447
 Frc consts  --      1.4649                 1.6897                 0.7521
 IR Inten    --      6.6977                 0.0770                 2.8527

                     22                     23                     24
                      A                      A                      A
 Frequencies --   1005.3489              1046.7560              1063.6746
 Red. masses --      1.7378                 2.2181                 1.3193
 Frc consts  --      1.0349                 1.4319                 0.8794
 IR Inten    --      0.1632               124.7724                 1.0445

                     25                     26                     27
                      A                      A                      A
 Frequencies --   1069.6007              1089.1036              1096.9523
 Red. masses --      1.3921                 1.7717                 1.3288
 Frc consts  --      0.9383                 1.2382                 0.9421
 IR Inten    --      2.0154                77.4330                 2.4391

                     28                     29                     30
                      A                      A                      A
 Frequencies --   1117.2989              1126.5530              1196.4844
 Red. masses --      1.5452                 1.1078                 1.2885
 Frc consts  --      1.1365                 0.8283                 1.0868
 IR Inten    --      7.8850                 1.4567                 0.1707

                     31                     32                     33
                      A                      A                      A
 Frequencies --   1210.1320              1224.6554              1235.4564
 Red. masses --      1.3493                 2.1564                 1.9297
 Frc consts  --      1.1642                 1.9055                 1.7354
 IR Inten    --      0.1601                 8.7528               181.8877

                     34                     35                     36
                      A                      A                      A
 Frequencies --   1325.6068              1416.8805              1452.1040
 Red. masses --      3.2539                 1.7009                 1.6244
 Frc consts  --      3.3689                 2.0119                 2.0181
 IR Inten    --     54.2990               109.9479                59.3632

                     37                     38                     39
                      A                      A                      A
 Frequencies --   1454.7370              1455.3181              1485.0249
 Red. masses --      1.0883                 1.0879                 1.3821
 Frc consts  --      1.3570                 1.3575                 1.7958
 IR Inten    --      3.5590                 2.5859                 8.9171

                     40                     41                     42
                      A                      A                      A
 Frequencies --   1496.7895              1734.0071              3141.0379
 Red. masses --      1.5218                10.2694                 1.0497
 Frc consts  --      2.0088                18.1926                 6.1021
 IR Inten    --      0.9769               139.9801                 9.6745

                     43                     44                     45
                      A                      A                      A
 Frequencies --   3141.3412              3143.5071              3145.3165
 Red. masses --      1.0580                 1.0495                 1.0577
 Frc consts  --      6.1513                 6.1106                 6.1651
 IR Inten    --      3.6607                13.7314                 9.2845

                     46                     47                     48
                      A                      A                      A
 Frequencies --   3192.5347              3226.1301              3231.9839
 Red. masses --      1.0896                 1.1188                 1.1189
 Frc consts  --      6.5433                 6.8605                 6.8861
 IR Inten    --      6.8314                 0.4701                 0.3105

                     49                     50                     51
                      A                      A                      A
 Frequencies --   3240.1798              3246.4928              3663.3999
 Red. masses --      1.1160                 1.1166                 1.0641
 Frc consts  --      6.9030                 6.9337                 8.4138
 IR Inten    --      6.1251                 4.9103                92.2714

 - Thermochemistry -
 -------------------
 Temperature   298.150 Kelvin.  Pressure   1.00000 Atm.
 Atom     1 has atomic number  8 and mass  15.99491

 Molecular mass:   126.06808 amu.
 Principal axes and moments of inertia in atomic units:
                           1         2         3
     Eigenvalues --   584.487811532.325891833.11753
           X            0.99998   0.00668  -0.00001
           Y           -0.00668   0.99998   0.00000
           Z            0.00001   0.00000   1.00000
 This molecule is an asymmetric top.
 Rotational symmetry number  1.
 Warning -- assumption of classical behavior for rotation
           may cause significant error
 Rotational temperatures (Kelvin)      0.14819     0.05652     0.04725
 Rotational constants (GHZ):           3.08773     1.17778     0.98452
 Zero-point vibrational energy     415049.7 (Joules/Mol)
                                   99.19925 (Kcal/Mol)
 Warning -- explicit consideration of  11 degrees of freedom as
           vibrations may cause significant error
 Vibrational temperatures:     70.98   109.61   255.41   312.04   396.45
          (Kelvin)            437.28   539.64   606.19   615.95   677.94
                              773.31  1043.89  1065.44  1118.62  1153.45
                             1193.62  1224.01  1265.08  1318.51  1327.49
                             1352.46  1446.47  1506.05  1530.39  1538.91
                             1566.98  1578.27  1607.54  1620.86  1721.47
                             1741.11  1762.00  1777.54  1907.25  2038.57
                             2089.25  2093.04  2093.88  2136.62  2153.54
                             2494.85  4519.25  4519.68  4522.80  4525.40
                             4593.34  4641.68  4650.10  4661.89  4670.97
                             5270.81

 Zero-point correction=                           0.158084 (Hartree/Particle)
 Thermal correction to Energy=                    0.166917
 Thermal correction to Enthalpy=                  0.167861
 Thermal correction to Gibbs Free Energy=         0.124048
 Sum of electronic and zero-point Energies=           -423.021545
 Sum of electronic and thermal Energies=              -423.012711
 Sum of electronic and thermal Enthalpies=            -423.011767
 Sum of electronic and thermal Free Energies=         -423.055581

                     E (Thermal)             CV                S
                      KCal/Mol        Cal/Mol-Kelvin    Cal/Mol-Kelvin
 Total                  104.742             33.662             92.214
 Electronic               0.000              0.000              0.000
 Translational            0.889              2.981             40.409
 Rotational               0.889              2.981             28.886
 Vibrational            102.965             27.700             22.919
 Vibration     1          0.595              1.978              4.844
 Vibration     2          0.599              1.965              3.987
 Vibration     3          0.628              1.870              2.354
 Vibration     4          0.646              1.815              1.985
 Vibration     5          0.677              1.719              1.561
 Vibration     6          0.695              1.666              1.395
 Vibration     7          0.746              1.523              1.059
 Vibration     8          0.784              1.424              0.887
 Vibration     9          0.790              1.409              0.865
 Vibration    10          0.828              1.314              0.734
 Vibration    11          0.893              1.167              0.571

 Optimization completed.
    -- Stationary point found.
 Normal termination of Gaussian 09 at Mon Jan 27 17:13:48 2020.
