 Gaussian 09, Revision D.01,
 Gaussian 09:  ES64L-G09RevD.01 24-Apr-2013

 -----------------------------
 # b3lyp 6-31G(2df,p) opt Freq
 -----------------------------

 -----
 titel
 -----
 Symbolic Z-matrix:
 Charge =  0 Multiplicity = 1

 SCF Done:  E(RB3LYP) =  -423.040294021     A.U. after   14 cycles
 Optimization completed.
    -- Stationary point found.
 Normal termination of Gaussian 09 at Tue Jan 28 02:55:17 2020.

 ----------------------------------------------------------------------
 #N Geom=AllCheck Guess=TCheck SCRF=Check GenChk RB3LYP/6-31G(2df,p) Fr
 eq
 ----------------------------------------------------------------------

 Structure from the checkpoint file:  "/scratch/puck/g09_dffc9186-c6c0-40d4-b489-feae7566d1bb/Gau-67033.chk"
 -----
 titel
 -----
 Charge =  0 Multiplicity = 1

                         Standard orientation:
 ---------------------------------------------------------------------
 Center     Atomic      Atomic             Coordinates (Angstroms)
 Number     Number       Type             X           Y           Z
 ---------------------------------------------------------------------
      1          6           0       -2.637935    0.043351   -0.370007
      2          6           0       -1.230861   -0.529853   -0.342282
      3          6           0       -0.647806   -1.039342    1.070018
      4          6           0        0.685093   -0.512257    0.529771
      5          6           0        1.457655   -1.122524   -0.666095
      6          6           0        1.497947    0.395102   -0.796633
      7          8           0        1.826438    0.454839    0.715679
      8          6           0       -0.009661    0.483877   -0.373545
      9          8           0       -0.401749    1.697875    0.188441
     10          1           0       -2.890270    0.404429   -1.372513
     11          1           0       -3.367232   -0.727534   -0.097704
     12          1           0       -2.733684    0.879646    0.324389
     13          1           0       -1.134303   -1.320110   -1.087330
     14          1           0       -1.050481   -0.421486    1.875209
     15          1           0       -0.729794   -2.098004    1.327446
     16          1           0        2.409319   -1.578327   -0.395483
     17          1           0        0.911948   -1.695104   -1.416888
     18          1           0        2.136162    1.040669   -1.408256
     19          1           0        0.364227    1.983988    0.710807
 ---------------------------------------------------------------------

 SCF Done:  E(RB3LYP) =  -423.040294021     A.U. after    1 cycles

 The electronic state is 1-A.
 Alpha  occ. eigenvalues --  -19.14343 -19.13610 -10.25728 -10.24135 -10.23164
 Alpha  occ. eigenvalues --  -10.21256 -10.20410 -10.19550 -10.17516  -1.06231
 Alpha  occ. eigenvalues --   -1.00452  -0.85000  -0.76506  -0.71582  -0.66000
 Alpha  occ. eigenvalues --   -0.61212  -0.59397  -0.54848  -0.49337  -0.48368
 Alpha  occ. eigenvalues --   -0.46629  -0.44164  -0.42401  -0.40921  -0.39258
 Alpha  occ. eigenvalues --   -0.37608  -0.36426  -0.35884  -0.34019  -0.32981
 Alpha  occ. eigenvalues --   -0.31780  -0.29828  -0.25283  -0.22065
 Alpha virt. eigenvalues --    0.05435   0.07561   0.09409   0.09674   0.12007
 Alpha virt. eigenvalues --    0.12513   0.12937   0.13172   0.15163   0.16216
 Alpha virt. eigenvalues --    0.16512   0.18108   0.18254   0.19832   0.21752

 Mulliken charges:
               1
     1  C   -0.412478
     2  C   -0.052565
     3  C   -0.357067
     4  C    0.322269
     5  C   -0.259477
     6  C   -0.054054
     7  O   -0.406750
     8  C    0.393042
     9  O   -0.475090
    10  H    0.120887
    11  H    0.111991
    12  H    0.141332
    13  H    0.092626
    14  H    0.131950
    15  H    0.109227
    16  H    0.114610
    17  H    0.105387
    18  H    0.089725
    19  H    0.284435
 Sum of Mulliken charges =   0.00000

 Dipole moment (field-independent basis, Debye):
    X=             -0.5642    Y=             -1.6057    Z=             -0.8087  Tot=              1.8843
 Quadrupole moment (field-independent basis, Debye-Ang):
   XX=            -55.0875   YY=            -52.8441   ZZ=            -52.2743
   XY=              1.7233   XZ=             -3.0059   YZ=              0.4840

  Exact polarizability:  89.053   2.119  73.624  -3.973  -0.406  66.516
 Approx polarizability: 124.034   5.634 114.081  -1.931   0.428 107.710

                      1                      2                      3
                      A                      A                      A
 Frequencies --    175.3419               208.6757               243.4310
 Red. masses --      2.8367                 1.1339                 3.0240
 Frc consts  --      0.0514                 0.0291                 0.1056
 IR Inten    --      0.2596                 0.1841                 0.8896

                      4                      5                      6
                      A                      A                      A
 Frequencies --    300.8851               304.1378               368.9155
 Red. masses --      3.1480                 3.0473                 4.4224
 Frc consts  --      0.1679                 0.1661                 0.3546
 IR Inten    --      7.0318                 3.4284                 9.5092

                      7                      8                      9
                      A                      A                      A
 Frequencies --    424.0921               478.8930               511.9589
 Red. masses --      3.2495                 2.5652                 3.0835
 Frc consts  --      0.3443                 0.3466                 0.4762
 IR Inten    --      4.6205                10.4461                 5.1011

                     10                     11                     12
                      A                      A                      A
 Frequencies --    573.1167               597.9436               637.2082
 Red. masses --      1.9747                 1.8394                 3.2176
 Frc consts  --      0.3821                 0.3875                 0.7697
 IR Inten    --     51.4361                16.6358                21.5958

                     13                     14                     15
                      A                      A                      A
 Frequencies --    672.6093               725.1253               774.1980
 Red. masses --      2.7389                 3.8657                 3.2050
 Frc consts  --      0.7301                 1.1976                 1.1318
 IR Inten    --      3.0463                 8.0744                 2.5357

                     16                     17                     18
                      A                      A                      A
 Frequencies --    841.4896               877.4946               916.3163
 Red. masses --      2.7644                 5.7404                 1.7384
 Frc consts  --      1.1533                 2.6043                 0.8600
 IR Inten    --      7.4619                46.3922                 5.0959

                     19                     20                     21
                      A                      A                      A
 Frequencies --    947.0256               960.0769               979.9710
 Red. masses --      1.6724                 2.2396                 2.3743
 Frc consts  --      0.8837                 1.2163                 1.3434
 IR Inten    --      1.6726                 7.7353                 9.0071

                     22                     23                     24
                      A                      A                      A
 Frequencies --   1011.6881              1029.4086              1070.7332
 Red. masses --      1.6557                 1.4518                 1.7612
 Frc consts  --      0.9984                 0.9064                 1.1897
 IR Inten    --      2.3315                13.2823                 7.0867

                     25                     26                     27
                      A                      A                      A
 Frequencies --   1108.7961              1140.4074              1162.3591
 Red. masses --      1.8577                 1.6430                 1.8106
 Frc consts  --      1.3457                 1.2589                 1.4413
 IR Inten    --     25.5174                 1.9840                24.0279

                     28                     29                     30
                      A                      A                      A
 Frequencies --   1176.9208              1190.2459              1200.2986
 Red. masses --      1.8809                 1.6296                 1.6309
 Frc consts  --      1.5350                 1.3602                 1.3844
 IR Inten    --     11.0588                19.4806                16.5181

                     31                     32                     33
                      A                      A                      A
 Frequencies --   1223.6505              1241.1225              1282.8690
 Red. masses --      1.4250                 1.4858                 3.7059
 Frc consts  --      1.2571                 1.3484                 3.5935
 IR Inten    --      4.7896                 0.1793                 7.2229

                     34                     35                     36
                      A                      A                      A
 Frequencies --   1290.0747              1344.5760              1384.8427
 Red. masses --      2.7328                 1.3432                 1.6250
 Frc consts  --      2.6797                 1.4308                 1.8361
 IR Inten    --     36.9447                37.3236                51.9919

                     37                     38                     39
                      A                      A                      A
 Frequencies --   1405.7946              1470.6275              1485.9378
 Red. masses --      1.2535                 1.1166                 1.0519
 Frc consts  --      1.4596                 1.4228                 1.3685
 IR Inten    --      1.5661                 0.6810                 2.4908

                     40                     41                     42
                      A                      A                      A
 Frequencies --   1492.6702              1501.6348              3036.4907
 Red. masses --      1.1802                 1.0486                 1.0381
 Frc consts  --      1.5492                 1.3932                 5.6392
 IR Inten    --     11.0958                 3.9749                29.6180

                     43                     44                     45
                      A                      A                      A
 Frequencies --   3064.0624              3068.3090              3085.6300
 Red. masses --      1.0849                 1.0586                 1.0650
 Frc consts  --      6.0009                 5.8717                 5.9742
 IR Inten    --     97.7223                14.7067                14.8332

                     46                     47                     48
                      A                      A                      A
 Frequencies --   3097.4194              3103.8867              3135.2850
 Red. masses --      1.1008                 1.0823                 1.1065
 Frc consts  --      6.2225                 6.1433                 6.4086
 IR Inten    --     20.9710                18.2999                 6.9003

                     49                     50                     51
                      A                      A                      A
 Frequencies --   3141.9574              3161.6541              3702.0082
 Red. masses --      1.0996                 1.1101                 1.0633
 Frc consts  --      6.3955                 6.5381                 8.5855
 IR Inten    --     25.2942                19.5152                32.7391

 - Thermochemistry -
 -------------------
 Temperature   298.150 Kelvin.  Pressure   1.00000 Atm.
 Atom     1 has atomic number  6 and mass  12.00000

 Molecular mass:   126.06808 amu.
 Principal axes and moments of inertia in atomic units:
                           1         2         3
     Eigenvalues --   584.298791138.773831318.34121
           X            0.99988   0.00100  -0.01549
           Y           -0.00079   0.99991   0.01334
           Z            0.01550  -0.01333   0.99979
 This molecule is an asymmetric top.
 Rotational symmetry number  1.
 Warning -- assumption of classical behavior for rotation
           may cause significant error
 Rotational temperatures (Kelvin)      0.14824     0.07606     0.06570
 Rotational constants (GHZ):           3.08873     1.58481     1.36895
 Zero-point vibrational energy     414687.1 (Joules/Mol)
                                   99.11259 (Kcal/Mol)
 Warning -- explicit consideration of  11 degrees of freedom as
           vibrations may cause significant error
 Vibrational temperatures:    252.28   300.24   350.24   432.91   437.59
          (Kelvin)            530.79   610.17   689.02   736.59   824.59
                              860.31   916.80   967.73  1043.29  1113.90
                             1210.71  1262.52  1318.37  1362.56  1381.33
                             1409.96  1455.59  1481.09  1540.54  1595.31
                             1640.79  1672.37  1693.32  1712.50  1726.96
                             1760.56  1785.70  1845.76  1856.13  1934.54
                             1992.48  2022.62  2115.90  2137.93  2147.62
                             2160.51  4368.83  4408.50  4414.61  4439.53
                             4456.49  4465.80  4510.97  4520.57  4548.91
                             5326.36

 Zero-point correction=                           0.157946 (Hartree/Particle)
 Thermal correction to Energy=                    0.165746
 Thermal correction to Enthalpy=                  0.166690
 Thermal correction to Gibbs Free Energy=         0.126427
 Sum of electronic and zero-point Energies=           -422.882348
 Sum of electronic and thermal Energies=              -422.874548
 Sum of electronic and thermal Enthalpies=            -422.873604
 Sum of electronic and thermal Free Energies=         -422.913867

                     E (Thermal)             CV                S
                      KCal/Mol        Cal/Mol-Kelvin    Cal/Mol-Kelvin
 Total                  104.007             32.282             84.741
 Electronic               0.000              0.000              0.000
 Translational            0.889              2.981             40.409
 Rotational               0.889              2.981             28.263
 Vibrational            102.230             26.320             16.069
 Vibration     1          0.627              1.873              2.377
 Vibration     2          0.642              1.827              2.055
 Vibration     3          0.659              1.774              1.778
 Vibration     4          0.693              1.672              1.412
 Vibration     5          0.695              1.666              1.394
 Vibration     6          0.741              1.536              1.084
 Vibration     7          0.786              1.418              0.878
 Vibration     8          0.835              1.297              0.713
 Vibration     9          0.867              1.224              0.629
 Vibration    10          0.929              1.089              0.498
 Vibration    11          0.956              1.036              0.453

 Optimization completed.
    -- Stationary point found.
 Normal termination of Gaussian 09 at Tue Jan 28 03:44:38 2020.
 Normal termination of Gaussian 09 at Tue Jan 28 03:02:32 2020.
