 Gaussian 09, Revision D.01,
 Gaussian 09:  ES64L-G09RevD.01 24-Apr-2013

 -----------------------------
 # b3lyp 6-31G(2df,p) opt Freq
 -----------------------------

 -----
 titel
 -----
 Symbolic Z-matrix:
 Charge =  0 Multiplicity = 1

 SCF Done:  E(RB3LYP) =  -423.152387722     A.U. after   13 cycles
 Optimization completed.
    -- Stationary point found.
 Normal termination of Gaussian 09 at Mon Jan 27 11:19:37 2020.

 ----------------------------------------------------------------------
 #N Geom=AllCheck Guess=TCheck SCRF=Check GenChk RB3LYP/6-31G(2df,p) Fr
 eq
 ----------------------------------------------------------------------

 Structure from the checkpoint file:  "/scratch/puck/g09_47c44ef4-50e1-428e-a992-a69da5d83d76/Gau-32311.chk"
 -----
 titel
 -----
 Charge =  0 Multiplicity = 1

                         Standard orientation:
 ---------------------------------------------------------------------
 Center     Atomic      Atomic             Coordinates (Angstroms)
 Number     Number       Type             X           Y           Z
 ---------------------------------------------------------------------
      1          6           0        2.078854   -0.453870    0.153901
      2          6           0        1.097916    0.426571   -0.612137
      3          8           0        0.593910    1.663975   -0.203658
      4          6           0       -0.846732    1.578456   -0.223574
      5          6           0       -1.376847    0.247568    0.399434
      6          6           0       -1.429799   -0.975024   -0.578723
      7          8           0       -0.169878   -1.683519   -0.439897
      8          6           0        0.611396   -0.717200    0.219956
      9          6           0       -0.267618   -0.223667    1.355092
     10          1           0        2.711626   -1.068260   -0.477244
     11          1           0        2.550702   -0.102745    1.065682
     12          1           0        1.109859    0.272274   -1.691990
     13          1           0       -1.195402    2.435555    0.360099
     14          1           0       -1.210022    1.695447   -1.256258
     15          1           0       -2.355575    0.427348    0.850921
     16          1           0       -2.233368   -1.669970   -0.316815
     17          1           0       -1.564682   -0.658886   -1.621358
     18          1           0        0.162428    0.580123    1.951027
     19          1           0       -0.570838   -1.051537    2.000678
 ---------------------------------------------------------------------

 SCF Done:  E(RB3LYP) =  -423.152387722     A.U. after    1 cycles

 The electronic state is 1-A.
 Alpha  occ. eigenvalues --  -19.14566 -19.13960 -10.23238 -10.23144 -10.22974
 Alpha  occ. eigenvalues --  -10.22326 -10.19911 -10.19831 -10.18417  -1.05114
 Alpha  occ. eigenvalues --   -1.02639  -0.84591  -0.79868  -0.69684  -0.68311
 Alpha  occ. eigenvalues --   -0.60866  -0.56905  -0.54146  -0.51367  -0.50113
 Alpha  occ. eigenvalues --   -0.48576  -0.46547  -0.43154  -0.42068  -0.40182
 Alpha  occ. eigenvalues --   -0.37750  -0.36628  -0.36381  -0.35007  -0.31739
 Alpha  occ. eigenvalues --   -0.31663  -0.29062  -0.25769  -0.22609
 Alpha virt. eigenvalues --    0.08074   0.08929   0.10420   0.11040   0.12647
 Alpha virt. eigenvalues --    0.14004   0.14678   0.15947   0.16885   0.17825
 Alpha virt. eigenvalues --    0.17932   0.18789   0.19348   0.20100   0.22550

 Mulliken charges:
               1
     1  C   -0.428203
     2  C    0.051575
     3  O   -0.257010
     4  C   -0.081709
     5  C   -0.074162
     6  C   -0.092045
     7  O   -0.312403
     8  C    0.409805
     9  C   -0.268819
    10  H    0.130551
    11  H    0.127584
    12  H    0.089158
    13  H    0.110462
    14  H    0.094072
    15  H    0.074208
    16  H    0.109034
    17  H    0.098233
    18  H    0.116479
    19  H    0.103191
 Sum of Mulliken charges =   0.00000

 Dipole moment (field-independent basis, Debye):
    X=             -1.1885    Y=              0.3174    Z=              0.4130  Tot=              1.2977
 Quadrupole moment (field-independent basis, Debye-Ang):
   XX=            -48.9018   YY=            -59.3316   ZZ=            -51.3265
   XY=             -2.4964   XZ=              0.3085   YZ=             -0.3138

  Exact polarizability:  83.302  -2.815  69.518   1.110  -0.131  68.153
 Approx polarizability: 115.963  -2.191 105.701   1.759  -0.054 102.652

                      1                      2                      3
                      A                      A                      A
 Frequencies --    186.7894               265.7759               347.3620
 Red. masses --      2.3575                 3.0286                 2.0713
 Frc consts  --      0.0485                 0.1260                 0.1473
 IR Inten    --      0.3325                 6.7857                 2.0309

                      4                      5                      6
                      A                      A                      A
 Frequencies --    389.4444               394.3375               473.9512
 Red. masses --      2.5856                 2.8866                 2.5160
 Frc consts  --      0.2310                 0.2645                 0.3330
 IR Inten    --      2.0509                10.9723                 2.1531

                      7                      8                      9
                      A                      A                      A
 Frequencies --    514.4983               562.7170               600.5556
 Red. masses --      4.6176                 3.8715                 3.7710
 Frc consts  --      0.7202                 0.7223                 0.8013
 IR Inten    --      1.5349                 5.1106                 1.7054

                     10                     11                     12
                      A                      A                      A
 Frequencies --    730.9327               776.3634               820.6948
 Red. masses --      3.7470                 2.6551                 2.2226
 Frc consts  --      1.1795                 0.9429                 0.8820
 IR Inten    --      4.7837                 5.3128                 7.1097

                     13                     14                     15
                      A                      A                      A
 Frequencies --    856.8452               874.7564               911.5445
 Red. masses --      2.8452                 2.0813                 3.0012
 Frc consts  --      1.2308                 0.9384                 1.4693
 IR Inten    --      7.2207                 3.1981                 1.3085

                     16                     17                     18
                      A                      A                      A
 Frequencies --    934.9039               939.8093               953.3768
 Red. masses --      1.5335                 2.6716                 3.6472
 Frc consts  --      0.7897                 1.3903                 1.9532
 IR Inten    --      2.1733                 4.4904                 7.1587

                     19                     20                     21
                      A                      A                      A
 Frequencies --    981.7793               993.1341              1045.0412
 Red. masses --      3.1587                 2.0375                 1.6655
 Frc consts  --      1.7938                 1.1840                 1.0717
 IR Inten    --     47.6996                47.5208                 9.6014

                     22                     23                     24
                      A                      A                      A
 Frequencies --   1065.7407              1069.9733              1098.0970
 Red. masses --      1.9808                 2.0050                 1.6709
 Frc consts  --      1.3255                 1.3524                 1.1871
 IR Inten    --     12.9498                21.2408                 2.6706

                     25                     26                     27
                      A                      A                      A
 Frequencies --   1112.7650              1154.1478              1166.9276
 Red. masses --      1.8989                 1.4305                 1.8797
 Frc consts  --      1.3853                 1.1227                 1.5081
 IR Inten    --      2.7498                14.0153                31.1358

                     28                     29                     30
                      A                      A                      A
 Frequencies --   1190.4695              1226.3802              1234.8881
 Red. masses --      1.5560                 1.8638                 1.3070
 Frc consts  --      1.2993                 1.6516                 1.1743
 IR Inten    --     11.9049                17.8202                10.5787

                     31                     32                     33
                      A                      A                      A
 Frequencies --   1283.2344              1299.3464              1328.9504
 Red. masses --      1.3912                 1.4080                 1.5082
 Frc consts  --      1.3498                 1.4005                 1.5694
 IR Inten    --      4.4926                 4.7407                 2.1185

                     34                     35                     36
                      A                      A                      A
 Frequencies --   1350.6420              1366.0271              1384.6623
 Red. masses --      1.6209                 1.3572                 1.4239
 Frc consts  --      1.7421                 1.4921                 1.6085
 IR Inten    --      1.4947                 9.5298                13.3419

                     37                     38                     39
                      A                      A                      A
 Frequencies --   1422.6086              1477.4362              1486.1000
 Red. masses --      1.3926                 1.3936                 1.3340
 Frc consts  --      1.6605                 1.7923                 1.7359
 IR Inten    --      6.6862                12.5151                13.9103

                     40                     41                     42
                      A                      A                      A
 Frequencies --   1498.4361              1515.0461              2987.0632
 Red. masses --      1.0947                 1.1350                 1.0694
 Frc consts  --      1.4482                 1.5349                 5.6217
 IR Inten    --      0.9286                 2.0883                55.6168

                     43                     44                     45
                      A                      A                      A
 Frequencies --   3018.8721              3071.9491              3076.8579
 Red. masses --      1.0638                 1.0783                 1.0805
 Frc consts  --      5.7121                 5.9951                 6.0268
 IR Inten    --     58.1682                17.8010                 3.1625

                     46                     47                     48
                      A                      A                      A
 Frequencies --   3081.7871              3093.2469              3094.3327
 Red. masses --      1.0956                 1.0910                 1.0864
 Frc consts  --      6.1309                 6.1504                 6.1285
 IR Inten    --     39.9593                74.9482                12.8628

                     49                     50                     51
                      A                      A                      A
 Frequencies --   3134.3521              3148.2005              3224.3449
 Red. masses --      1.0559                 1.1030                 1.1166
 Frc consts  --      6.1116                 6.4412                 6.8394
 IR Inten    --      7.8006                11.2109                 3.3098

 - Thermochemistry -
 -------------------
 Temperature   298.150 Kelvin.  Pressure   1.00000 Atm.
 Atom     1 has atomic number  6 and mass  12.00000

 Molecular mass:   126.06808 amu.
 Principal axes and moments of inertia in atomic units:
                           1         2         3
     Eigenvalues --   756.18231 791.050601154.39215
           X            0.92920  -0.36947   0.00940
           Y            0.36951   0.92922  -0.00335
           Z           -0.00750   0.00659   0.99995
 This molecule is an asymmetric top.
 Rotational symmetry number  1.
 Warning -- assumption of classical behavior for rotation
           may cause significant error
 Rotational temperatures (Kelvin)      0.11454     0.10949     0.07503
 Rotational constants (GHZ):           2.38665     2.28145     1.56337
 Zero-point vibrational energy     425975.2 (Joules/Mol)
                                  101.81052 (Kcal/Mol)
 Warning -- explicit consideration of   9 degrees of freedom as
           vibrations may cause significant error
 Vibrational temperatures:    268.75   382.39   499.78   560.32   567.36
          (Kelvin)            681.91   740.25   809.62   864.06  1051.65
                             1117.01  1180.80  1232.81  1258.58  1311.51
                             1345.12  1352.17  1371.69  1412.56  1428.90
                             1503.58  1533.36  1539.45  1579.91  1601.02
                             1660.56  1678.95  1712.82  1764.49  1776.73
                             1846.29  1869.47  1912.06  1943.27  1965.41
                             1992.22  2046.81  2125.70  2138.16  2155.91
                             2179.81  4297.71  4343.48  4419.84  4426.91
                             4434.00  4450.49  4452.05  4509.63  4529.55
                             4639.11

 Zero-point correction=                           0.162245 (Hartree/Particle)
 Thermal correction to Energy=                    0.168879
 Thermal correction to Enthalpy=                  0.169824
 Thermal correction to Gibbs Free Energy=         0.131692
 Sum of electronic and zero-point Energies=           -422.990142
 Sum of electronic and thermal Energies=              -422.983508
 Sum of electronic and thermal Enthalpies=            -422.982564
 Sum of electronic and thermal Free Energies=         -423.020696

                     E (Thermal)             CV                S
                      KCal/Mol        Cal/Mol-Kelvin    Cal/Mol-Kelvin
 Total                  105.973             28.301             80.255
 Electronic               0.000              0.000              0.000
 Translational            0.889              2.981             40.409
 Rotational               0.889              2.981             28.026
 Vibrational            104.196             22.339             11.820
 Vibration     1          0.632              1.858              2.259
 Vibration     2          0.672              1.736              1.624
 Vibration     3          0.725              1.581              1.178
 Vibration     4          0.757              1.493              1.002
 Vibration     5          0.761              1.482              0.984
 Vibration     6          0.831              1.308              0.727
 Vibration     7          0.870              1.218              0.623
 Vibration     8          0.918              1.112              0.518
 Vibration     9          0.959              1.031              0.449

 Optimization completed.
    -- Stationary point found.
 Normal termination of Gaussian 09 at Mon Jan 27 12:10:15 2020.
