 Gaussian 09, Revision D.01,
 Gaussian 09:  ES64L-G09RevD.01 24-Apr-2013

 -----------------------------
 # b3lyp 6-31G(2df,p) opt Freq
 -----------------------------

 -----
 titel
 -----
 Symbolic Z-matrix:
 Charge =  0 Multiplicity = 1

 SCF Done:  E(RB3LYP) =  -423.153842099     A.U. after   13 cycles
 Optimization completed.
    -- Stationary point found.
 Normal termination of Gaussian 09 at Mon Jan 27 12:22:27 2020.

 ----------------------------------------------------------------------
 #N Geom=AllCheck Guess=TCheck SCRF=Check GenChk RB3LYP/6-31G(2df,p) Fr
 eq
 ----------------------------------------------------------------------

 Structure from the checkpoint file:  "/scratch/puck/g09_554b9edf-9ab1-4a56-8d55-3737b05bbbfd/Gau-52438.chk"
 -----
 titel
 -----
 Charge =  0 Multiplicity = 1

                         Standard orientation:
 ---------------------------------------------------------------------
 Center     Atomic      Atomic             Coordinates (Angstroms)
 Number     Number       Type             X           Y           Z
 ---------------------------------------------------------------------
      1          6           0       -2.190826   -0.662140   -0.035179
      2          8           0       -2.133632    0.789219    0.079632
      3          6           0       -0.714933    0.700226    0.354864
      4          6           0        0.248462    1.709909   -0.168776
      5          6           0        1.539393    1.369268   -0.189271
      6          6           0        2.083894    0.049639    0.348104
      7          6           0        1.531250   -1.283221   -0.216090
      8          8           0        0.196570   -1.622269    0.160217
      9          6           0       -0.685415   -0.664774   -0.335081
     10          1           0       -2.443771   -1.134402    0.923994
     11          1           0       -2.883842   -0.987897   -0.814582
     12          1           0       -0.567483    0.562337    1.441354
     13          1           0       -0.106949    2.674607   -0.516730
     14          1           0        2.274456    2.082076   -0.552557
     15          1           0        3.164984    0.020345    0.172737
     16          1           0        1.956787    0.022396    1.440553
     17          1           0        1.611513   -1.274797   -1.314849
     18          1           0        2.150816   -2.100132    0.163923
     19          1           0       -0.530971   -0.513569   -1.414060
 ---------------------------------------------------------------------

 SCF Done:  E(RB3LYP) =  -423.153842099     A.U. after    1 cycles

 The electronic state is 1-A.
 Alpha  occ. eigenvalues --  -19.14823 -19.13793 -10.23717 -10.23355 -10.23201
 Alpha  occ. eigenvalues --  -10.22969 -10.19551 -10.18888 -10.18560  -1.05388
 Alpha  occ. eigenvalues --   -1.02955  -0.81057  -0.76392  -0.71480  -0.67335
 Alpha  occ. eigenvalues --   -0.63593  -0.57700  -0.54091  -0.50682  -0.50360
 Alpha  occ. eigenvalues --   -0.48102  -0.44359  -0.42879  -0.42622  -0.41977
 Alpha  occ. eigenvalues --   -0.40076  -0.37482  -0.36556  -0.33300  -0.32571
 Alpha  occ. eigenvalues --   -0.31804  -0.27071  -0.25688  -0.23207
 Alpha virt. eigenvalues --    0.00672   0.06859   0.09815   0.10771   0.11994
 Alpha virt. eigenvalues --    0.12866   0.14431   0.15746   0.16169   0.17259
 Alpha virt. eigenvalues --    0.17708   0.19009   0.19808   0.20526   0.21562

 Mulliken charges:
               1
     1  C   -0.151888
     2  O   -0.307931
     3  C    0.111659
     4  C   -0.129587
     5  C   -0.062743
     6  C   -0.266876
     7  C   -0.081219
     8  O   -0.250071
     9  C    0.114802
    10  H    0.108187
    11  H    0.113232
    12  H    0.084901
    13  H    0.105765
    14  H    0.095583
    15  H    0.106202
    16  H    0.124278
    17  H    0.096681
    18  H    0.110009
    19  H    0.079014
 Sum of Mulliken charges =   0.00000

 Dipole moment (field-independent basis, Debye):
    X=              1.8011    Y=             -0.2844    Z=             -0.4237  Tot=              1.8720
 Quadrupole moment (field-independent basis, Debye-Ang):
   XX=            -51.6757   YY=            -55.2387   ZZ=            -52.7858
   XY=              2.8308   XZ=              0.2938   YZ=              0.3082

  Exact polarizability:  94.990   0.815  74.301   0.201  -2.395  59.819
 Approx polarizability: 133.973  -4.339 106.542  -0.018  -4.920  94.151

                      1                      2                      3
                      A                      A                      A
 Frequencies --    130.7691               179.8079               270.2425
 Red. masses --      2.8543                 2.7008                 2.5698
 Frc consts  --      0.0288                 0.0514                 0.1106
 IR Inten    --      0.1986                 2.0630                 1.0837

                      4                      5                      6
                      A                      A                      A
 Frequencies --    307.3844               332.4354               359.1587
 Red. masses --      2.4616                 4.7990                 3.3295
 Frc consts  --      0.1370                 0.3125                 0.2530
 IR Inten    --      6.2742                 3.1070                 2.4133

                      7                      8                      9
                      A                      A                      A
 Frequencies --    464.7716               488.4917               523.5221
 Red. masses --      2.7376                 3.5912                 2.8093
 Frc consts  --      0.3484                 0.5049                 0.4536
 IR Inten    --      4.7734                 0.4172                 4.2858

                     10                     11                     12
                      A                      A                      A
 Frequencies --    633.9167               699.0153               721.0436
 Red. masses --      2.6566                 1.8834                 2.3226
 Frc consts  --      0.6290                 0.5422                 0.7114
 IR Inten    --      4.5616                21.4273                12.8091

                     13                     14                     15
                      A                      A                      A
 Frequencies --    797.3683               875.8697               906.8717
 Red. masses --      2.8091                 2.0796                 2.6012
 Frc consts  --      1.0523                 0.9400                 1.2604
 IR Inten    --      0.6357                12.8192                 5.0630

                     16                     17                     18
                      A                      A                      A
 Frequencies --    963.1743               973.9550              1003.7462
 Red. masses --      5.4809                 1.2489                 2.6288
 Frc consts  --      2.9958                 0.6980                 1.5605
 IR Inten    --     37.7023                 1.0567                14.9588

                     19                     20                     21
                      A                      A                      A
 Frequencies --   1012.0431              1053.6053              1069.8676
 Red. masses --      3.3819                 2.8215                 3.0985
 Frc consts  --      2.0408                 1.8454                 2.0896
 IR Inten    --     75.2746                 6.8617                20.1107

                     22                     23                     24
                      A                      A                      A
 Frequencies --   1074.0400              1106.8778              1131.2252
 Red. masses --      2.5871                 2.0785                 1.8821
 Frc consts  --      1.7583                 1.5004                 1.4190
 IR Inten    --      2.6884                 2.9383                 6.1789

                     25                     26                     27
                      A                      A                      A
 Frequencies --   1166.9346              1186.6065              1201.1733
 Red. masses --      1.5300                 1.7366                 1.4359
 Frc consts  --      1.2276                 1.4407                 1.2207
 IR Inten    --     25.1821                30.0679                48.7547

                     28                     29                     30
                      A                      A                      A
 Frequencies --   1240.1381              1250.1960              1298.7914
 Red. masses --      1.3275                 1.2958                 1.3430
 Frc consts  --      1.2029                 1.1933                 1.3348
 IR Inten    --      6.8467                 2.1888                 2.9607

                     31                     32                     33
                      A                      A                      A
 Frequencies --   1311.6685              1328.5785              1355.9547
 Red. masses --      1.2375                 1.4078                 1.3171
 Frc consts  --      1.2544                 1.4641                 1.4268
 IR Inten    --     18.0285                 8.1991                17.6814

                     34                     35                     36
                      A                      A                      A
 Frequencies --   1366.9663              1400.0646              1416.7094
 Red. masses --      1.3044                 1.2716                 1.5243
 Frc consts  --      1.4360                 1.4685                 1.8026
 IR Inten    --      2.6595                23.5871                 1.9616

                     37                     38                     39
                      A                      A                      A
 Frequencies --   1441.3067              1465.3505              1494.6127
 Red. masses --      1.3983                 1.0918                 1.1234
 Frc consts  --      1.7114                 1.3812                 1.4786
 IR Inten    --     17.8895                 5.2884                 5.7124

                     40                     41                     42
                      A                      A                      A
 Frequencies --   1516.1240              1690.6094              2934.2452
 Red. masses --      1.1331                 6.9533                 1.0802
 Frc consts  --      1.5346                11.7091                 5.4794
 IR Inten    --      3.1388                 0.6392                30.8377

                     43                     44                     45
                      A                      A                      A
 Frequencies --   2979.1128              2991.9574              3004.9921
 Red. masses --      1.0711                 1.0826                 1.0663
 Frc consts  --      5.6008                 5.7098                 5.6728
 IR Inten    --     29.1831                43.6632                23.9112

                     46                     47                     48
                      A                      A                      A
 Frequencies --   3015.8804              3067.0825              3091.0791
 Red. masses --      1.0630                 1.0947                 1.0937
 Frc consts  --      5.6967                 6.0675                 6.1571
 IR Inten    --     62.5940                21.0029                40.5292

                     49                     50                     51
                      A                      A                      A
 Frequencies --   3102.5408              3160.0748              3189.0978
 Red. masses --      1.1031                 1.0854                 1.0968
 Frc consts  --      6.2561                 6.3863                 6.5719
 IR Inten    --     40.7650                 9.1093                14.6355

 - Thermochemistry -
 -------------------
 Temperature   298.150 Kelvin.  Pressure   1.00000 Atm.
 Atom     1 has atomic number  6 and mass  12.00000

 Molecular mass:   126.06808 amu.
 Principal axes and moments of inertia in atomic units:
                           1         2         3
     Eigenvalues --   652.012041106.673501642.44741
           X            0.99962   0.02749   0.00146
           Y           -0.02750   0.99962   0.00089
           Z           -0.00143  -0.00093   1.00000
 This molecule is an asymmetric top.
 Rotational symmetry number  1.
 Warning -- assumption of classical behavior for rotation
           may cause significant error
 Rotational temperatures (Kelvin)      0.13284     0.07827     0.05273
 Rotational constants (GHZ):           2.76796     1.63078     1.09881
 Zero-point vibrational energy     423161.3 (Joules/Mol)
                                  101.13799 (Kcal/Mol)
 Warning -- explicit consideration of   9 degrees of freedom as
           vibrations may cause significant error
 Vibrational temperatures:    188.15   258.70   388.82   442.26   478.30
          (Kelvin)            516.75   668.70   702.83   753.23   912.06
                             1005.73  1037.42  1147.23  1260.18  1304.78
                             1385.79  1401.30  1444.17  1456.10  1515.90
                             1539.30  1545.30  1592.55  1627.58  1678.96
                             1707.26  1728.22  1784.28  1798.75  1868.67
                             1887.20  1911.53  1950.91  1966.76  2014.38
                             2038.33  2073.72  2108.31  2150.41  2181.36
                             2432.41  4221.72  4286.27  4304.75  4323.51
                             4339.17  4412.84  4447.37  4463.86  4546.64
                             4588.39

 Zero-point correction=                           0.161174 (Hartree/Particle)
 Thermal correction to Energy=                    0.168577
 Thermal correction to Enthalpy=                  0.169521
 Thermal correction to Gibbs Free Energy=         0.129494
 Sum of electronic and zero-point Energies=           -422.992668
 Sum of electronic and thermal Energies=              -422.985266
 Sum of electronic and thermal Enthalpies=            -422.984321
 Sum of electronic and thermal Free Energies=         -423.024348

                     E (Thermal)             CV                S
                      KCal/Mol        Cal/Mol-Kelvin    Cal/Mol-Kelvin
 Total                  105.783             29.628             84.243
 Electronic               0.000              0.000              0.000
 Translational            0.889              2.981             40.409
 Rotational               0.889              2.981             28.562
 Vibrational            104.006             23.666             15.272
 Vibration     1          0.612              1.923              2.935
 Vibration     2          0.629              1.867              2.330
 Vibration     3          0.674              1.728              1.595
 Vibration     4          0.697              1.660              1.376
 Vibration     5          0.714              1.611              1.248
 Vibration     6          0.734              1.556              1.126
 Vibration     7          0.822              1.328              0.752
 Vibration     8          0.844              1.276              0.688
 Vibration     9          0.878              1.198              0.602

 Optimization completed.
    -- Stationary point found.
 Normal termination of Gaussian 09 at Mon Jan 27 13:10:37 2020.
