 Gaussian 09, Revision D.01,
 Gaussian 09:  ES64L-G09RevD.01 24-Apr-2013

 -----------------------------
 # b3lyp 6-31G(2df,p) opt Freq
 -----------------------------

 -----
 titel
 -----
 Symbolic Z-matrix:
 Charge =  0 Multiplicity = 1

 SCF Done:  E(RB3LYP) =  -423.194437875     A.U. after   14 cycles
 Optimization completed.
    -- Stationary point found.
 Normal termination of Gaussian 09 at Mon Jan 27 22:00:11 2020.

 ----------------------------------------------------------------------
 #N Geom=AllCheck Guess=TCheck SCRF=Check GenChk RB3LYP/6-31G(2df,p) Fr
 eq
 ----------------------------------------------------------------------

 Structure from the checkpoint file:  "/scratch/puck/g09_71c15d57-8ec1-4e02-b542-c3457f740c01/Gau-125554.chk"
 -----
 titel
 -----
 Charge =  0 Multiplicity = 1

                         Standard orientation:
 ---------------------------------------------------------------------
 Center     Atomic      Atomic             Coordinates (Angstroms)
 Number     Number       Type             X           Y           Z
 ---------------------------------------------------------------------
      1          8           0       -0.086687   -1.331468    1.243776
      2          6           0        0.040655   -0.642133   -0.003521
      3          6           0        1.440594   -0.911953   -0.565818
      4          6           0        2.287790    0.309760   -0.101658
      5          6           0        1.244945    1.389163    0.128669
      6          6           0        0.024675    0.867665    0.173979
      7          6           0       -1.408931    1.306809    0.158105
      8          8           0       -2.143798    0.116349   -0.191646
      9          6           0       -1.239718   -0.803862   -0.826445
     10          1           0       -0.964128   -1.125335    1.588099
     11          1           0        1.829520   -1.868951   -0.212764
     12          1           0        1.405785   -0.938971   -1.659361
     13          1           0        2.847780    0.091996    0.817256
     14          1           0        3.028941    0.607305   -0.851832
     15          1           0        1.501914    2.438911    0.226241
     16          1           0       -1.791181    1.657447    1.123612
     17          1           0       -1.587523    2.100727   -0.581958
     18          1           0       -1.078313   -0.537074   -1.882388
     19          1           0       -1.688980   -1.797792   -0.763816
 ---------------------------------------------------------------------

 SCF Done:  E(RB3LYP) =  -423.194437875     A.U. after    1 cycles

 The electronic state is 1-A.
 Alpha  occ. eigenvalues --  -19.14262 -19.13106 -10.23590 -10.23199 -10.22498
 Alpha  occ. eigenvalues --  -10.18679 -10.18572 -10.18223 -10.18064  -1.04174
 Alpha  occ. eigenvalues --   -1.00532  -0.83947  -0.74788  -0.72226  -0.68842
 Alpha  occ. eigenvalues --   -0.61447  -0.57405  -0.54469  -0.50054  -0.49563
 Alpha  occ. eigenvalues --   -0.47929  -0.44134  -0.42511  -0.41633  -0.38838
 Alpha  occ. eigenvalues --   -0.38250  -0.37624  -0.35648  -0.34783  -0.32992
 Alpha  occ. eigenvalues --   -0.31026  -0.27609  -0.25184  -0.23872
 Alpha virt. eigenvalues --    0.00798   0.08247   0.10216   0.12343   0.12902
 Alpha virt. eigenvalues --    0.13385   0.13975   0.14224   0.15816   0.16944
 Alpha virt. eigenvalues --    0.17947   0.18500   0.21064   0.21695   0.22566

 Mulliken charges:
               1
     1  O   -0.491845
     2  C    0.367105
     3  C   -0.281489
     4  C   -0.251382
     5  C   -0.248095
     6  C    0.297714
     7  C   -0.200151
     8  O   -0.283320
     9  C   -0.161850
    10  H    0.281160
    11  H    0.113902
    12  H    0.102322
    13  H    0.119117
    14  H    0.103335
    15  H    0.095738
    16  H    0.121011
    17  H    0.114217
    18  H    0.089910
    19  H    0.112599
 Sum of Mulliken charges =   0.00000

 Dipole moment (field-independent basis, Debye):
    X=              0.6175    Y=              1.0677    Z=             -0.7083  Tot=              1.4223
 Quadrupole moment (field-independent basis, Debye-Ang):
   XX=            -54.8274   YY=            -51.7270   ZZ=            -52.6094
   XY=              0.9248   XZ=             -2.4469   YZ=              2.0642

  Exact polarizability:  90.656   2.663  77.304  -2.263   1.983  62.197
 Approx polarizability: 131.684   7.589 111.791  -4.829  -0.541  95.625

                      1                      2                      3
                      A                      A                      A
 Frequencies --    105.0115               183.5722               219.8922
 Red. masses --      2.4310                 4.2930                 2.3889
 Frc consts  --      0.0158                 0.0852                 0.0681
 IR Inten    --      0.2839                10.5074                 2.3454

                      4                      5                      6
                      A                      A                      A
 Frequencies --    257.0411               338.6602               373.3609
 Red. masses --      2.7363                 2.2658                 2.0214
 Frc consts  --      0.1065                 0.1531                 0.1660
 IR Inten    --      1.4348                 5.6162                 6.7392

                      7                      8                      9
                      A                      A                      A
 Frequencies --    416.0046               481.3207               575.6263
 Red. masses --      1.2317                 3.2033                 3.1203
 Frc consts  --      0.1256                 0.4372                 0.6092
 IR Inten    --     76.9268                 3.8092                 4.8870

                     10                     11                     12
                      A                      A                      A
 Frequencies --    579.4531               667.1482               725.3035
 Red. masses --      4.8493                 4.4423                 2.3873
 Frc consts  --      0.9593                 1.1649                 0.7400
 IR Inten    --      1.6482                 4.0374                 3.4585

                     13                     14                     15
                      A                      A                      A
 Frequencies --    782.7593               824.2906               858.7893
 Red. masses --      3.7118                 1.8492                 1.4809
 Frc consts  --      1.3400                 0.7403                 0.6435
 IR Inten    --      9.3843                10.9520                12.3209

                     16                     17                     18
                      A                      A                      A
 Frequencies --    906.3697               919.5783               938.4788
 Red. masses --      3.4496                 3.1023                 2.2347
 Frc consts  --      1.6697                 1.5457                 1.1596
 IR Inten    --     20.9201                 1.1357                27.6966

                     19                     20                     21
                      A                      A                      A
 Frequencies --    974.1765               995.0460              1026.3988
 Red. masses --      2.1857                 2.0974                 2.3997
 Frc consts  --      1.2221                 1.2235                 1.4895
 IR Inten    --      7.1798                17.6557                15.0084

                     22                     23                     24
                      A                      A                      A
 Frequencies --   1045.8772              1054.1158              1106.8396
 Red. masses --      2.8887                 3.3614                 1.8131
 Frc consts  --      1.8617                 2.2006                 1.3087
 IR Inten    --     43.6891                26.3542                 6.8194

                     25                     26                     27
                      A                      A                      A
 Frequencies --   1111.9498              1179.1129              1196.7224
 Red. masses --      1.7571                 2.0644                 1.4784
 Frc consts  --      1.2800                 1.6911                 1.2474
 IR Inten    --     62.4796                 0.3043                 4.9714

                     28                     29                     30
                      A                      A                      A
 Frequencies --   1214.0186              1223.8378              1255.7089
 Red. masses --      1.3999                 1.2931                 1.4855
 Frc consts  --      1.2156                 1.1411                 1.3801
 IR Inten    --      4.2709                 2.6258                25.3941

                     31                     32                     33
                      A                      A                      A
 Frequencies --   1286.5506              1310.3260              1318.2075
 Red. masses --      1.3829                 1.3765                 1.4239
 Frc consts  --      1.3487                 1.3925                 1.4578
 IR Inten    --      2.8606                 4.4547                29.4397

                     34                     35                     36
                      A                      A                      A
 Frequencies --   1331.5357              1378.4495              1406.9035
 Red. masses --      1.3945                 1.4651                 1.9082
 Frc consts  --      1.4567                 1.6402                 2.2254
 IR Inten    --      1.3563                20.3307                36.6057

                     37                     38                     39
                      A                      A                      A
 Frequencies --   1473.0656              1491.7261              1497.8958
 Red. masses --      1.0858                 1.1027                 1.0865
 Frc consts  --      1.3882                 1.4457                 1.4363
 IR Inten    --      1.7710                 2.4675                 0.6055

                     40                     41                     42
                      A                      A                      A
 Frequencies --   1508.0224              1748.0196              2984.9734
 Red. masses --      1.0924                 8.6288                 1.0684
 Frc consts  --      1.4636                15.5343                 5.6089
 IR Inten    --      2.1741                 1.2493                52.0163

                     43                     44                     45
                      A                      A                      A
 Frequencies --   2996.2900              3023.6999              3049.6540
 Red. masses --      1.0680                 1.0641                 1.0954
 Frc consts  --      5.6491                 5.7319                 6.0025
 IR Inten    --     52.1944                38.5563                26.9053

                     46                     47                     48
                      A                      A                      A
 Frequencies --   3054.0707              3067.4123              3104.1324
 Red. masses --      1.0799                 1.0809                 1.0956
 Frc consts  --      5.9348                 5.9920                 6.2200
 IR Inten    --     10.4709                39.9040                23.0397

                     49                     50                     51
                      A                      A                      A
 Frequencies --   3120.5557              3183.8413              3787.6972
 Red. masses --      1.1016                 1.0943                 1.0656
 Frc consts  --      6.3200                 6.5357                 9.0072
 IR Inten    --     20.2092                16.6800                22.0351

 - Thermochemistry -
 -------------------
 Temperature   298.150 Kelvin.  Pressure   1.00000 Atm.
 Atom     1 has atomic number  8 and mass  15.99491

 Molecular mass:   126.06808 amu.
 Principal axes and moments of inertia in atomic units:
                           1         2         3
     Eigenvalues --   638.506161102.476731378.50452
           X            0.99995  -0.00364  -0.00965
           Y            0.00405   0.99910   0.04224
           Z            0.00949  -0.04228   0.99906
 This molecule is an asymmetric top.
 Rotational symmetry number  1.
 Warning -- assumption of classical behavior for rotation
           may cause significant error
 Rotational temperatures (Kelvin)      0.13565     0.07856     0.06283
 Rotational constants (GHZ):           2.82651     1.63699     1.30920
 Zero-point vibrational energy     422637.6 (Joules/Mol)
                                  101.01282 (Kcal/Mol)
 Warning -- explicit consideration of  10 degrees of freedom as
           vibrations may cause significant error
 Vibrational temperatures:    151.09   264.12   316.38   369.82   487.26
          (Kelvin)            537.18   598.54   692.51   828.20   833.70
                              959.88  1043.55  1126.21  1185.97  1235.60
                             1304.06  1323.07  1350.26  1401.62  1431.65
                             1476.76  1504.78  1516.64  1592.49  1599.85
                             1696.48  1721.81  1746.70  1760.83  1806.68
                             1851.06  1885.26  1896.60  1915.78  1983.28
                             2024.22  2119.41  2146.26  2155.14  2169.71
                             2515.01  4294.71  4310.99  4350.42  4387.77
                             4394.12  4413.32  4466.15  4489.78  4580.83
                             5449.64

 Zero-point correction=                           0.160974 (Hartree/Particle)
 Thermal correction to Energy=                    0.168691
 Thermal correction to Enthalpy=                  0.169635
 Thermal correction to Gibbs Free Energy=         0.129024
 Sum of electronic and zero-point Energies=           -423.033464
 Sum of electronic and thermal Energies=              -423.025747
 Sum of electronic and thermal Enthalpies=            -423.024803
 Sum of electronic and thermal Free Energies=         -423.065414

                     E (Thermal)             CV                S
                      KCal/Mol        Cal/Mol-Kelvin    Cal/Mol-Kelvin
 Total                  105.855             30.726             85.473
 Electronic               0.000              0.000              0.000
 Translational            0.889              2.981             40.409
 Rotational               0.889              2.981             28.364
 Vibrational            104.078             24.764             16.701
 Vibration     1          0.605              1.945              3.359
 Vibration     2          0.631              1.862              2.292
 Vibration     3          0.647              1.811              1.960
 Vibration     4          0.667              1.751              1.682
 Vibration     5          0.719              1.598              1.218
 Vibration     6          0.745              1.527              1.066
 Vibration     7          0.779              1.435              0.906
 Vibration     8          0.838              1.291              0.707
 Vibration     9          0.932              1.084              0.494
 Vibration    10          0.936              1.076              0.486

 Optimization completed.
    -- Stationary point found.
 Normal termination of Gaussian 09 at Mon Jan 27 22:44:03 2020.
