 Gaussian 09, Revision D.01,
 Gaussian 09:  ES64L-G09RevD.01 24-Apr-2013

 -----------------------------
 # b3lyp 6-31G(2df,p) opt Freq
 -----------------------------

 -----
 titel
 -----
 Symbolic Z-matrix:
 Charge =  0 Multiplicity = 1

 SCF Done:  E(RB3LYP) =  -423.113395924     A.U. after   13 cycles
 Optimization completed.
    -- Stationary point found.
 Normal termination of Gaussian 09 at Mon Jan 27 17:01:32 2020.

 ----------------------------------------------------------------------
 #N Geom=AllCheck Guess=TCheck SCRF=Check GenChk RB3LYP/6-31G(2df,p) Fr
 eq
 ----------------------------------------------------------------------

 Structure from the checkpoint file:  "/scratch/puck/g09_6100d747-62b0-4394-b2c1-cfa36343ce2f/Gau-48795.chk"
 -----
 titel
 -----
 Charge =  0 Multiplicity = 1

                         Standard orientation:
 ---------------------------------------------------------------------
 Center     Atomic      Atomic             Coordinates (Angstroms)
 Number     Number       Type             X           Y           Z
 ---------------------------------------------------------------------
      1          6           0        2.246778   -0.610069    0.214124
      2          6           0        0.996055    0.246330    0.048891
      3          6           0        1.331275    1.719120   -0.190270
      4          6           0       -0.137083    0.072970    1.072761
      5          6           0       -0.959069   -1.150972    0.554651
      6          8           0       -0.312900   -1.641163   -0.616882
      7          6           0       -0.064439   -0.260470   -0.985940
      8          6           0       -1.210241    0.220483    0.024845
      9          8           0       -2.261643    1.092071   -0.022879
     10          1           0        2.801919   -0.313937    1.111695
     11          1           0        1.984950   -1.666175    0.300451
     12          1           0        2.920121   -0.490841   -0.642905
     13          1           0        1.968697    1.831267   -1.075193
     14          1           0        0.428362    2.319511   -0.340972
     15          1           0        1.874441    2.141192    0.662156
     16          1           0       -0.172158    0.377719    2.112007
     17          1           0       -1.513975   -1.831893    1.186138
     18          1           0        0.040350   -0.104842   -2.059181
     19          1           0       -2.956019    0.706372   -0.570492
 ---------------------------------------------------------------------

 SCF Done:  E(RB3LYP) =  -423.113395924     A.U. after    1 cycles

 The electronic state is 1-A.
 Alpha  occ. eigenvalues --  -19.16561 -19.13833 -10.24264 -10.23534 -10.23485
 Alpha  occ. eigenvalues --  -10.19706 -10.18908 -10.17280 -10.16373  -1.06813
 Alpha  occ. eigenvalues --   -1.04071  -0.85750  -0.77286  -0.68517  -0.67569
 Alpha  occ. eigenvalues --   -0.60936  -0.58048  -0.53729  -0.53695  -0.47047
 Alpha  occ. eigenvalues --   -0.46259  -0.43224  -0.41812  -0.41644  -0.38846
 Alpha  occ. eigenvalues --   -0.38166  -0.37704  -0.36490  -0.34893  -0.33130
 Alpha  occ. eigenvalues --   -0.31381  -0.26245  -0.25843  -0.22719
 Alpha virt. eigenvalues --    0.06755   0.08304   0.09793   0.11804   0.12690
 Alpha virt. eigenvalues --    0.14276   0.14949   0.15731   0.16182   0.16753
 Alpha virt. eigenvalues --    0.18831   0.19715   0.20331   0.21786   0.22330

 Mulliken charges:
               1
     1  C   -0.458540
     2  C    0.331928
     3  C   -0.449329
     4  C   -0.190781
     5  C   -0.036654
     6  O   -0.280735
     7  C   -0.062288
     8  C    0.324305
     9  O   -0.454252
    10  H    0.108078
    11  H    0.131572
    12  H    0.107399
    13  H    0.110382
    14  H    0.128223
    15  H    0.115341
    16  H    0.089040
    17  H    0.112290
    18  H    0.078894
    19  H    0.295127
 Sum of Mulliken charges =   0.00000

 Dipole moment (field-independent basis, Debye):
    X=             -0.7668    Y=              0.4827    Z=             -0.0253  Tot=              0.9065
 Quadrupole moment (field-independent basis, Debye-Ang):
   XX=            -48.7042   YY=            -58.4643   ZZ=            -50.4682
   XY=              2.7176   XZ=              1.4248   YZ=             -2.7307

  Exact polarizability:  82.712   2.435  71.417  -0.352  -1.725  68.832
 Approx polarizability: 111.943   1.510 108.977   0.344   0.150 108.952

                      1                      2                      3
                      A                      A                      A
 Frequencies --    160.3296               196.3446               206.8386
 Red. masses --      3.7293                 1.9391                 1.2769
 Frc consts  --      0.0565                 0.0440                 0.0322
 IR Inten    --      2.1832                 0.2269                 0.2514

                      4                      5                      6
                      A                      A                      A
 Frequencies --    252.6213               315.1990               320.1668
 Red. masses --      1.0705                 2.2802                 3.2166
 Frc consts  --      0.0403                 0.1335                 0.1943
 IR Inten    --      0.3684                 7.9667                 5.3510

                      7                      8                      9
                      A                      A                      A
 Frequencies --    352.8342               368.9305               403.7457
 Red. masses --      1.7488                 2.7502                 1.7104
 Frc consts  --      0.1283                 0.2206                 0.1643
 IR Inten    --     26.5412                 3.3010                69.2303

                     10                     11                     12
                      A                      A                      A
 Frequencies --    522.5618               593.7733               606.1792
 Red. masses --      4.3997                 3.7110                 3.2812
 Frc consts  --      0.7079                 0.7709                 0.7104
 IR Inten    --      4.4857                 4.0445                 5.6985

                     13                     14                     15
                      A                      A                      A
 Frequencies --    649.0120               762.9922               798.5824
 Red. masses --      3.0108                 6.1897                 2.9928
 Frc consts  --      0.7472                 2.1230                 1.1245
 IR Inten    --     11.9950                 0.4252                 4.7489

                     16                     17                     18
                      A                      A                      A
 Frequencies --    863.7831               890.6857               905.4669
 Red. masses --      2.7157                 2.4856                 1.5282
 Frc consts  --      1.1938                 1.1618                 0.7382
 IR Inten    --      2.1507                21.5822                 8.8314

                     19                     20                     21
                      A                      A                      A
 Frequencies --    932.7775               953.9791               966.4795
 Red. masses --      1.7872                 1.4830                 1.8216
 Frc consts  --      0.9162                 0.7952                 1.0025
 IR Inten    --     18.5922                 7.9862                13.6231

                     22                     23                     24
                      A                      A                      A
 Frequencies --    985.5295              1020.5468              1044.2651
 Red. masses --      3.6890                 1.4667                 2.6003
 Frc consts  --      2.1111                 0.9001                 1.6707
 IR Inten    --     16.2887                 5.8745                10.9008

                     25                     26                     27
                      A                      A                      A
 Frequencies --   1047.2504              1096.9815              1129.5823
 Red. masses --      2.7974                 1.9288                 1.6552
 Frc consts  --      1.8076                 1.3675                 1.2443
 IR Inten    --     16.6921                 3.9735                 2.1324

                     28                     29                     30
                      A                      A                      A
 Frequencies --   1166.8543              1199.0094              1218.1296
 Red. masses --      2.2350                 1.5500                 2.2468
 Frc consts  --      1.7929                 1.3129                 1.9642
 IR Inten    --     34.0017                 6.4410                 4.4565

                     31                     32                     33
                      A                      A                      A
 Frequencies --   1237.8051              1270.2745              1315.2172
 Red. masses --      2.8205                 2.2774                 1.5251
 Frc consts  --      2.5461                 2.1651                 1.5543
 IR Inten    --      8.5786                38.8823                46.5777

                     34                     35                     36
                      A                      A                      A
 Frequencies --   1335.5554              1396.7441              1420.6275
 Red. masses --      2.1602                 1.2736                 1.2267
 Frc consts  --      2.2702                 1.4639                 1.4587
 IR Inten    --     58.8840                 9.4595                 2.1923

                     37                     38                     39
                      A                      A                      A
 Frequencies --   1484.2684              1486.7354              1491.2986
 Red. masses --      1.1165                 1.0465                 3.4486
 Frc consts  --      1.4492                 1.3629                 4.5187
 IR Inten    --      2.4047                 0.2135                63.1531

                     40                     41                     42
                      A                      A                      A
 Frequencies --   1505.4906              1509.1216              3023.6082
 Red. masses --      1.0864                 1.0525                 1.0364
 Frc consts  --      1.4508                 1.4123                 5.5827
 IR Inten    --      3.4528                 8.4647                17.7486

                     43                     44                     45
                      A                      A                      A
 Frequencies --   3028.6815              3083.1642              3089.1951
 Red. masses --      1.0377                 1.1005                 1.1003
 Frc consts  --      5.6084                 6.1638                 6.1865
 IR Inten    --     40.7891                 6.7979                38.2461

                     46                     47                     48
                      A                      A                      A
 Frequencies --   3103.0216              3129.0959              3133.0178
 Red. masses --      1.1011                 1.0921                 1.0978
 Frc consts  --      6.2464                 6.2999                 6.3488
 IR Inten    --     22.9621                28.2640                13.6503

                     49                     50                     51
                      A                      A                      A
 Frequencies --   3190.6125              3213.5369              3779.1847
 Red. masses --      1.0924                 1.0958                 1.0659
 Frc consts  --      6.5519                 6.6675                 8.9695
 IR Inten    --      6.7379                12.7104                29.2863

 - Thermochemistry -
 -------------------
 Temperature   298.150 Kelvin.  Pressure   1.00000 Atm.
 Atom     1 has atomic number  6 and mass  12.00000

 Molecular mass:   126.06808 amu.
 Principal axes and moments of inertia in atomic units:
                           1         2         3
     Eigenvalues --   681.513281053.932201377.31346
           X            0.99935   0.03597   0.00079
           Y           -0.03592   0.99866  -0.03738
           Z           -0.00214   0.03733   0.99930
 This molecule is an asymmetric top.
 Rotational symmetry number  1.
 Warning -- assumption of classical behavior for rotation
           may cause significant error
 Rotational temperatures (Kelvin)      0.12709     0.08218     0.06289
 Rotational constants (GHZ):           2.64814     1.71239     1.31033
 Zero-point vibrational energy     413654.8 (Joules/Mol)
                                   98.86588 (Kcal/Mol)
 Warning -- explicit consideration of  12 degrees of freedom as
           vibrations may cause significant error
 Vibrational temperatures:    230.68   282.50   297.59   363.47   453.50
          (Kelvin)            460.65   507.65   530.81   580.90   751.85
                              854.31   872.16   933.78  1097.77  1148.98
                             1242.79  1281.50  1302.76  1342.06  1372.56
                             1390.55  1417.96  1468.34  1502.46  1506.76
                             1578.31  1625.21  1678.84  1725.10  1752.61
                             1780.92  1827.64  1892.30  1921.56  2009.60
                             2043.96  2135.53  2139.08  2145.64  2166.06
                             2171.29  4350.29  4357.59  4435.98  4444.66
                             4464.55  4502.07  4507.71  4590.57  4623.56
                             5437.40

 Zero-point correction=                           0.157553 (Hartree/Particle)
 Thermal correction to Energy=                    0.165868
 Thermal correction to Enthalpy=                  0.166812
 Thermal correction to Gibbs Free Energy=         0.125464
 Sum of electronic and zero-point Energies=           -422.955843
 Sum of electronic and thermal Energies=              -422.947528
 Sum of electronic and thermal Enthalpies=            -422.946584
 Sum of electronic and thermal Free Energies=         -422.987932

                     E (Thermal)             CV                S
                      KCal/Mol        Cal/Mol-Kelvin    Cal/Mol-Kelvin
 Total                  104.084             33.331             87.025
 Electronic               0.000              0.000              0.000
 Translational            0.889              2.981             40.409
 Rotational               0.889              2.981             28.383
 Vibrational            102.306             27.369             18.233
 Vibration     1          0.622              1.891              2.546
 Vibration     2          0.636              1.845              2.167
 Vibration     3          0.641              1.830              2.071
 Vibration     4          0.664              1.758              1.712
 Vibration     5          0.703              1.645              1.335
 Vibration     6          0.706              1.635              1.309
 Vibration     7          0.729              1.569              1.154
 Vibration     8          0.741              1.536              1.084
 Vibration     9          0.769              1.462              0.949
 Vibration    10          0.878              1.200              0.604
 Vibration    11          0.951              1.045              0.460
 Vibration    12          0.965              1.019              0.439

 Optimization completed.
    -- Stationary point found.
 Normal termination of Gaussian 09 at Mon Jan 27 17:46:59 2020.
