 Gaussian 09, Revision D.01,
 Gaussian 09:  ES64L-G09RevD.01 24-Apr-2013

 -----------------------------
 # b3lyp 6-31G(2df,p) opt Freq
 -----------------------------

 -----
 titel
 -----
 Symbolic Z-matrix:
 Charge =  0 Multiplicity = 1

 SCF Done:  E(RB3LYP) =  -423.176744140     A.U. after   14 cycles
 Optimization completed.
    -- Stationary point found.
 Normal termination of Gaussian 09 at Mon Jan 27 22:00:19 2020.

 ----------------------------------------------------------------------
 #N Geom=AllCheck Guess=TCheck SCRF=Check GenChk RB3LYP/6-31G(2df,p) Fr
 eq
 ----------------------------------------------------------------------

 Structure from the checkpoint file:  "/scratch/puck/g09_976d4e59-99c9-4f97-89a5-cede446fbb35/Gau-192444.chk"
 -----
 titel
 -----
 Charge =  0 Multiplicity = 1

                         Standard orientation:
 ---------------------------------------------------------------------
 Center     Atomic      Atomic             Coordinates (Angstroms)
 Number     Number       Type             X           Y           Z
 ---------------------------------------------------------------------
      1          6           0       -0.691006    1.973104   -0.614034
      2          6           0       -0.271456    1.023277    0.501459
      3          6           0       -1.215070   -0.232717    0.663139
      4          8           0       -2.489206   -0.215129    0.080861
      5          6           0       -0.122088   -1.057337   -0.033578
      6          8           0       -0.153000   -2.100434   -0.631483
      7          6           0        0.872969    0.049271    0.133891
      8          6           0        2.242517   -0.106107    0.765857
      9          6           0        2.125827    0.255431   -0.680859
     10          1           0       -1.631291    2.471586   -0.363423
     11          1           0        0.071590    2.740629   -0.781025
     12          1           0       -0.842840    1.437987   -1.556482
     13          1           0       -0.120680    1.567233    1.437685
     14          1           0       -1.280221   -0.513796    1.725049
     15          1           0       -2.517222   -0.931654   -0.564361
     16          1           0        2.542830    0.664761    1.468143
     17          1           0        2.558947   -1.110478    1.026687
     18          1           0        2.358230    1.272238   -0.978926
     19          1           0        2.348152   -0.503532   -1.423620
 ---------------------------------------------------------------------

 SCF Done:  E(RB3LYP) =  -423.176744140     A.U. after    1 cycles

 The electronic state is 1-A.
 Alpha  occ. eigenvalues --  -19.14624 -19.14111 -10.26694 -10.23699 -10.20703
 Alpha  occ. eigenvalues --  -10.20676 -10.20309 -10.19985 -10.17875  -1.05173
 Alpha  occ. eigenvalues --   -1.02554  -0.88619  -0.81127  -0.71836  -0.62597
 Alpha  occ. eigenvalues --   -0.61594  -0.59293  -0.53558  -0.50534  -0.49455
 Alpha  occ. eigenvalues --   -0.46795  -0.46308  -0.43053  -0.41059  -0.39360
 Alpha  occ. eigenvalues --   -0.38109  -0.37574  -0.36963  -0.36277  -0.33314
 Alpha  occ. eigenvalues --   -0.31934  -0.29364  -0.27086  -0.24152
 Alpha virt. eigenvalues --   -0.02940   0.07636   0.09054   0.10695   0.11523
 Alpha virt. eigenvalues --    0.12336   0.14271   0.15038   0.16328   0.17045
 Alpha virt. eigenvalues --    0.18483   0.18674   0.19831   0.20369   0.22529

 Mulliken charges:
               1
     1  C   -0.380832
     2  C   -0.168697
     3  C    0.051876
     4  O   -0.434985
     5  C    0.288969
     6  O   -0.330917
     7  C    0.249043
     8  C   -0.316930
     9  C   -0.315565
    10  H    0.130264
    11  H    0.110572
    12  H    0.117877
    13  H    0.076080
    14  H    0.102346
    15  H    0.298530
    16  H    0.125547
    17  H    0.133126
    18  H    0.126208
    19  H    0.137488
 Sum of Mulliken charges =   0.00000

 Dipole moment (field-independent basis, Debye):
    X=              1.5329    Y=              1.6336    Z=              0.7012  Tot=              2.3474
 Quadrupole moment (field-independent basis, Debye-Ang):
   XX=            -54.5215   YY=            -56.6624   ZZ=            -51.3572
   XY=              1.9731   XZ=              1.8131   YZ=             -1.3817

  Exact polarizability:  86.583   1.605  76.737   0.771   2.178  67.082
 Approx polarizability: 118.228   4.836 115.424   1.698   9.442 103.929

                      1                      2                      3
                      A                      A                      A
 Frequencies --     52.3090               142.2104               170.7778
 Red. masses --      5.1932                 1.9030                 2.3278
 Frc consts  --      0.0084                 0.0227                 0.0400
 IR Inten    --      0.7936                21.1373                33.5510

                      4                      5                      6
                      A                      A                      A
 Frequencies --    186.1898               203.5170               216.8966
 Red. masses --      2.6310                 1.4325                 2.2757
 Frc consts  --      0.0537                 0.0350                 0.0631
 IR Inten    --      2.3371                 9.1419                 0.1507

                      7                      8                      9
                      A                      A                      A
 Frequencies --    220.2743               235.7229               399.0579
 Red. masses --      2.6085                 1.9376                 3.9477
 Frc consts  --      0.0746                 0.0634                 0.3704
 IR Inten    --     13.5124                 7.3269                 0.8053

                     10                     11                     12
                      A                      A                      A
 Frequencies --    467.5426               530.0695               572.6265
 Red. masses --      3.3928                 4.1870                 3.0136
 Frc consts  --      0.4370                 0.6931                 0.5822
 IR Inten    --      5.8602                 4.6581                 0.1894

                     13                     14                     15
                      A                      A                      A
 Frequencies --    716.2752               749.5890               797.5534
 Red. masses --      3.9425                 2.0147                 1.4303
 Frc consts  --      1.1917                 0.6670                 0.5360
 IR Inten    --      7.1490                 1.9966                 3.3908

                     16                     17                     18
                      A                      A                      A
 Frequencies --    817.1169               835.1635               894.5048
 Red. masses --      3.0308                 2.2572                 3.0390
 Frc consts  --      1.1923                 0.9276                 1.4327
 IR Inten    --      2.1712                 4.4813                 6.5532

                     19                     20                     21
                      A                      A                      A
 Frequencies --    936.1448               954.9411              1013.3852
 Red. masses --      1.7259                 1.9156                 3.0052
 Frc consts  --      0.8912                 1.0292                 1.8183
 IR Inten    --     10.1778                20.3904                86.8006

                     22                     23                     24
                      A                      A                      A
 Frequencies --   1045.9173              1059.5691              1066.0678
 Red. masses --      1.4023                 1.3235                 2.0158
 Frc consts  --      0.9038                 0.8754                 1.3498
 IR Inten    --      3.0935                 1.6717                59.6655

                     25                     26                     27
                      A                      A                      A
 Frequencies --   1083.3379              1117.4222              1161.8656
 Red. masses --      1.5002                 2.0905                 1.7388
 Frc consts  --      1.0373                 1.5379                 1.3829
 IR Inten    --     19.2758                 2.8467                28.1845

                     28                     29                     30
                      A                      A                      A
 Frequencies --   1180.0444              1196.9148              1230.2982
 Red. masses --      2.0405                 1.3187                 2.0930
 Frc consts  --      1.6741                 1.1131                 1.8666
 IR Inten    --     25.0536                 0.0765                 0.8801

                     31                     32                     33
                      A                      A                      A
 Frequencies --   1260.6922              1332.1708              1354.9299
 Red. masses --      1.6050                 1.8412                 1.4028
 Frc consts  --      1.5029                 1.9251                 1.5173
 IR Inten    --      2.4206                32.5504                 4.7686

                     34                     35                     36
                      A                      A                      A
 Frequencies --   1368.7543              1383.3797              1415.7726
 Red. masses --      1.7148                 1.7367                 1.2613
 Frc consts  --      1.8929                 1.9582                 1.4895
 IR Inten    --     72.0513                 5.1961                 2.6729

                     37                     38                     39
                      A                      A                      A
 Frequencies --   1460.2071              1487.4561              1493.3314
 Red. masses --      1.0893                 1.1329                 1.1609
 Frc consts  --      1.3684                 1.4768                 1.5253
 IR Inten    --      2.4975                 9.1372                 4.2443

                     40                     41                     42
                      A                      A                      A
 Frequencies --   1494.8278              1865.0350              2992.7116
 Red. masses --      1.1312                12.7402                 1.0821
 Frc consts  --      1.4892                26.1096                 5.7101
 IR Inten    --      1.3663               245.4406                26.9582

                     43                     44                     45
                      A                      A                      A
 Frequencies --   3038.9395              3068.5294              3106.7384
 Red. masses --      1.0355                 1.0867                 1.1011
 Frc consts  --      5.6343                 6.0284                 6.2614
 IR Inten    --     18.8389                19.6465                26.8060

                     46                     47                     48
                      A                      A                      A
 Frequencies --   3118.1286              3129.5161              3132.7020
 Red. masses --      1.1010                 1.0510                 1.0561
 Frc consts  --      6.3073                 6.0644                 6.1064
 IR Inten    --     21.6573                13.1550                 8.8218

                     49                     50                     51
                      A                      A                      A
 Frequencies --   3212.4404              3227.4047              3788.2884
 Red. masses --      1.1186                 1.1165                 1.0664
 Frc consts  --      6.8014                 6.8521                 9.0171
 IR Inten    --      0.1985                 6.5322                35.0695

 - Thermochemistry -
 -------------------
 Temperature   298.150 Kelvin.  Pressure   1.00000 Atm.
 Atom     1 has atomic number  6 and mass  12.00000

 Molecular mass:   126.06808 amu.
 Principal axes and moments of inertia in atomic units:
                           1         2         3
     Eigenvalues --   768.327851179.162571613.08242
           X            0.99991  -0.01134   0.00688
           Y            0.01157   0.99938  -0.03333
           Z           -0.00650   0.03341   0.99942
 This molecule is an asymmetric top.
 Rotational symmetry number  1.
 Warning -- assumption of classical behavior for rotation
           may cause significant error
 Rotational temperatures (Kelvin)      0.11273     0.07345     0.05369
 Rotational constants (GHZ):           2.34892     1.53053     1.11882
 Zero-point vibrational energy     412623.5 (Joules/Mol)
                                   98.61938 (Kcal/Mol)
 Warning -- explicit consideration of  12 degrees of freedom as
           vibrations may cause significant error
 Vibrational temperatures:     75.26   204.61   245.71   267.89   292.82
          (Kelvin)            312.07   316.93   339.15   574.15   672.69
                              762.65   823.88  1030.56  1078.49  1147.50
                             1175.65  1201.61  1286.99  1346.90  1373.95
                             1458.03  1504.84  1524.48  1533.83  1558.68
                             1607.72  1671.66  1697.82  1722.09  1770.12
                             1813.85  1916.69  1949.44  1969.33  1990.37
                             2036.98  2100.91  2140.11  2148.57  2150.72
                             2683.37  4305.84  4372.35  4414.92  4469.90
                             4486.29  4502.67  4507.25  4621.98  4643.51
                             5450.50

 Zero-point correction=                           0.157160 (Hartree/Particle)
 Thermal correction to Energy=                    0.166623
 Thermal correction to Enthalpy=                  0.167567
 Thermal correction to Gibbs Free Energy=         0.122742
 Sum of electronic and zero-point Energies=           -423.019584
 Sum of electronic and thermal Energies=              -423.010121
 Sum of electronic and thermal Enthalpies=            -423.009177
 Sum of electronic and thermal Free Energies=         -423.054002

                     E (Thermal)             CV                S
                      KCal/Mol        Cal/Mol-Kelvin    Cal/Mol-Kelvin
 Total                  104.558             34.513             94.343
 Electronic               0.000              0.000              0.000
 Translational            0.889              2.981             40.409
 Rotational               0.889              2.981             28.771
 Vibrational            102.780             28.551             25.163
 Vibration     1          0.596              1.977              4.728
 Vibration     2          0.616              1.911              2.774
 Vibration     3          0.626              1.878              2.427
 Vibration     4          0.632              1.859              2.265
 Vibration     5          0.639              1.835              2.101
 Vibration     6          0.646              1.815              1.985
 Vibration     7          0.647              1.810              1.957
 Vibration     8          0.655              1.786              1.835
 Vibration     9          0.765              1.472              0.966
 Vibration    10          0.825              1.322              0.744
 Vibration    11          0.885              1.183              0.587
 Vibration    12          0.929              1.090              0.499

 Normal termination of Gaussian 09 at Mon Jan 27 22:41:18 2020.
