 Gaussian 09, Revision D.01,
 Gaussian 09:  ES64L-G09RevD.01 24-Apr-2013

 -----------------------------
 # b3lyp 6-31G(2df,p) opt Freq
 -----------------------------

 -----
 titel
 -----
 Symbolic Z-matrix:
 Charge =  0 Multiplicity = 1

 SCF Done:  E(RB3LYP) =  -423.198929935     A.U. after   14 cycles
 Optimization completed.
    -- Stationary point found.
 Normal termination of Gaussian 09 at Tue Jan 28 03:06:00 2020.

 ----------------------------------------------------------------------
 #N Geom=AllCheck Guess=TCheck SCRF=Check GenChk RB3LYP/6-31G(2df,p) Fr
 eq
 ----------------------------------------------------------------------

 Structure from the checkpoint file:  "/scratch/puck/g09_26e84ffb-3985-42a9-892a-e7be5838c71a/Gau-78877.chk"
 -----
 titel
 -----
 Charge =  0 Multiplicity = 1

                         Standard orientation:
 ---------------------------------------------------------------------
 Center     Atomic      Atomic             Coordinates (Angstroms)
 Number     Number       Type             X           Y           Z
 ---------------------------------------------------------------------
      1          6           0       -2.436215   -0.706177    0.167552
      2          6           0       -1.023721   -0.490165   -0.370276
      3          6           0        0.014191   -1.543489    0.117220
      4          6           0        1.423580   -0.942534    0.092600
      5          6           0        1.553343    0.257902    1.053294
      6          6           0        1.010383    1.020542   -0.178089
      7          8           0        1.515575   -0.027897   -1.045960
      8          6           0       -0.512170    0.935234   -0.125996
      9          8           0       -1.220585    1.884321    0.108715
     10          1           0       -2.815014   -1.691361   -0.121312
     11          1           0       -2.453388   -0.643109    1.260769
     12          1           0       -3.115610    0.057529   -0.216777
     13          1           0       -1.043432   -0.563298   -1.466673
     14          1           0       -0.223305   -1.875285    1.135398
     15          1           0       -0.035198   -2.428615   -0.524527
     16          1           0        2.217068   -1.693684    0.082173
     17          1           0        0.965511    0.260577    1.974263
     18          1           0        2.591813    0.519208    1.261578
     19          1           0        1.375291    2.018765   -0.424768
 ---------------------------------------------------------------------

 SCF Done:  E(RB3LYP) =  -423.198929935     A.U. after    1 cycles

 The electronic state is 1-A.
 Alpha  occ. eigenvalues --  -19.14419 -19.13253 -10.26557 -10.24807 -10.24401
 Alpha  occ. eigenvalues --  -10.20268 -10.19997 -10.19570 -10.17794  -1.05735
 Alpha  occ. eigenvalues --   -1.03791  -0.81352  -0.75938  -0.73619  -0.68590
 Alpha  occ. eigenvalues --   -0.61467  -0.58112  -0.52724  -0.50766  -0.48364
 Alpha  occ. eigenvalues --   -0.46324  -0.44707  -0.43488  -0.41924  -0.40757
 Alpha  occ. eigenvalues --   -0.39034  -0.37669  -0.37011  -0.35565  -0.33920
 Alpha  occ. eigenvalues --   -0.32149  -0.31944  -0.28321  -0.22753
 Alpha virt. eigenvalues --   -0.01842   0.07092   0.10450   0.10692   0.11226
 Alpha virt. eigenvalues --    0.12332   0.14049   0.14755   0.16068   0.16875
 Alpha virt. eigenvalues --    0.17474   0.18105   0.18967   0.21114   0.21829

 Mulliken charges:
               1
     1  C   -0.405665
     2  C   -0.068820
     3  C   -0.246328
     4  C    0.088318
     5  C   -0.250089
     6  C   -0.012297
     7  O   -0.294334
     8  C    0.387993
     9  O   -0.324134
    10  H    0.111323
    11  H    0.118356
    12  H    0.137542
    13  H    0.122861
    14  H    0.106589
    15  H    0.111285
    16  H    0.084902
    17  H    0.112948
    18  H    0.120216
    19  H    0.099334
 Sum of Mulliken charges =   0.00000

 Dipole moment (field-independent basis, Debye):
    X=              1.0374    Y=             -2.2528    Z=              1.0992  Tot=              2.7128
 Quadrupole moment (field-independent basis, Debye-Ang):
   XX=            -54.2938   YY=            -55.3458   ZZ=            -53.4354
   XY=              3.9384   XZ=              3.8060   YZ=             -0.7255

  Exact polarizability:  81.855  -0.767  78.113   1.510   0.506  61.936
 Approx polarizability: 109.321  -8.166 117.487  -1.906   2.043 100.371

                      1                      2                      3
                      A                      A                      A
 Frequencies --     75.8208               175.2094               200.0534
 Red. masses --      3.4430                 3.3162                 1.0742
 Frc consts  --      0.0117                 0.0600                 0.0253
 IR Inten    --      1.8303                 3.1797                 0.2174

                      4                      5                      6
                      A                      A                      A
 Frequencies --    271.5379               358.5729               364.1353
 Red. masses --      3.1000                 2.1599                 2.2833
 Frc consts  --      0.1347                 0.1636                 0.1784
 IR Inten    --      3.4102                 1.0619                 1.7145

                      7                      8                      9
                      A                      A                      A
 Frequencies --    379.3958               462.2446               520.8518
 Red. masses --      4.7923                 6.6129                 5.3028
 Frc consts  --      0.4064                 0.8325                 0.8476
 IR Inten    --     13.9367                 1.5475                 1.3865

                     10                     11                     12
                      A                      A                      A
 Frequencies --    606.8723               654.6461               736.1642
 Red. masses --      3.2319                 4.1302                 2.9315
 Frc consts  --      0.7013                 1.0429                 0.9360
 IR Inten    --      4.8067                 5.0306                 3.0034

                     13                     14                     15
                      A                      A                      A
 Frequencies --    823.4413               861.5475               868.0088
 Red. masses --      2.5567                 2.1719                 2.4893
 Frc consts  --      1.0214                 0.9498                 1.1050
 IR Inten    --      7.9817                 8.9809                18.2067

                     16                     17                     18
                      A                      A                      A
 Frequencies --    905.8073               942.4918               945.6431
 Red. masses --      2.2696                 2.2400                 2.4203
 Frc consts  --      1.0972                 1.1723                 1.2752
 IR Inten    --      8.0661                 9.6308                11.9804

                     19                     20                     21
                      A                      A                      A
 Frequencies --    974.6999               998.5824              1037.9236
 Red. masses --      2.3371                 1.8810                 1.7342
 Frc consts  --      1.3082                 1.1051                 1.1007
 IR Inten    --     23.3374                30.6712                 7.0429

                     22                     23                     24
                      A                      A                      A
 Frequencies --   1074.5124              1101.0551              1121.9836
 Red. masses --      1.8626                 1.8254                 2.2321
 Frc consts  --      1.2670                 1.3039                 1.6556
 IR Inten    --      1.2981                 1.2111                 2.5208

                     25                     26                     27
                      A                      A                      A
 Frequencies --   1147.1081              1166.1105              1202.5406
 Red. masses --      1.7645                 1.5270                 1.9312
 Frc consts  --      1.3680                 1.2234                 1.6454
 IR Inten    --      3.1502                 5.9657                25.2598

                     28                     29                     30
                      A                      A                      A
 Frequencies --   1224.1232              1251.9632              1290.1824
 Red. masses --      1.4495                 1.3611                 1.4636
 Frc consts  --      1.2797                 1.2570                 1.4354
 IR Inten    --      0.7212                 2.4080                 1.1037

                     31                     32                     33
                      A                      A                      A
 Frequencies --   1297.5505              1310.6063              1332.7979
 Red. masses --      1.4672                 1.5087                 1.4356
 Frc consts  --      1.4555                 1.5269                 1.5025
 IR Inten    --      5.5315                 4.0301                 1.4240

                     34                     35                     36
                      A                      A                      A
 Frequencies --   1344.9000              1371.1016              1411.8935
 Red. masses --      1.7911                 1.5368                 1.2250
 Frc consts  --      1.9087                 1.7022                 1.4387
 IR Inten    --      2.1067                 6.8072                 3.2955

                     37                     38                     39
                      A                      A                      A
 Frequencies --   1484.2565              1490.4409              1497.6278
 Red. masses --      1.1077                 1.0562                 1.0530
 Frc consts  --      1.4377                 1.3824                 1.3916
 IR Inten    --      3.8704                 3.4589                 3.6253

                     40                     41                     42
                      A                      A                      A
 Frequencies --   1498.6666              1824.5819              3014.8366
 Red. masses --      1.0883                12.2828                 1.0808
 Frc consts  --      1.4402                24.0921                 5.7880
 IR Inten    --      7.8266               170.0175                 3.3955

                     43                     44                     45
                      A                      A                      A
 Frequencies --   3034.2997              3041.2181              3069.0968
 Red. masses --      1.0594                 1.0387                 1.0620
 Frc consts  --      5.7468                 5.6602                 5.8938
 IR Inten    --     13.4700                33.0845                13.2520

                     46                     47                     48
                      A                      A                      A
 Frequencies --   3078.8208              3086.5614              3105.1332
 Red. masses --      1.0941                 1.0932                 1.1014
 Frc consts  --      6.1105                 6.1362                 6.2567
 IR Inten    --     29.0436                51.3952                26.8504

                     49                     50                     51
                      A                      A                      A
 Frequencies --   3110.5316              3131.0167              3135.6132
 Red. masses --      1.0906                 1.1002                 1.1082
 Frc consts  --      6.2172                 6.3547                 6.4198
 IR Inten    --     22.5948                12.7234                18.2792

 - Thermochemistry -
 -------------------
 Temperature   298.150 Kelvin.  Pressure   1.00000 Atm.
 Atom     1 has atomic number  6 and mass  12.00000

 Molecular mass:   126.06808 amu.
 Principal axes and moments of inertia in atomic units:
                           1         2         3
     Eigenvalues --   689.528981064.280131433.78151
           X            0.99695   0.07582   0.01857
           Y           -0.07575   0.99712  -0.00443
           Z           -0.01886   0.00301   0.99982
 This molecule is an asymmetric top.
 Rotational symmetry number  1.
 Warning -- assumption of classical behavior for rotation
           may cause significant error
 Rotational temperatures (Kelvin)      0.12561     0.08138     0.06041
 Rotational constants (GHZ):           2.61735     1.69574     1.25873
 Zero-point vibrational energy     421173.9 (Joules/Mol)
                                  100.66298 (Kcal/Mol)
 Warning -- explicit consideration of  10 degrees of freedom as
           vibrations may cause significant error
 Vibrational temperatures:    109.09   252.09   287.83   390.68   515.91
          (Kelvin)            523.91   545.87   665.07   749.39   873.15
                              941.89  1059.17  1184.75  1239.57  1248.87
                             1303.25  1356.03  1360.57  1402.37  1436.74
                             1493.34  1545.98  1584.17  1614.28  1650.43
                             1677.77  1730.19  1761.24  1801.29  1856.28
                             1866.88  1885.67  1917.60  1935.01  1972.71
                             2031.40  2135.51  2144.41  2154.75  2156.24
                             2625.16  4337.67  4365.67  4375.63  4415.74
                             4429.73  4440.87  4467.59  4475.36  4504.83
                             4511.44

 Zero-point correction=                           0.160417 (Hartree/Particle)
 Thermal correction to Energy=                    0.168227
 Thermal correction to Enthalpy=                  0.169171
 Thermal correction to Gibbs Free Energy=         0.128104
 Sum of electronic and zero-point Energies=           -423.038513
 Sum of electronic and thermal Energies=              -423.030703
 Sum of electronic and thermal Enthalpies=            -423.029759
 Sum of electronic and thermal Free Energies=         -423.070826

                     E (Thermal)             CV                S
                      KCal/Mol        Cal/Mol-Kelvin    Cal/Mol-Kelvin
 Total                  105.564             30.565             86.433
 Electronic               0.000              0.000              0.000
 Translational            0.889              2.981             40.409
 Rotational               0.889              2.981             28.444
 Vibrational            103.786             24.604             17.580
 Vibration     1          0.599              1.965              3.996
 Vibration     2          0.627              1.873              2.379
 Vibration     3          0.638              1.840              2.133
 Vibration     4          0.675              1.726              1.586
 Vibration     5          0.733              1.558              1.128
 Vibration     6          0.738              1.546              1.104
 Vibration     7          0.749              1.514              1.042
 Vibration     8          0.820              1.334              0.760
 Vibration     9          0.876              1.204              0.608
 Vibration    10          0.966              1.017              0.438

 Optimization completed.
    -- Stationary point found.
 Normal termination of Gaussian 09 at Tue Jan 28 03:49:58 2020.
