 Gaussian 09, Revision D.01,
 Gaussian 09:  ES64L-G09RevD.01 24-Apr-2013

 -----------------------------
 # b3lyp 6-31G(2df,p) opt Freq
 -----------------------------

 -----
 titel
 -----
 Symbolic Z-matrix:
 Charge =  0 Multiplicity = 1

 SCF Done:  E(RB3LYP) =  -423.117645590     A.U. after   14 cycles
 Optimization completed.
    -- Stationary point found.
 Normal termination of Gaussian 09 at Tue Jan 28 08:12:15 2020.

 ----------------------------------------------------------------------
 #N Geom=AllCheck Guess=TCheck SCRF=Check GenChk RB3LYP/6-31G(2df,p) Fr
 eq
 ----------------------------------------------------------------------

 Structure from the checkpoint file:  "/scratch/puck/g09_314ab0db-d826-47a6-a7dd-5cad914812ff/Gau-101896.chk"
 -----
 titel
 -----
 Charge =  0 Multiplicity = 1

                         Standard orientation:
 ---------------------------------------------------------------------
 Center     Atomic      Atomic             Coordinates (Angstroms)
 Number     Number       Type             X           Y           Z
 ---------------------------------------------------------------------
      1          6           0        1.514524    2.035733    0.153751
      2          8           0        1.825940    0.867615   -0.587150
      3          6           0        1.178541   -0.284086   -0.126427
      4          6           0        1.959302   -1.553690   -0.354645
      5          6           0        1.823696   -1.013776    1.044984
      6          6           0       -0.256536   -0.299074   -0.255226
      7          6           0       -1.456411   -0.274313   -0.380902
      8          6           0       -2.913726   -0.267087   -0.481939
      9          8           0       -3.564525    0.363427    0.613777
     10          1           0        1.806677    1.933461    1.208712
     11          1           0        2.081076    2.852624   -0.298073
     12          1           0        0.442984    2.268480    0.106500
     13          1           0        1.406103   -2.443594   -0.628688
     14          1           0        2.912139   -1.422958   -0.854040
     15          1           0        1.179493   -1.531406    1.745724
     16          1           0        2.690601   -0.528994    1.479425
     17          1           0       -3.225269    0.290552   -1.372213
     18          1           0       -3.269461   -1.301347   -0.617960
     19          1           0       -3.212000   -0.027398    1.420017
 ---------------------------------------------------------------------

 SCF Done:  E(RB3LYP) =  -423.117645590     A.U. after    1 cycles

 The electronic state is 1-A.
 Alpha  occ. eigenvalues --  -19.14837 -19.14062 -10.26160 -10.25253 -10.22203
 Alpha  occ. eigenvalues --  -10.19532 -10.19471 -10.18156 -10.17852  -1.04391
 Alpha  occ. eigenvalues --   -1.02229  -0.86153  -0.76723  -0.70282  -0.68911
 Alpha  occ. eigenvalues --   -0.61347  -0.61037  -0.53479  -0.52012  -0.49646
 Alpha  occ. eigenvalues --   -0.47156  -0.44922  -0.44395  -0.43772  -0.43342
 Alpha  occ. eigenvalues --   -0.37625  -0.35826  -0.35538  -0.33173  -0.31420
 Alpha  occ. eigenvalues --   -0.28598  -0.26801  -0.25994  -0.24044
 Alpha virt. eigenvalues --    0.02793   0.03765   0.09781   0.10396   0.11028
 Alpha virt. eigenvalues --    0.12843   0.12970   0.14237   0.15372   0.16812
 Alpha virt. eigenvalues --    0.17491   0.18471   0.18963   0.19275   0.22453

 Mulliken charges:
               1
     1  C   -0.252294
     2  O   -0.264339
     3  C    0.256626
     4  C   -0.311322
     5  C   -0.315979
     6  C    0.087357
     7  C   -0.013933
     8  C   -0.196367
     9  O   -0.401812
    10  H    0.105192
    11  H    0.127617
    12  H    0.124816
    13  H    0.126456
    14  H    0.132866
    15  H    0.122005
    16  H    0.125909
    17  H    0.142798
    18  H    0.118628
    19  H    0.285775
 Sum of Mulliken charges =   0.00000

 Dipole moment (field-independent basis, Debye):
    X=              0.6638    Y=             -1.0484    Z=              1.1716  Tot=              1.7066
 Quadrupole moment (field-independent basis, Debye-Ang):
   XX=            -56.5688   YY=            -50.5132   ZZ=            -51.2598
   XY=              3.8774   XZ=              2.2415   YZ=              0.0995

  Exact polarizability: 109.122  -2.195  73.669   4.407   0.683  64.828
 Approx polarizability: 155.951  -4.983  99.425   5.583   0.179  97.298

                      1                      2                      3
                      A                      A                      A
 Frequencies --     31.9188                76.0896                97.5189
 Red. masses --      3.1594                 3.5091                 3.1039
 Frc consts  --      0.0019                 0.0120                 0.0174
 IR Inten    --      1.4204                 1.7628                 0.9747

                      4                      5                      6
                      A                      A                      A
 Frequencies --    128.3895               199.2593               214.4542
 Red. masses --      2.6417                 1.2785                 2.3760
 Frc consts  --      0.0257                 0.0299                 0.0644
 IR Inten    --      1.7930                 0.7332                 5.1867

                      7                      8                      9
                      A                      A                      A
 Frequencies --    247.2484               274.4360               322.2642
 Red. masses --      2.5334                 1.8362                 2.0934
 Frc consts  --      0.0912                 0.0815                 0.1281
 IR Inten    --      4.8731                52.6441                60.5567

                     10                     11                     12
                      A                      A                      A
 Frequencies --    357.9505               423.2771               514.5193
 Red. masses --      2.8102                 3.7668                 4.5934
 Frc consts  --      0.2121                 0.3976                 0.7165
 IR Inten    --     17.5363                 7.8358                 9.2402

                     13                     14                     15
                      A                      A                      A
 Frequencies --    555.0648               583.7465               650.3031
 Red. masses --      6.5877                 4.3700                 4.8011
 Frc consts  --      1.1958                 0.8774                 1.1963
 IR Inten    --      8.4418                 2.9354                 8.8515

                     16                     17                     18
                      A                      A                      A
 Frequencies --    772.5653               842.3566               900.0518
 Red. masses --      1.0778                 2.4847                 2.1574
 Frc consts  --      0.3790                 1.0388                 1.0297
 IR Inten    --      0.7981                 5.5996                11.2370

                     19                     20                     21
                      A                      A                      A
 Frequencies --    946.8746               953.7700               983.4202
 Red. masses --      1.8651                 2.9854                 1.7442
 Frc consts  --      0.9852                 1.6001                 0.9939
 IR Inten    --      6.9754                 5.2993                45.3209

                     22                     23                     24
                      A                      A                      A
 Frequencies --   1026.0607              1051.6458              1078.5100
 Red. masses --      4.1911                 1.3698                 3.1195
 Frc consts  --      2.5997                 0.8926                 2.1379
 IR Inten    --     55.1144                 1.3833                23.7188

                     25                     26                     27
                      A                      A                      A
 Frequencies --   1081.3490              1104.8770              1184.9852
 Red. masses --      1.4469                 5.6929                 1.2842
 Frc consts  --      0.9968                 4.0946                 1.0625
 IR Inten    --     10.7805                88.6319                 2.6885

                     28                     29                     30
                      A                      A                      A
 Frequencies --   1194.0540              1215.5767              1220.5503
 Red. masses --      1.2819                 1.0875                 1.4835
 Frc consts  --      1.0768                 0.9467                 1.3021
 IR Inten    --      0.0422                15.3639                 2.6204

                     31                     32                     33
                      A                      A                      A
 Frequencies --   1266.1074              1333.0263              1355.9487
 Red. masses --      3.6034                 3.4342                 1.2237
 Frc consts  --      3.4033                 3.5954                 1.3256
 IR Inten    --    126.8180                27.2262                 5.3454

                     34                     35                     36
                      A                      A                      A
 Frequencies --   1417.6220              1448.0830              1473.8008
 Red. masses --      1.2428                 1.0910                 1.1827
 Frc consts  --      1.4715                 1.3479                 1.5136
 IR Inten    --    106.3932                 2.1884                 2.6084

                     37                     38                     39
                      A                      A                      A
 Frequencies --   1482.9641              1486.3047              1487.5910
 Red. masses --      1.2551                 1.0916                 1.0811
 Frc consts  --      1.6262                 1.4208                 1.4096
 IR Inten    --      5.0136                 1.5725                 1.0142

                     40                     41                     42
                      A                      A                      A
 Frequencies --   1510.4825              2342.9153              2973.7088
 Red. masses --      1.0511                11.9055                 1.0715
 Frc consts  --      1.4129                38.5044                 5.5825
 IR Inten    --      7.3076                13.4721                48.4196

                     43                     44                     45
                      A                      A                      A
 Frequencies --   2996.4238              3057.2557              3062.6819
 Red. masses --      1.0369                 1.1007                 1.0880
 Frc consts  --      5.4852                 6.0618                 6.0127
 IR Inten    --     45.9838                34.8913                17.3144

                     46                     47                     48
                      A                      A                      A
 Frequencies --   3125.7652              3140.6420              3147.3842
 Red. masses --      1.0992                 1.0516                 1.0559
 Frc consts  --      6.3278                 6.1114                 6.1628
 IR Inten    --     25.8197                 9.1556                 4.8336

                     49                     50                     51
                      A                      A                      A
 Frequencies --   3229.9516              3245.3543              3816.9301
 Red. masses --      1.1194                 1.1171                 1.0663
 Frc consts  --      6.8807                 6.9319                 9.1525
 IR Inten    --      1.1747                 6.7721                18.1648

 - Thermochemistry -
 -------------------
 Temperature   298.150 Kelvin.  Pressure   1.00000 Atm.
 Atom     1 has atomic number  6 and mass  12.00000

 Molecular mass:   126.06808 amu.
 Principal axes and moments of inertia in atomic units:
                           1         2         3
     Eigenvalues --   652.590062205.951602543.52225
           X            0.99991   0.00671   0.01169
           Y           -0.00688   0.99986   0.01497
           Z           -0.01159  -0.01504   0.99982
 This molecule is an asymmetric top.
 Rotational symmetry number  1.
 Warning -- assumption of classical behavior for rotation
           may cause significant error
 Rotational temperatures (Kelvin)      0.13272     0.03926     0.03405
 Rotational constants (GHZ):           2.76551     0.81812     0.70954
 Zero-point vibrational energy     410522.7 (Joules/Mol)
                                   98.11727 (Kcal/Mol)
 Warning -- explicit consideration of  14 degrees of freedom as
           vibrations may cause significant error
 Vibrational temperatures:     45.92   109.48   140.31   184.72   286.69
          (Kelvin)            308.55   355.73   394.85   463.67   515.01
                              609.00   740.28   798.61   839.88   935.64
                             1111.55  1211.96  1294.97  1362.34  1372.26
                             1414.92  1476.27  1513.08  1551.73  1555.82
                             1589.67  1704.93  1717.98  1748.94  1756.10
                             1821.64  1917.93  1950.91  2039.64  2083.47
                             2120.47  2133.65  2138.46  2140.31  2173.24
                             3370.93  4278.50  4311.18  4398.70  4406.51
                             4497.27  4518.68  4528.38  4647.17  4669.34
                             5491.70

 Zero-point correction=                           0.156360 (Hartree/Particle)
 Thermal correction to Energy=                    0.166663
 Thermal correction to Enthalpy=                  0.167607
 Thermal correction to Gibbs Free Energy=         0.119807
 Sum of electronic and zero-point Energies=           -422.961286
 Sum of electronic and thermal Energies=              -422.950982
 Sum of electronic and thermal Enthalpies=            -422.950038
 Sum of electronic and thermal Free Energies=         -422.997839

                     E (Thermal)             CV                S
                      KCal/Mol        Cal/Mol-Kelvin    Cal/Mol-Kelvin
 Total                  104.583             36.289            100.605
 Electronic               0.000              0.000              0.000
 Translational            0.889              2.981             40.409
 Rotational               0.889              2.981             29.683
 Vibrational            102.805             30.328             30.514
 Vibration     1          0.594              1.983              5.706
 Vibration     2          0.599              1.965              3.989
 Vibration     3          0.603              1.951              3.503
 Vibration     4          0.611              1.925              2.970
 Vibration     5          0.637              1.841              2.140
 Vibration     6          0.644              1.819              2.005
 Vibration     7          0.661              1.767              1.750
 Vibration     8          0.677              1.721              1.568
 Vibration     9          0.707              1.631              1.299
 Vibration    10          0.733              1.559              1.131
 Vibration    11          0.785              1.420              0.881
 Vibration    12          0.870              1.218              0.623
 Vibration    13          0.911              1.129              0.534
 Vibration    14          0.941              1.066              0.478

 Optimization completed.
    -- Stationary point found.
 Normal termination of Gaussian 09 at Tue Jan 28 08:47:30 2020.
