 Gaussian 09, Revision D.01,
 Gaussian 09:  ES64L-G09RevD.01 24-Apr-2013

 -----------------------------
 # b3lyp 6-31G(2df,p) opt Freq
 -----------------------------

 -----
 titel
 -----
 Symbolic Z-matrix:
 Charge =  0 Multiplicity = 1

 SCF Done:  E(RB3LYP) =  -423.181627272     A.U. after   13 cycles
 Optimization completed.
    -- Stationary point found.
 Normal termination of Gaussian 09 at Mon Jan 27 12:22:54 2020.

 ----------------------------------------------------------------------
 #N Geom=AllCheck Guess=TCheck SCRF=Check GenChk RB3LYP/6-31G(2df,p) Fr
 eq
 ----------------------------------------------------------------------

 Structure from the checkpoint file:  "/scratch/puck/g09_b1d15a78-1a0d-461f-831e-9b24694fcb51/Gau-165727.chk"
 -----
 titel
 -----
 Charge =  0 Multiplicity = 1

                         Standard orientation:
 ---------------------------------------------------------------------
 Center     Atomic      Atomic             Coordinates (Angstroms)
 Number     Number       Type             X           Y           Z
 ---------------------------------------------------------------------
      1          6           0       -1.887673   -0.844948   -0.559461
      2          8           0       -2.259670    0.135512    0.411177
      3          6           0       -1.297730    1.186906    0.388578
      4          6           0       -0.000001    0.520086    0.000005
      5          6           0        1.297727    1.186905   -0.388578
      6          8           0        2.259660    0.135505   -0.411196
      7          6           0        1.887680   -0.844935    0.559465
      8          6           0        0.373189   -0.791360    0.654608
      9          6           0       -0.373185   -0.791364   -0.654597
     10          1           0       -2.290061   -1.803131   -0.213943
     11          1           0       -2.331021   -0.618813   -1.542702
     12          1           0       -1.569172    1.963925   -0.346405
     13          1           0       -1.293462    1.644424    1.384004
     14          1           0        1.293451    1.644433   -1.384000
     15          1           0        1.569182    1.963915    0.346410
     16          1           0        2.290075   -1.803123    0.213968
     17          1           0        2.331028   -0.618772    1.542699
     18          1           0       -0.117307   -1.134367    1.559539
     19          1           0        0.117320   -1.134366   -1.559526
 ---------------------------------------------------------------------

 SCF Done:  E(RB3LYP) =  -423.181627272     A.U. after    1 cycles

 The electronic state is 1-A.
 Alpha  occ. eigenvalues --  -19.13953 -19.13953 -10.23275 -10.23275 -10.23037
 Alpha  occ. eigenvalues --  -10.23037 -10.19821 -10.19311 -10.19286  -1.04167
 Alpha  occ. eigenvalues --   -1.03291  -0.86519  -0.75116  -0.72936  -0.66396
 Alpha  occ. eigenvalues --   -0.63026  -0.56485  -0.56034  -0.51853  -0.48152
 Alpha  occ. eigenvalues --   -0.47889  -0.44601  -0.44002  -0.43545  -0.41657
 Alpha  occ. eigenvalues --   -0.40765  -0.38923  -0.37290  -0.32309  -0.31830
 Alpha  occ. eigenvalues --   -0.28387  -0.27870  -0.25415  -0.25246
 Alpha virt. eigenvalues --    0.09419   0.10089   0.11035   0.11274   0.12987
 Alpha virt. eigenvalues --    0.13333   0.14129   0.15384   0.15728   0.16349
 Alpha virt. eigenvalues --    0.17529   0.17807   0.18743   0.20201   0.22018

 Mulliken charges:
               1
     1  C   -0.104886
     2  O   -0.257762
     3  C   -0.183137
     4  C    0.316730
     5  C   -0.183138
     6  O   -0.257760
     7  C   -0.104887
     8  C   -0.114238
     9  C   -0.114237
    10  H    0.109882
    11  H    0.093750
    12  H    0.091417
    13  H    0.109454
    14  H    0.109454
    15  H    0.091417
    16  H    0.109883
    17  H    0.093750
    18  H    0.097153
    19  H    0.097154
 Sum of Mulliken charges =   0.00000

 Dipole moment (field-independent basis, Debye):
    X=              0.0000    Y=              0.0178    Z=              0.0000  Tot=              0.0178
 Quadrupole moment (field-independent basis, Debye-Ang):
   XX=            -61.7082   YY=            -49.4151   ZZ=            -51.6801
   XY=              0.0000   XZ=              4.0343   YZ=              0.0000

  Exact polarizability:  78.541   0.000  77.199   4.480   0.000  67.653
 Approx polarizability: 104.136   0.000 114.142   3.082   0.000 105.454

                      1                      2                      3
                      A                      A                      A
 Frequencies --    181.0263               206.5297               238.0441
 Red. masses --      5.2310                 2.9819                 2.3524
 Frc consts  --      0.1010                 0.0749                 0.0785
 IR Inten    --      8.8751                 4.0084                 0.4304

                      4                      5                      6
                      A                      A                      A
 Frequencies --    281.4287               319.8603               376.4793
 Red. masses --      1.9122                 2.3866                 2.0037
 Frc consts  --      0.0892                 0.1439                 0.1673
 IR Inten    --      4.7589                 0.0867                 0.5762

                      7                      8                      9
                      A                      A                      A
 Frequencies --    451.3326               641.9178               705.4658
 Red. masses --      5.3415                 4.3520                 3.4378
 Frc consts  --      0.6411                 1.0566                 1.0081
 IR Inten    --      0.7511                 0.5660                 0.5714

                     10                     11                     12
                      A                      A                      A
 Frequencies --    737.2848               788.0033               865.0775
 Red. masses --      5.4814                 4.4432                 3.6691
 Frc consts  --      1.7556                 1.6255                 1.6178
 IR Inten    --     20.6615                 1.1502                 1.8084

                     13                     14                     15
                      A                      A                      A
 Frequencies --    890.2822               927.2120               937.6751
 Red. masses --      2.4930                 3.6375                 3.1462
 Frc consts  --      1.1642                 1.8425                 1.6298
 IR Inten    --      0.5953                39.3765                 0.1166

                     16                     17                     18
                      A                      A                      A
 Frequencies --    952.6094               996.4125              1001.4002
 Red. masses --      1.3817                 1.8060                 1.5762
 Frc consts  --      0.7387                 1.0565                 0.9313
 IR Inten    --      1.4496                18.4212                 1.0178

                     19                     20                     21
                      A                      A                      A
 Frequencies --   1044.2590              1071.5754              1072.3086
 Red. masses --      1.4613                 1.5156                 4.8258
 Frc consts  --      0.9389                 1.0254                 3.2694
 IR Inten    --      4.4299                11.7729                17.2410

                     22                     23                     24
                      A                      A                      A
 Frequencies --   1102.9848              1104.5558              1123.9112
 Red. masses --      4.4505                 2.2843                 2.3985
 Frc consts  --      3.1901                 1.6420                 1.7851
 IR Inten    --     91.4945                21.9616                 1.5405

                     25                     26                     27
                      A                      A                      A
 Frequencies --   1131.4559              1211.1695              1211.4231
 Red. masses --      2.0563                 1.4442                 1.1292
 Frc consts  --      1.5510                 1.2482                 0.9764
 IR Inten    --      8.6416                 3.0635                14.1231

                     28                     29                     30
                      A                      A                      A
 Frequencies --   1233.2697              1241.7303              1258.5664
 Red. masses --      1.3088                 1.3177                 1.3406
 Frc consts  --      1.1728                 1.1971                 1.2511
 IR Inten    --     10.8267                11.2949                 1.4750

                     31                     32                     33
                      A                      A                      A
 Frequencies --   1277.1526              1288.7462              1352.2623
 Red. masses --      1.9822                 1.4641                 1.2561
 Frc consts  --      1.9049                 1.4327                 1.3533
 IR Inten    --      1.4527                 4.9292                 0.0844

                     34                     35                     36
                      A                      A                      A
 Frequencies --   1370.2662              1371.6328              1406.8755
 Red. masses --      1.4444                 2.1888                 1.8221
 Frc consts  --      1.5979                 2.4262                 2.1248
 IR Inten    --      6.7081                 0.0008                21.1875

                     37                     38                     39
                      A                      A                      A
 Frequencies --   1451.3439              1511.1290              1512.9747
 Red. masses --      2.0050                 1.0867                 1.0860
 Frc consts  --      2.4883                 1.4621                 1.4647
 IR Inten    --      0.6549                 0.2728                 0.9468

                     40                     41                     42
                      A                      A                      A
 Frequencies --   1521.7113              1525.6271              2956.1514
 Red. masses --      1.0972                 1.0937                 1.0693
 Frc consts  --      1.4970                 1.4998                 5.5055
 IR Inten    --      0.0411                 0.0017                10.2767

                     43                     44                     45
                      A                      A                      A
 Frequencies --   2960.0306              2975.3630              2976.2343
 Red. masses --      1.0720                 1.0704                 1.0709
 Frc consts  --      5.5339                 5.5830                 5.5892
 IR Inten    --    139.3779               168.1405                 0.3293

                     46                     47                     48
                      A                      A                      A
 Frequencies --   3060.3308              3060.8932              3065.9499
 Red. masses --      1.0901                 1.0912                 1.0936
 Frc consts  --      6.0153                 6.0237                 6.0569
 IR Inten    --     33.9797                40.6405                33.9091

                     49                     50                     51
                      A                      A                      A
 Frequencies --   3066.2922              3168.7921              3171.2440
 Red. masses --      1.0932                 1.0938                 1.0873
 Frc consts  --      6.0560                 6.4712                 6.4426
 IR Inten    --     38.8044                 4.1740                13.1940

 - Thermochemistry -
 -------------------
 Temperature   298.150 Kelvin.  Pressure   1.00000 Atm.
 Atom     1 has atomic number  6 and mass  12.00000

 Molecular mass:   126.06808 amu.
 Principal axes and moments of inertia in atomic units:
                           1         2         3
     Eigenvalues --   477.008861297.127891483.98903
           X            0.99983   0.00000   0.01866
           Y            0.00000   1.00000   0.00000
           Z           -0.01866   0.00000   0.99983
 This molecule is an asymmetric top.
 Rotational symmetry number  1.
 Warning -- assumption of classical behavior for rotation
           may cause significant error
 Rotational temperatures (Kelvin)      0.18158     0.06677     0.05837
 Rotational constants (GHZ):           3.78345     1.39134     1.21614
 Zero-point vibrational energy     426805.2 (Joules/Mol)
                                  102.00889 (Kcal/Mol)
 Warning -- explicit consideration of   7 degrees of freedom as
           vibrations may cause significant error
 Vibrational temperatures:    260.46   297.15   342.49   404.91   460.21
          (Kelvin)            541.67   649.37   923.58  1015.01  1060.79
                             1133.76  1244.65  1280.92  1334.05  1349.10
                             1370.59  1433.61  1440.79  1502.45  1541.76
                             1542.81  1586.95  1589.21  1617.06  1627.91
                             1742.60  1742.97  1774.40  1786.57  1810.79
                             1837.54  1854.22  1945.60  1971.51  1973.47
                             2024.18  2088.16  2174.17  2176.83  2189.40
                             2195.03  4253.24  4258.82  4280.88  4282.13
                             4403.13  4403.94  4411.21  4411.71  4559.18
                             4562.71

 Zero-point correction=                           0.162562 (Hartree/Particle)
 Thermal correction to Energy=                    0.169571
 Thermal correction to Enthalpy=                  0.170515
 Thermal correction to Gibbs Free Energy=         0.131338
 Sum of electronic and zero-point Energies=           -423.019066
 Sum of electronic and thermal Energies=              -423.012056
 Sum of electronic and thermal Enthalpies=            -423.011112
 Sum of electronic and thermal Free Energies=         -423.050289

                     E (Thermal)             CV                S
                      KCal/Mol        Cal/Mol-Kelvin    Cal/Mol-Kelvin
 Total                  106.408             28.105             82.456
 Electronic               0.000              0.000              0.000
 Translational            0.889              2.981             40.409
 Rotational               0.889              2.981             28.309
 Vibrational            104.630             22.143             13.738
 Vibration     1          0.630              1.866              2.318
 Vibration     2          0.641              1.831              2.074
 Vibration     3          0.656              1.782              1.817
 Vibration     4          0.681              1.708              1.525
 Vibration     5          0.706              1.636              1.311
 Vibration     6          0.747              1.520              1.053
 Vibration     7          0.810              1.358              0.792

 Optimization completed.
    -- Stationary point found.
 Normal termination of Gaussian 09 at Mon Jan 27 13:12:08 2020.
