 Gaussian 09, Revision D.01,
 Gaussian 09:  ES64L-G09RevD.01 24-Apr-2013

 -----------------------------
 # b3lyp 6-31G(2df,p) opt Freq
 -----------------------------

 -----
 titel
 -----
 Symbolic Z-matrix:
 Charge =  0 Multiplicity = 1

 SCF Done:  E(RB3LYP) =  -423.146994287     A.U. after   13 cycles
 Optimization completed.
    -- Stationary point found.
 Normal termination of Gaussian 09 at Mon Jan 27 11:19:10 2020.

 ----------------------------------------------------------------------
 #N Geom=AllCheck Guess=TCheck SCRF=Check GenChk RB3LYP/6-31G(2df,p) Fr
 eq
 ----------------------------------------------------------------------

 Structure from the checkpoint file:  "/scratch/puck/g09_26cd500a-f397-47b2-92f0-1fd592f3bb70/Gau-164697.chk"
 -----
 titel
 -----
 Charge =  0 Multiplicity = 1

                         Standard orientation:
 ---------------------------------------------------------------------
 Center     Atomic      Atomic             Coordinates (Angstroms)
 Number     Number       Type             X           Y           Z
 ---------------------------------------------------------------------
      1          6           0       -0.661287    1.477972   -0.689326
      2          6           0       -1.095287    0.013731   -0.830702
      3          8           0       -2.003015   -0.694134    0.047432
      4          6           0       -0.615083   -0.676293    0.370668
      5          6           0       -0.207990    0.399447    1.376223
      6          6           0        0.482788    1.324168    0.357735
      7          6           0        1.719850    0.511088   -0.132162
      8          8           0        1.491889   -0.829346   -0.595647
      9          6           0        0.512444   -1.636404    0.092467
     10          1           0       -0.327069    1.865148   -1.656209
     11          1           0       -1.444716    2.143863   -0.312191
     12          1           0       -1.003341   -0.456594   -1.805167
     13          1           0       -1.085736    0.856045    1.839293
     14          1           0        0.460209    0.030232    2.159114
     15          1           0        0.846956    2.278881    0.755996
     16          1           0        2.210722    1.008475   -0.975285
     17          1           0        2.435923    0.494266    0.705481
     18          1           0        0.242031   -2.438653   -0.598792
     19          1           0        0.941410   -2.076085    1.004063
 ---------------------------------------------------------------------

 SCF Done:  E(RB3LYP) =  -423.146994287     A.U. after    1 cycles

 The electronic state is 1-A.
 Alpha  occ. eigenvalues --  -19.15737 -19.14103 -10.23622 -10.23414 -10.23051
 Alpha  occ. eigenvalues --  -10.22571 -10.20032 -10.19226 -10.18461  -1.07137
 Alpha  occ. eigenvalues --   -1.02297  -0.83226  -0.75696  -0.72007  -0.65116
 Alpha  occ. eigenvalues --   -0.63475  -0.57315  -0.55381  -0.49997  -0.49481
 Alpha  occ. eigenvalues --   -0.46681  -0.45868  -0.43282  -0.41783  -0.41467
 Alpha  occ. eigenvalues --   -0.39065  -0.37689  -0.36400  -0.36119  -0.33084
 Alpha  occ. eigenvalues --   -0.30315  -0.27068  -0.26299  -0.24697
 Alpha virt. eigenvalues --    0.06871   0.08375   0.09069   0.11784   0.12262
 Alpha virt. eigenvalues --    0.13772   0.14204   0.15162   0.15832   0.16344
 Alpha virt. eigenvalues --    0.16996   0.18421   0.19938   0.20842   0.22248

 Mulliken charges:
               1
     1  C   -0.274436
     2  C    0.037172
     3  O   -0.302643
     4  C    0.332571
     5  C   -0.274652
     6  C   -0.027392
     7  C   -0.065900
     8  O   -0.272012
     9  C   -0.162817
    10  H    0.105915
    11  H    0.113071
    12  H    0.104339
    13  H    0.108777
    14  H    0.095153
    15  H    0.063791
    16  H    0.109769
    17  H    0.093836
    18  H    0.120784
    19  H    0.094674
 Sum of Mulliken charges =   0.00000

 Dipole moment (field-independent basis, Debye):
    X=              1.1456    Y=              1.2901    Z=              0.4489  Tot=              1.7828
 Quadrupole moment (field-independent basis, Debye-Ang):
   XX=            -59.4591   YY=            -50.8928   ZZ=            -51.5060
   XY=             -0.1759   XZ=              2.2456   YZ=             -0.9142

  Exact polarizability:  72.859   0.557  76.896   2.626  -1.911  70.447
 Approx polarizability: 109.625   2.820 110.462   1.977  -4.625 109.592

                      1                      2                      3
                      A                      A                      A
 Frequencies --    195.5966               251.5929               334.6511
 Red. masses --      2.9836                 3.0360                 2.3743
 Frc consts  --      0.0673                 0.1132                 0.1567
 IR Inten    --      5.0100                 3.9201                 1.1940

                      4                      5                      6
                      A                      A                      A
 Frequencies --    364.7088               395.7587               448.9073
 Red. masses --      2.4254                 2.2787                 4.6241
 Frc consts  --      0.1901                 0.2103                 0.5490
 IR Inten    --      0.8034                 5.3723                 3.1978

                      7                      8                      9
                      A                      A                      A
 Frequencies --    480.3035               566.7048               635.5872
 Red. masses --      2.8411                 3.2431                 4.5066
 Frc consts  --      0.3862                 0.6136                 1.0726
 IR Inten    --      0.9377                 5.2975                 5.9950

                     10                     11                     12
                      A                      A                      A
 Frequencies --    751.0267               769.3202               782.1767
 Red. masses --      4.2968                 3.9709                 3.1525
 Frc consts  --      1.4279                 1.3847                 1.1364
 IR Inten    --      0.8714                10.4636                 5.6423

                     13                     14                     15
                      A                      A                      A
 Frequencies --    838.3119               882.0792               920.0882
 Red. masses --      2.9849                 3.2763                 2.2982
 Frc consts  --      1.2359                 1.5019                 1.1463
 IR Inten    --     15.7319                15.9353                 5.1532

                     16                     17                     18
                      A                      A                      A
 Frequencies --    932.1944               947.3270               954.9276
 Red. masses --      2.0336                 1.9917                 2.1228
 Frc consts  --      1.0412                 1.0531                 1.1405
 IR Inten    --      0.0616                 9.2366                 1.8083

                     19                     20                     21
                      A                      A                      A
 Frequencies --    987.5424               998.2100              1016.4262
 Red. masses --      3.6427                 1.7324                 1.5759
 Frc consts  --      2.0931                 1.0171                 0.9592
 IR Inten    --     29.4627                 3.6412                 9.5776

                     22                     23                     24
                      A                      A                      A
 Frequencies --   1042.1625              1079.9836              1107.2159
 Red. masses --      2.5982                 1.8806                 2.5817
 Frc consts  --      1.6626                 1.2924                 1.8648
 IR Inten    --     68.6493                14.5584                 9.4430

                     25                     26                     27
                      A                      A                      A
 Frequencies --   1149.8363              1180.1921              1202.9086
 Red. masses --      1.3311                 1.3436                 1.3721
 Frc consts  --      1.0369                 1.1026                 1.1698
 IR Inten    --      7.9460                10.8887                 0.8291

                     28                     29                     30
                      A                      A                      A
 Frequencies --   1224.7255              1250.6514              1287.8893
 Red. masses --      1.6284                 1.6035                 1.6858
 Frc consts  --      1.4391                 1.4778                 1.6475
 IR Inten    --      1.3592                 7.1605                 7.5620

                     31                     32                     33
                      A                      A                      A
 Frequencies --   1291.0632              1322.0596              1336.1776
 Red. masses --      1.3103                 1.2726                 1.6640
 Frc consts  --      1.2868                 1.3105                 1.7504
 IR Inten    --      3.2069                 1.5963                 1.0182

                     34                     35                     36
                      A                      A                      A
 Frequencies --   1348.9205              1360.8850              1402.5477
 Red. masses --      1.4493                 1.3312                 1.2754
 Frc consts  --      1.5538                 1.4525                 1.4782
 IR Inten    --      0.1925                 0.9066                 5.8987

                     37                     38                     39
                      A                      A                      A
 Frequencies --   1449.6935              1472.6178              1492.5575
 Red. masses --      3.3908                 1.1243                 1.0950
 Frc consts  --      4.1986                 1.4365                 1.4372
 IR Inten    --     21.1235                 4.0637                 4.1433

                     40                     41                     42
                      A                      A                      A
 Frequencies --   1499.4354              1511.9030              2971.6980
 Red. masses --      1.0943                 1.0970                 1.0705
 Frc consts  --      1.4496                 1.4774                 5.5697
 IR Inten    --      1.5452                 1.6371                55.7133

                     43                     44                     45
                      A                      A                      A
 Frequencies --   3003.9310              3036.8819              3050.5735
 Red. masses --      1.0674                 1.0797                 1.0633
 Frc consts  --      5.6750                 5.8670                 5.8301
 IR Inten    --     68.9346                37.1758                42.3224

                     46                     47                     48
                      A                      A                      A
 Frequencies --   3063.2633              3070.6704              3097.7347
 Red. masses --      1.0620                 1.0925                 1.1040
 Frc consts  --      5.8714                 6.0695                 6.2419
 IR Inten    --     33.2291                32.5911                14.0853

                     49                     50                     51
                      A                      A                      A
 Frequencies --   3098.8727              3114.9667              3155.1720
 Red. masses --      1.0972                 1.1073                 1.0901
 Frc consts  --      6.2079                 6.3301                 6.3937
 IR Inten    --     21.0515                19.8971                19.2248

 - Thermochemistry -
 -------------------
 Temperature   298.150 Kelvin.  Pressure   1.00000 Atm.
 Atom     1 has atomic number  6 and mass  12.00000

 Molecular mass:   126.06808 amu.
 Principal axes and moments of inertia in atomic units:
                           1         2         3
     Eigenvalues --   706.85517 880.770881134.09029
           X            0.99941  -0.02480   0.02358
           Y            0.02508   0.99962  -0.01154
           Z           -0.02328   0.01212   0.99966
 This molecule is an asymmetric top.
 Rotational symmetry number  1.
 Warning -- assumption of classical behavior for rotation
           may cause significant error
 Rotational temperatures (Kelvin)      0.12253     0.09834     0.07637
 Rotational constants (GHZ):           2.55320     2.04905     1.59136
 Zero-point vibrational energy     425455.7 (Joules/Mol)
                                  101.68634 (Kcal/Mol)
 Warning -- explicit consideration of   8 degrees of freedom as
           vibrations may cause significant error
 Vibrational temperatures:    281.42   361.99   481.49   524.73   569.41
          (Kelvin)            645.88   691.05   815.36   914.47  1080.56
                             1106.88  1125.38  1206.14  1269.11  1323.80
                             1341.22  1362.99  1373.93  1420.85  1436.20
                             1462.41  1499.44  1553.85  1593.03  1654.36
                             1698.03  1730.71  1762.10  1799.41  1852.98
                             1857.55  1902.15  1922.46  1940.79  1958.01
                             2017.95  2085.78  2118.77  2147.45  2157.35
                             2175.29  4275.61  4321.98  4369.39  4389.09
                             4407.35  4418.00  4456.94  4458.58  4481.74
                             4539.58

 Zero-point correction=                           0.162048 (Hartree/Particle)
 Thermal correction to Energy=                    0.168743
 Thermal correction to Enthalpy=                  0.169687
 Thermal correction to Gibbs Free Energy=         0.131431
 Sum of electronic and zero-point Energies=           -422.984947
 Sum of electronic and thermal Energies=              -422.978251
 Sum of electronic and thermal Enthalpies=            -422.977307
 Sum of electronic and thermal Free Energies=         -423.015564

                     E (Thermal)             CV                S
                      KCal/Mol        Cal/Mol-Kelvin    Cal/Mol-Kelvin
 Total                  105.888             28.330             80.518
 Electronic               0.000              0.000              0.000
 Translational            0.889              2.981             40.409
 Rotational               0.889              2.981             28.048
 Vibrational            104.111             22.368             12.062
 Vibration     1          0.636              1.846              2.174
 Vibration     2          0.664              1.760              1.719
 Vibration     3          0.716              1.606              1.238
 Vibration     4          0.738              1.545              1.102
 Vibration     5          0.762              1.479              0.978
 Vibration     6          0.808              1.363              0.799
 Vibration     7          0.837              1.294              0.709
 Vibration     8          0.923              1.103              0.511

 Optimization completed.
    -- Stationary point found.
 Normal termination of Gaussian 09 at Mon Jan 27 12:09:28 2020.
