 Gaussian 09, Revision D.01,
 Gaussian 09:  ES64L-G09RevD.01 24-Apr-2013

 -----------------------------
 # b3lyp 6-31G(2df,p) opt Freq
 -----------------------------

 -----
 titel
 -----
 Symbolic Z-matrix:
 Charge =  0 Multiplicity = 1

 SCF Done:  E(RB3LYP) =  -423.165699504     A.U. after   13 cycles
 Optimization completed.
    -- Stationary point found.
 Normal termination of Gaussian 09 at Mon Jan 27 12:23:27 2020.

 ----------------------------------------------------------------------
 #N Geom=AllCheck Guess=TCheck SCRF=Check GenChk RB3LYP/6-31G(2df,p) Fr
 eq
 ----------------------------------------------------------------------

 Structure from the checkpoint file:  "/scratch/puck/g09_6fdcf84e-8488-499c-8522-b8296037a909/Gau-52424.chk"
 -----
 titel
 -----
 Charge =  0 Multiplicity = 1

                         Standard orientation:
 ---------------------------------------------------------------------
 Center     Atomic      Atomic             Coordinates (Angstroms)
 Number     Number       Type             X           Y           Z
 ---------------------------------------------------------------------
      1          6           0       -2.100693    0.000003    0.577046
      2          8           0       -1.931748   -0.000005   -0.861241
      3          6           0       -0.506075   -0.000003   -0.989140
      4          6           0       -0.030074   -1.060002    0.046441
      5          6           0        1.488722   -1.182591    0.144994
      6          8           0        2.143200    0.000001   -0.280971
      7          6           0        1.488719    1.182594    0.144990
      8          6           0       -0.030077    1.060001    0.046438
      9          6           0       -0.639057    0.000001    1.022805
     10          1           0       -2.655565    0.892997    0.889616
     11          1           0       -2.655569   -0.892984    0.889626
     12          1           0       -0.223239   -0.000004   -2.040271
     13          1           0       -0.515290   -2.039631    0.008153
     14          1           0        1.779916   -1.445782    1.176926
     15          1           0        1.853957   -1.978523   -0.512569
     16          1           0        1.779914    1.445791    1.176919
     17          1           0        1.853950    1.978523   -0.512579
     18          1           0       -0.515293    2.039629    0.008147
     19          1           0       -0.423181    0.000002    2.092279
 ---------------------------------------------------------------------

 SCF Done:  E(RB3LYP) =  -423.165699504     A.U. after    1 cycles

 The electronic state is 1-A.
 Alpha  occ. eigenvalues --  -19.13930 -19.13302 -10.23480 -10.23048 -10.23047
 Alpha  occ. eigenvalues --  -10.22606 -10.19770 -10.19234 -10.19234  -1.04390
 Alpha  occ. eigenvalues --   -1.03074  -0.84162  -0.75716  -0.72519  -0.64778
 Alpha  occ. eigenvalues --   -0.63149  -0.58088  -0.54395  -0.50509  -0.49405
 Alpha  occ. eigenvalues --   -0.47871  -0.45817  -0.44406  -0.41183  -0.40494
 Alpha  occ. eigenvalues --   -0.39292  -0.37555  -0.35975  -0.34195  -0.31893
 Alpha  occ. eigenvalues --   -0.30419  -0.28826  -0.25363  -0.23691
 Alpha virt. eigenvalues --    0.08247   0.10386   0.11425   0.12011   0.12494
 Alpha virt. eigenvalues --    0.13749   0.14040   0.15284   0.15911   0.16302
 Alpha virt. eigenvalues --    0.17603   0.17658   0.18645   0.21181   0.22212

 Mulliken charges:
               1
     1  C   -0.097937
     2  O   -0.286990
     3  C    0.113319
     4  C   -0.040604
     5  C   -0.106875
     6  O   -0.250054
     7  C   -0.106875
     8  C   -0.040603
     9  C   -0.082054
    10  H    0.099783
    11  H    0.099782
    12  H    0.087262
    13  H    0.072225
    14  H    0.088166
    15  H    0.111428
    16  H    0.088166
    17  H    0.111428
    18  H    0.072225
    19  H    0.068210
 Sum of Mulliken charges =   0.00000

 Dipole moment (field-independent basis, Debye):
    X=             -0.0019    Y=              0.0000    Z=              1.6170  Tot=              1.6170
 Quadrupole moment (field-independent basis, Debye-Ang):
   XX=            -59.9998   YY=            -49.6673   ZZ=            -52.6649
   XY=              0.0000   XZ=             -2.4952   YZ=              0.0000

  Exact polarizability:  79.623   0.000  74.654  -2.860   0.000  67.259
 Approx polarizability: 108.331   0.000 109.496  -3.239   0.000 106.349

                      1                      2                      3
                      A                      A                      A
 Frequencies --    180.4402               248.2714               317.8557
 Red. masses --      3.9623                 2.0649                 2.0708
 Frc consts  --      0.0760                 0.0750                 0.1233
 IR Inten    --      4.7709                 0.0329                 2.0864

                      4                      5                      6
                      A                      A                      A
 Frequencies --    319.8331               377.2369               443.5323
 Red. masses --      2.1847                 4.2643                 6.9343
 Frc consts  --      0.1317                 0.3575                 0.8037
 IR Inten    --      0.3117                 5.4686                 0.5275

                      7                      8                      9
                      A                      A                      A
 Frequencies --    577.3981               672.4446               729.8505
 Red. masses --      4.5205                 4.3463                 4.2942
 Frc consts  --      0.8879                 1.1579                 1.3477
 IR Inten    --      0.0207                 2.4192                10.8315

                     10                     11                     12
                      A                      A                      A
 Frequencies --    785.3957               861.1535               884.8899
 Red. masses --      2.5608                 3.2978                 2.8421
 Frc consts  --      0.9307                 1.4409                 1.3112
 IR Inten    --      0.8777                15.5342                 0.1431

                     13                     14                     15
                      A                      A                      A
 Frequencies --    914.3305               920.9714               946.8395
 Red. masses --      3.2550                 3.5211                 1.7609
 Frc consts  --      1.6033                 1.7596                 0.9301
 IR Inten    --      3.9212                32.2991                16.7239

                     16                     17                     18
                      A                      A                      A
 Frequencies --    971.6800               985.4793               991.8036
 Red. masses --      1.5338                 4.6759                 5.2811
 Frc consts  --      0.8532                 2.6755                 3.0607
 IR Inten    --      7.5976                 7.5750                28.5858

                     19                     20                     21
                      A                      A                      A
 Frequencies --   1006.9890              1037.6918              1066.1971
 Red. masses --      1.4339                 1.1219                 1.7142
 Frc consts  --      0.8567                 0.7118                 1.1481
 IR Inten    --      3.2647                 2.1667                 0.8459

                     22                     23                     24
                      A                      A                      A
 Frequencies --   1083.4408              1106.3760              1114.3606
 Red. masses --      2.7120                 1.8826                 3.0882
 Frc consts  --      1.8756                 1.3578                 2.2595
 IR Inten    --     40.2881                15.9146                 1.4447

                     25                     26                     27
                      A                      A                      A
 Frequencies --   1156.0288              1183.0342              1208.6979
 Red. masses --      2.1930                 1.8823                 1.3342
 Frc consts  --      1.7267                 1.5522                 1.1484
 IR Inten    --     31.9398                45.6733                 1.6415

                     28                     29                     30
                      A                      A                      A
 Frequencies --   1214.7752              1243.1847              1256.1834
 Red. masses --      1.4617                 1.6962                 1.5018
 Frc consts  --      1.2709                 1.5446                 1.3963
 IR Inten    --      7.2044                 7.0802                 1.4486

                     31                     32                     33
                      A                      A                      A
 Frequencies --   1268.1319              1274.5603              1307.5264
 Red. masses --      1.2328                 1.3169                 1.2915
 Frc consts  --      1.1681                 1.2604                 1.3009
 IR Inten    --     10.1984                15.1866                 1.6653

                     34                     35                     36
                      A                      A                      A
 Frequencies --   1310.2348              1351.2654              1382.9511
 Red. masses --      1.7403                 1.5206                 1.2560
 Frc consts  --      1.7603                 1.6359                 1.4154
 IR Inten    --      1.6218                 0.1128                 0.1809

                     37                     38                     39
                      A                      A                      A
 Frequencies --   1384.2343              1431.9973              1503.8784
 Red. masses --      1.7242                 1.3666                 1.0805
 Frc consts  --      1.9465                 1.6511                 1.4397
 IR Inten    --     16.4370                 8.4868                 0.0060

                     40                     41                     42
                      A                      A                      A
 Frequencies --   1513.7013              1526.2884              2949.3583
 Red. masses --      1.0936                 1.0992                 1.0715
 Frc consts  --      1.4763                 1.5086                 5.4917
 IR Inten    --      1.4060                 0.2781                55.7245

                     43                     44                     45
                      A                      A                      A
 Frequencies --   2956.1031              3017.7660              3057.1963
 Red. masses --      1.0727                 1.0557                 1.1093
 Frc consts  --      5.5227                 5.6643                 6.1084
 IR Inten    --     97.0726                72.0672                26.7400

                     46                     47                     48
                      A                      A                      A
 Frequencies --   3061.2149              3061.9128              3073.4269
 Red. masses --      1.0898                 1.0897                 1.0867
 Frc consts  --      6.0171                 6.0192                 6.0477
 IR Inten    --      0.1451                30.6042               110.9754

                     49                     50                     51
                      A                      A                      A
 Frequencies --   3075.6102              3107.2367              3142.0226
 Red. masses --      1.0881                 1.0897                 1.0915
 Frc consts  --      6.0641                 6.1987                 6.3490
 IR Inten    --      8.5869                35.7083                26.1705

 - Thermochemistry -
 -------------------
 Temperature   298.150 Kelvin.  Pressure   1.00000 Atm.
 Atom     1 has atomic number  6 and mass  12.00000

 Molecular mass:   126.06808 amu.
 Principal axes and moments of inertia in atomic units:
                           1         2         3
     Eigenvalues --   492.841031182.061461279.35599
           X            0.99992   0.00000  -0.01289
           Y            0.00000   1.00000   0.00000
           Z            0.01289   0.00000   0.99992
 This molecule is an asymmetric top.
 Rotational symmetry number  1.
 Warning -- assumption of classical behavior for rotation
           may cause significant error
 Rotational temperatures (Kelvin)      0.17574     0.07327     0.06770
 Rotational constants (GHZ):           3.66191     1.52677     1.41066
 Zero-point vibrational energy     428041.7 (Joules/Mol)
                                  102.30442 (Kcal/Mol)
 Warning -- explicit consideration of   7 degrees of freedom as
           vibrations may cause significant error
 Vibrational temperatures:    259.61   357.21   457.32   460.17   542.76
          (Kelvin)            638.14   830.75   967.50  1050.09  1130.01
                             1239.01  1273.16  1315.52  1325.07  1362.29
                             1398.03  1417.88  1426.98  1448.83  1493.01
                             1534.02  1558.83  1591.83  1603.31  1663.27
                             1702.12  1739.04  1747.79  1788.66  1807.37
                             1824.56  1833.81  1881.24  1885.13  1944.17
                             1989.76  1991.60  2060.32  2163.74  2177.88
                             2195.99  4243.46  4253.17  4341.89  4398.62
                             4404.40  4405.40  4421.97  4425.11  4470.61
                             4520.66

 Zero-point correction=                           0.163032 (Hartree/Particle)
 Thermal correction to Energy=                    0.169567
 Thermal correction to Enthalpy=                  0.170511
 Thermal correction to Gibbs Free Energy=         0.132368
 Sum of electronic and zero-point Energies=           -423.002667
 Sum of electronic and thermal Energies=              -422.996133
 Sum of electronic and thermal Enthalpies=            -422.995188
 Sum of electronic and thermal Free Energies=         -423.033331

                     E (Thermal)             CV                S
                      KCal/Mol        Cal/Mol-Kelvin    Cal/Mol-Kelvin
 Total                  106.405             27.153             80.278
 Electronic               0.000              0.000              0.000
 Translational            0.889              2.981             40.409
 Rotational               0.889              2.981             28.102
 Vibrational            104.627             21.191             11.768
 Vibration     1          0.629              1.866              2.324
 Vibration     2          0.662              1.766              1.743
 Vibration     3          0.704              1.639              1.321
 Vibration     4          0.706              1.636              1.311
 Vibration     5          0.748              1.519              1.050
 Vibration     6          0.803              1.375              0.816
 Vibration     7          0.934              1.080              0.490

 Optimization completed.
    -- Stationary point found.
 Normal termination of Gaussian 09 at Mon Jan 27 13:15:45 2020.
