 Gaussian 09, Revision D.01,
 Gaussian 09:  ES64L-G09RevD.01 24-Apr-2013

 -----------------------------
 # b3lyp 6-31G(2df,p) opt Freq
 -----------------------------

 -----
 titel
 -----
 Symbolic Z-matrix:
 Charge =  0 Multiplicity = 1

 SCF Done:  E(RB3LYP) =  -423.144300618     A.U. after   13 cycles
 Optimization completed.
    -- Stationary point found.
 Normal termination of Gaussian 09 at Tue Jan 28 02:52:52 2020.

 ----------------------------------------------------------------------
 #N Geom=AllCheck Guess=TCheck SCRF=Check GenChk RB3LYP/6-31G(2df,p) Fr
 eq
 ----------------------------------------------------------------------

 Structure from the checkpoint file:  "/scratch/puck/g09_986eef11-006f-45be-8e38-2e871cf823f1/Gau-113722.chk"
 -----
 titel
 -----
 Charge =  0 Multiplicity = 1

                         Standard orientation:
 ---------------------------------------------------------------------
 Center     Atomic      Atomic             Coordinates (Angstroms)
 Number     Number       Type             X           Y           Z
 ---------------------------------------------------------------------
      1          6           0        2.834918   -0.397582   -0.089936
      2          6           0        1.430121   -0.165532    0.432082
      3          8           0        0.994025    1.208959    0.219133
      4          6           0       -0.045500    0.788553   -0.690966
      5          6           0       -1.498977    0.803939   -0.151150
      6          6           0       -1.409331    0.064691    1.195186
      7          6           0       -1.081666   -1.076198    0.203578
      8          8           0       -2.000211   -0.437305   -0.754154
      9          6           0        0.271660   -0.703903   -0.439653
     10          1           0        3.129452   -1.442384    0.060563
     11          1           0        2.900313   -0.168562   -1.158146
     12          1           0        3.547804    0.240033    0.441445
     13          1           0        1.374104   -0.428934    1.496754
     14          1           0        0.060181    1.229031   -1.685244
     15          1           0       -2.128991    1.674598   -0.328607
     16          1           0       -0.677636    0.387401    1.935677
     17          1           0       -2.396368   -0.073477    1.635877
     18          1           0       -1.306072   -2.123934    0.401411
     19          1           0        0.539348   -1.350824   -1.274402
 ---------------------------------------------------------------------

 SCF Done:  E(RB3LYP) =  -423.144300618     A.U. after    1 cycles

 The electronic state is 1-A.
 Alpha  occ. eigenvalues --  -19.13681 -19.13317 -10.24275 -10.23760 -10.23688
 Alpha  occ. eigenvalues --  -10.23187 -10.19099 -10.18828 -10.17958  -1.05699
 Alpha  occ. eigenvalues --   -1.02740  -0.78050  -0.75970  -0.71418  -0.69871
 Alpha  occ. eigenvalues --   -0.62183  -0.55658  -0.53243  -0.52722  -0.48919
 Alpha  occ. eigenvalues --   -0.47443  -0.45632  -0.42541  -0.41552  -0.39287
 Alpha  occ. eigenvalues --   -0.38175  -0.37312  -0.36849  -0.33424  -0.32433
 Alpha  occ. eigenvalues --   -0.30683  -0.29693  -0.26476  -0.24165
 Alpha virt. eigenvalues --    0.07315   0.09198   0.09589   0.11495   0.12198
 Alpha virt. eigenvalues --    0.13846   0.14884   0.15230   0.16166   0.16787
 Alpha virt. eigenvalues --    0.17299   0.17743   0.18207   0.19528   0.20185

 Mulliken charges:
               1
     1  C   -0.406233
     2  C    0.124818
     3  O   -0.320507
     4  C    0.124872
     5  C    0.049105
     6  C   -0.242453
     7  C    0.045426
     8  O   -0.301904
     9  C   -0.071581
    10  H    0.115163
    11  H    0.121900
    12  H    0.127821
    13  H    0.075117
    14  H    0.082686
    15  H    0.080414
    16  H    0.117991
    17  H    0.111840
    18  H    0.081898
    19  H    0.083628
 Sum of Mulliken charges =   0.00000

 Dipole moment (field-independent basis, Debye):
    X=              0.7238    Y=             -1.0027    Z=              0.6663  Tot=              1.4047
 Quadrupole moment (field-independent basis, Debye-Ang):
   XX=            -55.0638   YY=            -52.9500   ZZ=            -52.5766
   XY=             -4.0684   XZ=             -2.8983   YZ=             -2.1628

  Exact polarizability:  84.624  -3.206  68.937  -0.777  -2.219  66.968
 Approx polarizability: 110.643  -1.688 109.126   4.865  -1.666 103.659

                      1                      2                      3
                      A                      A                      A
 Frequencies --    143.4476               227.3660               233.7573
 Red. masses --      3.3799                 1.2933                 2.3426
 Frc consts  --      0.0410                 0.0394                 0.0754
 IR Inten    --      0.8657                 1.6237                 2.3789

                      4                      5                      6
                      A                      A                      A
 Frequencies --    289.7332               349.6619               482.7696
 Red. masses --      2.5417                 3.4060                 3.6176
 Frc consts  --      0.1257                 0.2454                 0.4968
 IR Inten    --      2.2217                 1.7873                 9.3580

                      7                      8                      9
                      A                      A                      A
 Frequencies --    530.3534               544.9744               663.3813
 Red. masses --      3.2449                 3.3813                 3.8137
 Frc consts  --      0.5377                 0.5917                 0.9888
 IR Inten    --      0.7294                 6.8420                 1.7018

                     10                     11                     12
                      A                      A                      A
 Frequencies --    787.4833               813.5916               821.4911
 Red. masses --      3.3366                 2.9412                 2.8422
 Frc consts  --      1.2191                 1.1471                 1.1301
 IR Inten    --      0.5508                 7.7796                 7.0711

                     13                     14                     15
                      A                      A                      A
 Frequencies --    869.6783               881.8116               900.2389
 Red. masses --      2.2885                 3.5594                 3.0993
 Frc consts  --      1.0198                 1.6307                 1.4799
 IR Inten    --     29.9012                30.3736                11.7361

                     16                     17                     18
                      A                      A                      A
 Frequencies --    906.6544               934.8637               970.4201
 Red. masses --      2.2009                 2.4813                 1.8828
 Frc consts  --      1.0659                 1.2777                 1.0446
 IR Inten    --      7.2385                 1.7054                22.8717

                     19                     20                     21
                      A                      A                      A
 Frequencies --    997.6929              1013.8205              1033.4023
 Red. masses --      2.5889                 2.1764                 2.2867
 Frc consts  --      1.5183                 1.3180                 1.4388
 IR Inten    --     15.3102                26.5090                52.3658

                     22                     23                     24
                      A                      A                      A
 Frequencies --   1054.5155              1068.5904              1091.7947
 Red. masses --      2.5524                 1.9590                 1.4299
 Frc consts  --      1.6722                 1.3180                 1.0043
 IR Inten    --      7.9104                19.0781                 6.0187

                     25                     26                     27
                      A                      A                      A
 Frequencies --   1104.7371              1129.2168              1184.6616
 Red. masses --      1.9846                 1.7223                 1.5537
 Frc consts  --      1.4271                 1.2940                 1.2847
 IR Inten    --      2.7664                 6.5333                 8.4992

                     28                     29                     30
                      A                      A                      A
 Frequencies --   1187.9890              1224.3640              1232.4631
 Red. masses --      2.1873                 1.4626                 1.3989
 Frc consts  --      1.8188                 1.2918                 1.2519
 IR Inten    --      6.3068                 2.2387                 3.1887

                     31                     32                     33
                      A                      A                      A
 Frequencies --   1269.0001              1278.0997              1288.5793
 Red. masses --      1.4054                 1.4088                 1.5354
 Frc consts  --      1.3334                 1.3559                 1.5021
 IR Inten    --      7.6966                 0.1300                 0.9725

                     34                     35                     36
                      A                      A                      A
 Frequencies --   1309.0504              1340.1810              1345.6307
 Red. masses --      1.5387                 1.4784                 1.5481
 Frc consts  --      1.5535                 1.5645                 1.6516
 IR Inten    --      2.6005                10.3837                 9.7060

                     37                     38                     39
                      A                      A                      A
 Frequencies --   1395.2938              1407.7142              1484.1681
 Red. masses --      1.3938                 1.3579                 1.0558
 Frc consts  --      1.5988                 1.5855                 1.3702
 IR Inten    --      3.5125                10.5005                 2.7177

                     40                     41                     42
                      A                      A                      A
 Frequencies --   1491.0927              1493.8558              3010.4527
 Red. masses --      1.1307                 1.0544                 1.0845
 Frc consts  --      1.4812                 1.3864                 5.7910
 IR Inten    --      5.2309                 4.3581                41.0541

                     43                     44                     45
                      A                      A                      A
 Frequencies --   3032.8280              3081.2928              3093.1604
 Red. masses --      1.0355                 1.0883                 1.0568
 Frc consts  --      5.6118                 6.0880                 5.9572
 IR Inten    --     17.4606                30.0013                20.2647

                     46                     47                     48
                      A                      A                      A
 Frequencies --   3104.3608              3113.7254              3117.8006
 Red. masses --      1.1004                 1.1001                 1.0906
 Frc consts  --      6.2482                 6.2839                 6.2462
 IR Inten    --     21.2261                11.8673                31.2467

                     49                     50                     51
                      A                      A                      A
 Frequencies --   3128.3756              3134.6397              3160.3088
 Red. masses --      1.0895                 1.0945                 1.1103
 Frc consts  --      6.2822                 6.3365                 6.5337
 IR Inten    --     69.4339                16.2970                18.4383

 - Thermochemistry -
 -------------------
 Temperature   298.150 Kelvin.  Pressure   1.00000 Atm.
 Atom     1 has atomic number  6 and mass  12.00000

 Molecular mass:   126.06808 amu.
 Principal axes and moments of inertia in atomic units:
                           1         2         3
     Eigenvalues --   463.962851304.815561390.20385
           X            0.99943  -0.02804  -0.01889
           Y            0.02686   0.99784  -0.05994
           Z            0.02053   0.05940   0.99802
 This molecule is an asymmetric top.
 Rotational symmetry number  1.
 Warning -- assumption of classical behavior for rotation
           may cause significant error
 Rotational temperatures (Kelvin)      0.18668     0.06638     0.06230
 Rotational constants (GHZ):           3.88984     1.38314     1.29818
 Zero-point vibrational energy     423206.1 (Joules/Mol)
                                  101.14869 (Kcal/Mol)
 Warning -- explicit consideration of   8 degrees of freedom as
           vibrations may cause significant error
 Vibrational temperatures:    206.39   327.13   336.32   416.86   503.08
          (Kelvin)            694.60   763.06   784.10   954.46  1133.01
                             1170.58  1181.94  1251.27  1268.73  1295.24
                             1304.47  1345.06  1396.22  1435.46  1458.66
                             1486.83  1517.21  1537.46  1570.85  1589.47
                             1624.69  1704.46  1709.25  1761.58  1773.24
                             1825.81  1838.90  1853.98  1883.43  1928.22
                             1936.06  2007.51  2025.38  2135.38  2145.35
                             2149.32  4331.36  4363.56  4433.29  4450.36
                             4466.48  4479.95  4485.81  4501.03  4510.04
                             4546.97

 Zero-point correction=                           0.161191 (Hartree/Particle)
 Thermal correction to Energy=                    0.168202
 Thermal correction to Enthalpy=                  0.169146
 Thermal correction to Gibbs Free Energy=         0.130005
 Sum of electronic and zero-point Energies=           -422.983110
 Sum of electronic and thermal Energies=              -422.976099
 Sum of electronic and thermal Enthalpies=            -422.975155
 Sum of electronic and thermal Free Energies=         -423.014295

                     E (Thermal)             CV                S
                      KCal/Mol        Cal/Mol-Kelvin    Cal/Mol-Kelvin
 Total                  105.548             28.748             82.379
 Electronic               0.000              0.000              0.000
 Translational            0.889              2.981             40.409
 Rotational               0.889              2.981             28.222
 Vibrational            103.771             22.786             13.748
 Vibration     1          0.616              1.910              2.757
 Vibration     2          0.651              1.799              1.900
 Vibration     3          0.654              1.789              1.850
 Vibration     4          0.686              1.693              1.476
 Vibration     5          0.727              1.576              1.168
 Vibration     6          0.839              1.288              0.703
 Vibration     7          0.885              1.183              0.586
 Vibration     8          0.900              1.151              0.555

 Optimization completed.
    -- Stationary point found.
 Normal termination of Gaussian 09 at Tue Jan 28 03:38:25 2020.
