 Gaussian 09, Revision D.01,
 Gaussian 09:  ES64L-G09RevD.01 24-Apr-2013

 -----------------------------
 # b3lyp 6-31G(2df,p) opt Freq
 -----------------------------

 -----
 titel
 -----
 Symbolic Z-matrix:
 Charge =  0 Multiplicity = 1

 SCF Done:  E(RB3LYP) =  -423.166335015     A.U. after   13 cycles
 Optimization completed.
    -- Stationary point found.
 Normal termination of Gaussian 09 at Mon Jan 27 23:46:55 2020.

 ----------------------------------------------------------------------
 #N Geom=AllCheck Guess=TCheck SCRF=Check GenChk RB3LYP/6-31G(2df,p) Fr
 eq
 ----------------------------------------------------------------------

 Structure from the checkpoint file:  "/scratch/puck/g09_03c767dd-a760-4d54-be27-bb4f991a336d/Gau-186092.chk"
 -----
 titel
 -----
 Charge =  0 Multiplicity = 1

                         Standard orientation:
 ---------------------------------------------------------------------
 Center     Atomic      Atomic             Coordinates (Angstroms)
 Number     Number       Type             X           Y           Z
 ---------------------------------------------------------------------
      1          6           0       -2.361119   -0.786783   -0.146292
      2          6           0       -0.873995   -0.620731   -0.444259
      3          6           0       -0.465672    0.827808   -0.806421
      4          8           0       -0.760562    1.524326    0.445117
      5          6           0        0.390924    0.806068    0.943272
      6          6           0        1.060104    0.882119   -0.445656
      7          6           0        1.878990   -0.390994   -0.603650
      8          8           0        1.329670   -1.289902    0.378960
      9          6           0        0.087246   -0.720534    0.782197
     10          1           0       -2.570196   -1.791770    0.234480
     11          1           0       -2.689758   -0.058361    0.598526
     12          1           0       -2.962602   -0.642361   -1.050754
     13          1           0       -0.555868   -1.344023   -1.201800
     14          1           0       -0.893523    1.303808   -1.689411
     15          1           0        0.809003    1.182052    1.875423
     16          1           0        1.542502    1.824527   -0.697887
     17          1           0        1.810388   -0.829427   -1.608854
     18          1           0        2.938819   -0.231805   -0.375559
     19          1           0       -0.280511   -1.269751    1.648069
 ---------------------------------------------------------------------

 SCF Done:  E(RB3LYP) =  -423.166335015     A.U. after    1 cycles

 The electronic state is 1-A.
 Alpha  occ. eigenvalues --  -19.13790 -19.13777 -10.24027 -10.23583 -10.23072
 Alpha  occ. eigenvalues --  -10.23020 -10.19827 -10.18739 -10.17253  -1.06297
 Alpha  occ. eigenvalues --   -1.02536  -0.79697  -0.76505  -0.72083  -0.67437
 Alpha  occ. eigenvalues --   -0.62133  -0.56783  -0.54376  -0.53201  -0.48283
 Alpha  occ. eigenvalues --   -0.47455  -0.43864  -0.43187  -0.40898  -0.39595
 Alpha  occ. eigenvalues --   -0.37843  -0.37435  -0.36351  -0.34587  -0.32622
 Alpha  occ. eigenvalues --   -0.31754  -0.30598  -0.26239  -0.23081
 Alpha virt. eigenvalues --    0.08278   0.09780   0.10342   0.11273   0.12836
 Alpha virt. eigenvalues --    0.14047   0.15091   0.15436   0.16556   0.16905
 Alpha virt. eigenvalues --    0.17198   0.17961   0.18516   0.19554   0.21718

 Mulliken charges:
               1
     1  C   -0.425723
     2  C    0.018496
     3  C    0.044663
     4  O   -0.297966
     5  C    0.071210
     6  C   -0.067785
     7  C   -0.117945
     8  O   -0.273925
     9  C    0.062640
    10  H    0.114465
    11  H    0.136997
    12  H    0.111349
    13  H    0.080525
    14  H    0.077668
    15  H    0.086698
    16  H    0.088921
    17  H    0.100896
    18  H    0.109848
    19  H    0.078968
 Sum of Mulliken charges =   0.00000

 Dipole moment (field-independent basis, Debye):
    X=              0.5045    Y=              0.2004    Z=             -1.0644  Tot=              1.1949
 Quadrupole moment (field-independent basis, Debye-Ang):
   XX=            -53.0570   YY=            -57.5556   ZZ=            -50.1029
   XY=              4.9119   XZ=             -0.1880   YZ=             -0.6259

  Exact polarizability:  81.412   3.133  68.242  -0.258  -0.540  69.183
 Approx polarizability: 109.689  -1.195 104.646  -0.539  -0.254 108.116

                      1                      2                      3
                      A                      A                      A
 Frequencies --    194.9415               215.7603               266.7111
 Red. masses --      2.4864                 1.0976                 2.6645
 Frc consts  --      0.0557                 0.0301                 0.1117
 IR Inten    --      1.5565                 0.8133                 0.3235

                      4                      5                      6
                      A                      A                      A
 Frequencies --    296.0846               384.2239               456.6609
 Red. masses --      2.4350                 3.7893                 4.4766
 Frc consts  --      0.1258                 0.3296                 0.5500
 IR Inten    --      0.8302                 4.8075                10.0318

                      7                      8                      9
                      A                      A                      A
 Frequencies --    547.5993               612.0644               716.7741
 Red. masses --      4.9234                 5.5835                 3.5486
 Frc consts  --      0.8699                 1.2324                 1.0742
 IR Inten    --      3.1214                 0.3653                 0.4077

                     10                     11                     12
                      A                      A                      A
 Frequencies --    739.9768               792.2587               844.8182
 Red. masses --      4.4076                 2.6459                 2.2801
 Frc consts  --      1.4219                 0.9785                 0.9588
 IR Inten    --      7.6971                 0.5460                 2.5069

                     13                     14                     15
                      A                      A                      A
 Frequencies --    857.1607               872.6497               915.1397
 Red. masses --      2.9842                 2.7185                 3.0168
 Frc consts  --      1.2918                 1.2197                 1.4886
 IR Inten    --     12.7636                19.6431                25.8077

                     16                     17                     18
                      A                      A                      A
 Frequencies --    930.1098               949.6565               971.3088
 Red. masses --      3.5747                 2.2613                 2.0523
 Frc consts  --      1.8221                 1.2015                 1.1408
 IR Inten    --     15.2670                 5.9903                23.9647

                     19                     20                     21
                      A                      A                      A
 Frequencies --    998.6760              1032.9143              1036.9117
 Red. masses --      2.2926                 1.5982                 1.7760
 Frc consts  --      1.3472                 1.0047                 1.1251
 IR Inten    --     10.1915                 4.8886                 6.9569

                     22                     23                     24
                      A                      A                      A
 Frequencies --   1048.0754              1075.8521              1106.4932
 Red. masses --      1.6356                 3.2563                 2.3360
 Frc consts  --      1.0586                 2.2207                 1.6850
 IR Inten    --      5.0411                54.8369                12.1159

                     25                     26                     27
                      A                      A                      A
 Frequencies --   1122.5561              1153.9165              1188.3277
 Red. masses --      2.0560                 2.0739                 1.8696
 Frc consts  --      1.5265                 1.6270                 1.5555
 IR Inten    --     18.3176                 5.1210                 2.7912

                     28                     29                     30
                      A                      A                      A
 Frequencies --   1200.4562              1232.7149              1241.6945
 Red. masses --      1.3800                 1.2505                 1.3039
 Frc consts  --      1.1717                 1.1196                 1.1844
 IR Inten    --      1.0406                 0.9831                 0.7453

                     31                     32                     33
                      A                      A                      A
 Frequencies --   1264.2520              1290.3344              1295.0141
 Red. masses --      1.5868                 1.4557                 1.3504
 Frc consts  --      1.4943                 1.4280                 1.3344
 IR Inten    --      7.3847                 3.8370                 5.3165

                     34                     35                     36
                      A                      A                      A
 Frequencies --   1318.9723              1339.5462              1374.8640
 Red. masses --      1.8407                 1.5926                 1.5332
 Frc consts  --      1.8867                 1.6837                 1.7076
 IR Inten    --      2.4388                 3.1933                 0.1788

                     37                     38                     39
                      A                      A                      A
 Frequencies --   1390.7499              1405.8858              1495.3533
 Red. masses --      1.4625                 1.2378                 1.0443
 Frc consts  --      1.6667                 1.4415                 1.3758
 IR Inten    --      3.3572                 3.6115                 4.0721

                     40                     41                     42
                      A                      A                      A
 Frequencies --   1509.2551              1524.0208              3006.4245
 Red. masses --      1.0499                 1.0907                 1.0653
 Frc consts  --      1.4090                 1.4926                 5.6732
 IR Inten    --      3.7137                 0.8554                56.1373

                     43                     44                     45
                      A                      A                      A
 Frequencies --   3034.3412              3057.0079              3060.7071
 Red. masses --      1.0378                 1.0959                 1.0873
 Frc consts  --      5.6301                 6.0341                 6.0012
 IR Inten    --     33.2298                33.5949                22.7453

                     46                     47                     48
                      A                      A                      A
 Frequencies --   3094.8814              3115.7249              3127.2406
 Red. masses --      1.1005                 1.0905                 1.0925
 Frc consts  --      6.2104                 6.2373                 6.2952
 IR Inten    --     19.5345                41.9823                20.6861

                     49                     50                     51
                      A                      A                      A
 Frequencies --   3129.1680              3137.3371              3147.0184
 Red. masses --      1.0966                 1.0886                 1.0936
 Frc consts  --      6.3262                 6.3131                 6.3814
 IR Inten    --     11.4052                38.9790                21.9810

 - Thermochemistry -
 -------------------
 Temperature   298.150 Kelvin.  Pressure   1.00000 Atm.
 Atom     1 has atomic number  6 and mass  12.00000

 Molecular mass:   126.06808 amu.
 Principal axes and moments of inertia in atomic units:
                           1         2         3
     Eigenvalues --   638.58732 963.191991201.74929
           X            0.99592   0.09005  -0.00582
           Y           -0.09006   0.99593  -0.00160
           Z            0.00566   0.00212   0.99998
 This molecule is an asymmetric top.
 Rotational symmetry number  1.
 Warning -- assumption of classical behavior for rotation
           may cause significant error
 Rotational temperatures (Kelvin)      0.13563     0.08992     0.07207
 Rotational constants (GHZ):           2.82615     1.87371     1.50176
 Zero-point vibrational energy     425395.6 (Joules/Mol)
                                  101.67198 (Kcal/Mol)
 Warning -- explicit consideration of   8 degrees of freedom as
           vibrations may cause significant error
 Vibrational temperatures:    280.48   310.43   383.74   426.00   552.81
          (Kelvin)            657.03   787.87   880.62  1031.28  1064.66
                             1139.88  1215.50  1233.26  1255.55  1316.68
                             1338.22  1366.34  1397.49  1436.87  1486.13
                             1491.88  1507.94  1547.91  1591.99  1615.11
                             1660.23  1709.74  1727.19  1773.60  1786.52
                             1818.97  1856.50  1863.23  1897.70  1927.31
                             1978.12  2000.98  2022.75  2151.48  2171.48
                             2192.72  4325.57  4365.73  4398.35  4403.67
                             4452.84  4482.83  4499.40  4502.17  4513.92
                             4527.85

 Zero-point correction=                           0.162025 (Hartree/Particle)
 Thermal correction to Energy=                    0.168821
 Thermal correction to Enthalpy=                  0.169765
 Thermal correction to Gibbs Free Energy=         0.131187
 Sum of electronic and zero-point Energies=           -423.004310
 Sum of electronic and thermal Energies=              -422.997514
 Sum of electronic and thermal Enthalpies=            -422.996570
 Sum of electronic and thermal Free Energies=         -423.035148

                     E (Thermal)             CV                S
                      KCal/Mol        Cal/Mol-Kelvin    Cal/Mol-Kelvin
 Total                  105.937             28.250             81.194
 Electronic               0.000              0.000              0.000
 Translational            0.889              2.981             40.409
 Rotational               0.889              2.981             28.093
 Vibrational            104.159             22.288             12.692
 Vibration     1          0.636              1.847              2.180
 Vibration     2          0.645              1.817              1.994
 Vibration     3          0.672              1.734              1.617
 Vibration     4          0.690              1.681              1.439
 Vibration     5          0.753              1.504              1.022
 Vibration     6          0.815              1.346              0.776
 Vibration     7          0.903              1.145              0.549
 Vibration     8          0.971              1.006              0.429

 Optimization completed.
    -- Stationary point found.
 Normal termination of Gaussian 09 at Tue Jan 28 00:35:16 2020.
