 Gaussian 09, Revision D.01,
 Gaussian 09:  ES64L-G09RevD.01 24-Apr-2013

 -----------------------------
 # b3lyp 6-31G(2df,p) opt Freq
 -----------------------------

 -----
 titel
 -----
 Symbolic Z-matrix:
 Charge =  0 Multiplicity = 1

 SCF Done:  E(RB3LYP) =  -423.201362774     A.U. after   14 cycles
 Optimization completed.
    -- Stationary point found.
 Normal termination of Gaussian 09 at Tue Jan 28 11:51:27 2020.

 ----------------------------------------------------------------------
 #N Geom=AllCheck Guess=TCheck SCRF=Check GenChk RB3LYP/6-31G(2df,p) Fr
 eq
 ----------------------------------------------------------------------

 Structure from the checkpoint file:  "/scratch/puck/g09_be7142b1-cd73-4dc5-83f2-1afa16629dc4/Gau-24849.chk"
 -----
 titel
 -----
 Charge =  0 Multiplicity = 1

                         Standard orientation:
 ---------------------------------------------------------------------
 Center     Atomic      Atomic             Coordinates (Angstroms)
 Number     Number       Type             X           Y           Z
 ---------------------------------------------------------------------
      1          6           0       -3.423379   -0.127532   -0.091965
      2          8           0       -2.161782   -0.693869   -0.370221
      3          6           0       -1.108289   -0.132875    0.386189
      4          6           0       -0.650880    1.280326   -0.071349
      5          6           0        0.891066    1.278974    0.075918
      6          6           0        1.229658   -0.195300    0.068780
      7          6           0        2.594367   -0.713943   -0.067772
      8          8           0        3.577270   -0.014759   -0.178778
      9          6           0        0.140609   -0.958930    0.225875
     10          1           0       -3.474632    0.934864   -0.371630
     11          1           0       -4.160907   -0.679191   -0.679467
     12          1           0       -3.679955   -0.215983    0.975704
     13          1           0       -1.403540   -0.121071    1.453001
     14          1           0       -0.926434    1.379586   -1.126483
     15          1           0       -1.130753    2.090785    0.481469
     16          1           0        1.407844    1.826457   -0.717035
     17          1           0        1.209673    1.735802    1.021079
     18          1           0        2.672830   -1.824011   -0.067913
     19          1           0        0.123056   -2.042538    0.269217
 ---------------------------------------------------------------------

 SCF Done:  E(RB3LYP) =  -423.201362774     A.U. after    1 cycles

 The electronic state is 1-A.
 Alpha  occ. eigenvalues --  -19.14771 -19.13387 -10.26621 -10.24618 -10.23077
 Alpha  occ. eigenvalues --  -10.20622 -10.19993 -10.19320 -10.19015  -1.04144
 Alpha  occ. eigenvalues --   -1.03866  -0.85784  -0.74198  -0.73039  -0.67020
 Alpha  occ. eigenvalues --   -0.62700  -0.57922  -0.53865  -0.50686  -0.50093
 Alpha  occ. eigenvalues --   -0.46836  -0.45261  -0.44149  -0.43047  -0.39776
 Alpha  occ. eigenvalues --   -0.39075  -0.37931  -0.37019  -0.36227  -0.35236
 Alpha  occ. eigenvalues --   -0.32098  -0.27424  -0.25743  -0.25101
 Alpha virt. eigenvalues --   -0.05915   0.06246   0.08542   0.09995   0.11874
 Alpha virt. eigenvalues --    0.12480   0.14059   0.14489   0.15039   0.15639
 Alpha virt. eigenvalues --    0.16861   0.18237   0.19000   0.21030   0.21642

 Mulliken charges:
               1
     1  C   -0.236720
     2  O   -0.249532
     3  C    0.123014
     4  C   -0.253113
     5  C   -0.321295
     6  C    0.238444
     7  C    0.076051
     8  O   -0.268409
     9  C   -0.191090
    10  H    0.110317
    11  H    0.130753
    12  H    0.105236
    13  H    0.077632
    14  H    0.120159
    15  H    0.102499
    16  H    0.127324
    17  H    0.121118
    18  H    0.070231
    19  H    0.117381
 Sum of Mulliken charges =   0.00000

 Dipole moment (field-independent basis, Debye):
    X=             -3.2222    Y=              0.0468    Z=              1.0232  Tot=              3.3810
 Quadrupole moment (field-independent basis, Debye-Ang):
   XX=            -62.6951   YY=            -51.0157   ZZ=            -52.9108
   XY=             -3.8363   XZ=             -0.3198   YZ=             -0.6570

  Exact polarizability: 114.292   4.190  75.966  -3.388  -0.982  55.471
 Approx polarizability: 160.985  21.483 115.659  -8.022  -1.760  87.678

                      1                      2                      3
                      A                      A                      A
 Frequencies --     68.5203                96.8316               127.1286
 Red. masses --      4.6404                 2.6844                 2.3495
 Frc consts  --      0.0128                 0.0148                 0.0224
 IR Inten    --      1.2587                 3.0790                 1.3416

                      4                      5                      6
                      A                      A                      A
 Frequencies --    164.7806               207.4454               218.5174
 Red. masses --      2.7851                 1.2758                 3.2225
 Frc consts  --      0.0446                 0.0323                 0.0907
 IR Inten    --      8.3279                 3.7052                 7.0216

                      7                      8                      9
                      A                      A                      A
 Frequencies --    313.1810               365.5579               422.7726
 Red. masses --      2.8774                 5.0471                 2.5372
 Frc consts  --      0.1663                 0.3974                 0.2672
 IR Inten    --      0.1584                 0.1244                 5.4590

                     10                     11                     12
                      A                      A                      A
 Frequencies --    474.3239               542.4705               632.1710
 Red. masses --      2.5772                 4.0182                 2.2035
 Frc consts  --      0.3416                 0.6967                 0.5188
 IR Inten    --      3.3258                 2.7030                 0.9627

                     13                     14                     15
                      A                      A                      A
 Frequencies --    719.4495               839.8431               860.5636
 Red. masses --      5.0230                 1.8358                 2.0961
 Frc consts  --      1.5318                 0.7629                 0.9146
 IR Inten    --     27.1624                 1.0682                 1.0423

                     16                     17                     18
                      A                      A                      A
 Frequencies --    885.3400               900.8241               974.7953
 Red. masses --      1.6810                 2.7659                 2.6066
 Frc consts  --      0.7763                 1.3224                 1.4593
 IR Inten    --     15.4547                 2.8648                 3.7231

                     19                     20                     21
                      A                      A                      A
 Frequencies --    995.9591              1032.7853              1053.0384
 Red. masses --      2.3961                 1.6912                 1.9917
 Frc consts  --      1.4003                 1.0629                 1.3013
 IR Inten    --     15.9166                 5.3820                11.5039

                     22                     23                     24
                      A                      A                      A
 Frequencies --   1082.5807              1140.9428              1174.4780
 Red. masses --      2.3907                 2.7828                 1.5128
 Frc consts  --      1.6508                 2.1343                 1.2295
 IR Inten    --      9.8560                69.8647                28.8331

                     25                     26                     27
                      A                      A                      A
 Frequencies --   1181.0711              1185.1559              1219.5232
 Red. masses --      1.6815                 1.3566                 1.5012
 Frc consts  --      1.3820                 1.1227                 1.3154
 IR Inten    --     88.4260                11.9463                39.1218

                     28                     29                     30
                      A                      A                      A
 Frequencies --   1242.4683              1280.1122              1294.8711
 Red. masses --      1.4139                 1.5152                 1.3604
 Frc consts  --      1.2860                 1.4629                 1.3439
 IR Inten    --     29.6850                20.7985                 8.1431

                     31                     32                     33
                      A                      A                      A
 Frequencies --   1326.5120              1357.7225              1385.0512
 Red. masses --      1.5864                 1.8088                 1.7699
 Frc consts  --      1.6447                 1.9646                 2.0005
 IR Inten    --      2.4063                64.6581                20.1169

                     34                     35                     36
                      A                      A                      A
 Frequencies --   1421.1699              1478.4175              1482.7523
 Red. masses --      1.2412                 1.1226                 1.0764
 Frc consts  --      1.4770                 1.4457                 1.3943
 IR Inten    --      4.2354                 1.6506                 2.0684

                     37                     38                     39
                      A                      A                      A
 Frequencies --   1489.7569              1499.6450              1509.7539
 Red. masses --      1.0781                 1.0985                 1.0600
 Frc consts  --      1.4098                 1.4556                 1.4236
 IR Inten    --      4.8676                 2.3228                 6.2579

                     40                     41                     42
                      A                      A                      A
 Frequencies --   1687.6991              1785.5608              2883.1335
 Red. masses --      7.3418                10.3017                 1.0829
 Frc consts  --     12.3208                19.3512                 5.3034
 IR Inten    --     17.9483               245.5454               116.7788

                     43                     44                     45
                      A                      A                      A
 Frequencies --   2915.4557              2975.5784              3026.7210
 Red. masses --      1.0797                 1.0389                 1.1002
 Frc consts  --      5.4074                 5.4198                 5.9385
 IR Inten    --     42.0496                61.9021                46.3155

                     46                     47                     48
                      A                      A                      A
 Frequencies --   3036.5984              3055.7433              3089.2037
 Red. masses --      1.0686                 1.0627                 1.0928
 Frc consts  --      5.8054                 5.8465                 6.1443
 IR Inten    --     18.3491                22.1146                13.2706

                     49                     50                     51
                      A                      A                      A
 Frequencies --   3112.5154              3117.7735              3200.2949
 Red. masses --      1.1038                 1.0966                 1.0940
 Frc consts  --      6.3003                 6.2806                 6.6018
 IR Inten    --     23.0378                31.8250                 4.4625

 - Thermochemistry -
 -------------------
 Temperature   298.150 Kelvin.  Pressure   1.00000 Atm.
 Atom     1 has atomic number  6 and mass  12.00000

 Molecular mass:   126.06808 amu.
 Principal axes and moments of inertia in atomic units:
                           1         2         3
     Eigenvalues --   353.153112207.935962473.39166
           X            0.99997  -0.00723  -0.00165
           Y            0.00721   0.99992  -0.00995
           Z            0.00172   0.00994   0.99995
 This molecule is an asymmetric top.
 Rotational symmetry number  1.
 Rotational temperatures (Kelvin)      0.24526     0.03923     0.03502
 Rotational constants (GHZ):           5.11036     0.81739     0.72966
 Zero-point vibrational energy     415909.0 (Joules/Mol)
                                   99.40464 (Kcal/Mol)
 Warning -- explicit consideration of  11 degrees of freedom as
           vibrations may cause significant error
 Vibrational temperatures:     98.59   139.32   182.91   237.08   298.47
          (Kelvin)            314.40   450.60   525.96   608.27   682.45
                              780.49   909.55  1035.13  1208.35  1238.16
                             1273.81  1296.08  1402.51  1432.96  1485.95
                             1515.09  1557.59  1641.56  1689.81  1699.30
                             1705.17  1754.62  1787.63  1841.79  1863.03
                             1908.55  1953.46  1992.78  2044.74  2127.11
                             2133.35  2143.43  2157.65  2172.20  2428.22
                             2569.02  4148.18  4194.69  4281.19  4354.77
                             4368.98  4396.53  4444.67  4478.21  4485.78
                             4604.50

 Zero-point correction=                           0.158411 (Hartree/Particle)
 Thermal correction to Energy=                    0.167487
 Thermal correction to Enthalpy=                  0.168432
 Thermal correction to Gibbs Free Energy=         0.124006
 Sum of electronic and zero-point Energies=           -423.042951
 Sum of electronic and thermal Energies=              -423.033875
 Sum of electronic and thermal Enthalpies=            -423.032931
 Sum of electronic and thermal Free Energies=         -423.077357

                     E (Thermal)             CV                S
                      KCal/Mol        Cal/Mol-Kelvin    Cal/Mol-Kelvin
 Total                  105.100             32.580             93.501
 Electronic               0.000              0.000              0.000
 Translational            0.889              2.981             40.409
 Rotational               0.889              2.981             29.046
 Vibrational            103.322             26.618             24.046
 Vibration     1          0.598              1.969              4.195
 Vibration     2          0.603              1.951              3.517
 Vibration     3          0.611              1.926              2.989
 Vibration     4          0.623              1.886              2.494
 Vibration     5          0.641              1.829              2.066
 Vibration     6          0.646              1.813              1.971
 Vibration     7          0.701              1.649              1.345
 Vibration     8          0.739              1.543              1.098
 Vibration     9          0.785              1.421              0.883
 Vibration    10          0.831              1.307              0.726
 Vibration    11          0.898              1.156              0.560

 Optimization completed.
    -- Stationary point found.
 Normal termination of Gaussian 09 at Tue Jan 28 12:28:42 2020.
