 Gaussian 09, Revision D.01,
 Gaussian 09:  ES64L-G09RevD.01 24-Apr-2013

 -----------------------------
 # b3lyp 6-31G(2df,p) opt Freq
 -----------------------------

 -----
 titel
 -----
 Symbolic Z-matrix:
 Charge =  0 Multiplicity = 1

 SCF Done:  E(RB3LYP) =  -423.225853190     A.U. after   14 cycles
 Optimization completed.
    -- Stationary point found.
 Normal termination of Gaussian 09 at Mon Jan 27 18:35:14 2020.

 ----------------------------------------------------------------------
 #N Geom=AllCheck Guess=TCheck SCRF=Check GenChk RB3LYP/6-31G(2df,p) Fr
 eq
 ----------------------------------------------------------------------

 Structure from the checkpoint file:  "/scratch/puck/g09_4edb3a08-2059-4d7e-a14a-407f483fb51d/Gau-18628.chk"
 -----
 titel
 -----
 Charge =  0 Multiplicity = 1

                         Standard orientation:
 ---------------------------------------------------------------------
 Center     Atomic      Atomic             Coordinates (Angstroms)
 Number     Number       Type             X           Y           Z
 ---------------------------------------------------------------------
      1          6           0        2.397266   -0.779495    0.022723
      2          6           0        0.978655   -0.259223    0.013156
      3          6           0        0.392084    0.317598    1.319725
      4          6           0       -0.900613    0.808528    0.634855
      5          6           0       -0.275334    1.613377   -0.530296
      6          8           0        0.902627    0.874182   -0.883013
      7          6           0       -1.402155   -0.490174   -0.005493
      8          8           0       -2.541254   -0.841841   -0.158115
      9          6           0       -0.126018   -1.248244   -0.420259
     10          1           0        2.697772   -1.092825   -0.981435
     11          1           0        3.087166    0.000652    0.356944
     12          1           0        2.488489   -1.639530    0.692787
     13          1           0        0.219939   -0.436989    2.091962
     14          1           0        1.003632    1.127425    1.726017
     15          1           0       -1.648837    1.343159    1.216916
     16          1           0       -0.940224    1.700140   -1.397487
     17          1           0        0.003321    2.624031   -0.204422
     18          1           0       -0.068999   -2.203240    0.114623
     19          1           0       -0.116547   -1.455750   -1.493341
 ---------------------------------------------------------------------

 SCF Done:  E(RB3LYP) =  -423.225853190     A.U. after    1 cycles

 The electronic state is 1-A.
 Alpha  occ. eigenvalues --  -19.14067 -19.13206 -10.26897 -10.24801 -10.23879
 Alpha  occ. eigenvalues --  -10.20168 -10.19671 -10.18941 -10.18378  -1.04797
 Alpha  occ. eigenvalues --   -1.03680  -0.83570  -0.78190  -0.71984  -0.68497
 Alpha  occ. eigenvalues --   -0.62223  -0.56411  -0.53751  -0.50149  -0.48882
 Alpha  occ. eigenvalues --   -0.47415  -0.44118  -0.42853  -0.40924  -0.40675
 Alpha  occ. eigenvalues --   -0.39094  -0.38275  -0.37927  -0.36533  -0.35541
 Alpha  occ. eigenvalues --   -0.34584  -0.31367  -0.25399  -0.23905
 Alpha virt. eigenvalues --   -0.01567   0.07581   0.09952   0.11850   0.13131
 Alpha virt. eigenvalues --    0.14506   0.14920   0.15689   0.15977   0.16807
 Alpha virt. eigenvalues --    0.17618   0.18006   0.18613   0.18953   0.21267

 Mulliken charges:
               1
     1  C   -0.468080
     2  C    0.399045
     3  C   -0.272337
     4  C   -0.156625
     5  C   -0.089971
     6  O   -0.307978
     7  C    0.420929
     8  O   -0.327113
     9  C   -0.360217
    10  H    0.130380
    11  H    0.125136
    12  H    0.117504
    13  H    0.108291
    14  H    0.109945
    15  H    0.088983
    16  H    0.116195
    17  H    0.106618
    18  H    0.125293
    19  H    0.134000
 Sum of Mulliken charges =   0.00000

 Dipole moment (field-independent basis, Debye):
    X=              1.9852    Y=              0.4462    Z=              1.3699  Tot=              2.4529
 Quadrupole moment (field-independent basis, Debye-Ang):
   XX=            -61.8790   YY=            -50.8918   ZZ=            -52.3705
   XY=             -5.3588   XZ=              0.9042   YZ=              0.7086

  Exact polarizability:  82.440  -1.951  75.934   1.671   1.448  65.325
 Approx polarizability: 118.950   2.502 109.678   1.799   0.564 100.202

                      1                      2                      3
                      A                      A                      A
 Frequencies --    116.0824               215.9602               236.2185
 Red. masses --      4.6774                 1.0322                 2.5839
 Frc consts  --      0.0371                 0.0284                 0.0849
 IR Inten    --      5.8033                 0.0395                 1.4616

                      4                      5                      6
                      A                      A                      A
 Frequencies --    269.4439               303.0993               404.3257
 Red. masses --      2.7328                 2.6186                 2.2165
 Frc consts  --      0.1169                 0.1417                 0.2135
 IR Inten    --      0.8788                 1.7010                 2.3665

                      7                      8                      9
                      A                      A                      A
 Frequencies --    445.4371               472.1379               539.5805
 Red. masses --      2.5197                 3.4101                 3.6070
 Frc consts  --      0.2946                 0.4479                 0.6187
 IR Inten    --      0.5432                 7.5261                 6.3582

                     10                     11                     12
                      A                      A                      A
 Frequencies --    585.0098               628.0861               699.6671
 Red. masses --      3.1984                 3.1477                 3.7298
 Frc consts  --      0.6449                 0.7316                 1.0758
 IR Inten    --      2.1534                 1.0828                 1.8427

                     13                     14                     15
                      A                      A                      A
 Frequencies --    793.4875               801.4837               867.4703
 Red. masses --      3.8894                 3.3432                 2.6692
 Frc consts  --      1.4428                 1.2653                 1.1834
 IR Inten    --      4.6728                 6.8589                18.4976

                     16                     17                     18
                      A                      A                      A
 Frequencies --    897.1970               907.6721               945.4248
 Red. masses --      2.1702                 2.2286                 2.0241
 Frc consts  --      1.0293                 1.0818                 1.0659
 IR Inten    --      5.4643                 8.0805                 5.3024

                     19                     20                     21
                      A                      A                      A
 Frequencies --    956.7110               969.1043              1005.2878
 Red. masses --      1.8527                 2.1102                 1.5300
 Frc consts  --      0.9991                 1.1676                 0.9110
 IR Inten    --      0.9480                 8.8275                 6.8688

                     22                     23                     24
                      A                      A                      A
 Frequencies --   1028.4839              1088.7123              1108.4693
 Red. masses --      2.5751                 1.4902                 1.6647
 Frc consts  --      1.6048                 1.0407                 1.2052
 IR Inten    --     43.9892                46.4952                 4.1657

                     25                     26                     27
                      A                      A                      A
 Frequencies --   1134.6179              1169.7827              1196.2850
 Red. masses --      1.8593                 1.8176                 1.4621
 Frc consts  --      1.4102                 1.4654                 1.2328
 IR Inten    --     11.2116                10.9189                12.2729

                     28                     29                     30
                      A                      A                      A
 Frequencies --   1208.4284              1227.8824              1253.7793
 Red. masses --      1.5960                 1.5848                 2.1463
 Frc consts  --      1.3732                 1.4078                 1.9878
 IR Inten    --     10.9217                 2.6166                21.2401

                     31                     32                     33
                      A                      A                      A
 Frequencies --   1272.7044              1285.1789              1344.3274
 Red. masses --      1.6967                 1.8162                 2.2965
 Frc consts  --      1.6193                 1.7674                 2.4453
 IR Inten    --     10.1547                20.7132                22.5837

                     34                     35                     36
                      A                      A                      A
 Frequencies --   1372.5202              1417.1170              1436.2574
 Red. masses --      1.3750                 1.3935                 1.1104
 Frc consts  --      1.5261                 1.6488                 1.3496
 IR Inten    --      4.1646                13.2750                 6.9398

                     37                     38                     39
                      A                      A                      A
 Frequencies --   1482.3996              1493.2164              1496.6604
 Red. masses --      1.0534                 1.1064                 1.0560
 Frc consts  --      1.3639                 1.4534                 1.3937
 IR Inten    --      2.4134                 4.5167                 1.8151

                     40                     41                     42
                      A                      A                      A
 Frequencies --   1532.4047              1860.2722              3013.1584
 Red. masses --      1.0892                12.4231                 1.0599
 Frc consts  --      1.5070                25.3299                 5.6696
 IR Inten    --      0.0986               238.2791                65.1919

                     43                     44                     45
                      A                      A                      A
 Frequencies --   3042.1877              3049.8769              3058.1226
 Red. masses --      1.0363                 1.0616                 1.1058
 Frc consts  --      5.6506                 5.8183                 6.0930
 IR Inten    --     15.4368                 7.1198                28.6668

                     46                     47                     48
                      A                      A                      A
 Frequencies --   3062.5624              3110.1390              3115.9215
 Red. masses --      1.0580                 1.1003                 1.1045
 Frc consts  --      5.8468                 6.2707                 6.3180
 IR Inten    --     20.1798                 2.2987                 5.9413

                     49                     50                     51
                      A                      A                      A
 Frequencies --   3116.3731              3119.9965              3143.3628
 Red. masses --      1.1031                 1.1042                 1.0895
 Frc consts  --      6.3122                 6.3328                 6.3427
 IR Inten    --     12.2903                34.6590                14.8207

 - Thermochemistry -
 -------------------
 Temperature   298.150 Kelvin.  Pressure   1.00000 Atm.
 Atom     1 has atomic number  6 and mass  12.00000

 Molecular mass:   126.06808 amu.
 Principal axes and moments of inertia in atomic units:
                           1         2         3
     Eigenvalues --   627.842351142.764121350.80981
           X            0.99781  -0.06556   0.00840
           Y            0.06533   0.99753   0.02577
           Z           -0.01007  -0.02517   0.99963
 This molecule is an asymmetric top.
 Rotational symmetry number  1.
 Warning -- assumption of classical behavior for rotation
           may cause significant error
 Rotational temperatures (Kelvin)      0.13795     0.07579     0.06412
 Rotational constants (GHZ):           2.87451     1.57928     1.33604
 Zero-point vibrational energy     420487.9 (Joules/Mol)
                                  100.49902 (Kcal/Mol)
 Warning -- explicit consideration of  10 degrees of freedom as
           vibrations may cause significant error
 Vibrational temperatures:    167.02   310.72   339.87   387.67   436.09
          (Kelvin)            581.73   640.88   679.30   776.34   841.70
                              903.67  1006.66  1141.65  1153.15  1248.09
                             1290.86  1305.94  1360.25  1376.49  1394.32
                             1446.38  1479.76  1566.41  1594.84  1632.46
                             1683.05  1721.19  1738.66  1766.65  1803.91
                             1831.14  1849.08  1934.18  1974.75  2038.91
                             2066.45  2132.84  2148.40  2153.36  2204.79
                             2676.51  4335.26  4377.02  4388.09  4399.95
                             4406.34  4474.79  4483.11  4483.76  4488.97
                             4522.59

 Zero-point correction=                           0.160155 (Hartree/Particle)
 Thermal correction to Energy=                    0.167806
 Thermal correction to Enthalpy=                  0.168750
 Thermal correction to Gibbs Free Energy=         0.128400
 Sum of electronic and zero-point Energies=           -423.065698
 Sum of electronic and thermal Energies=              -423.058047
 Sum of electronic and thermal Enthalpies=            -423.057103
 Sum of electronic and thermal Free Energies=         -423.097454

                     E (Thermal)             CV                S
                      KCal/Mol        Cal/Mol-Kelvin    Cal/Mol-Kelvin
 Total                  105.300             30.799             84.925
 Electronic               0.000              0.000              0.000
 Translational            0.889              2.981             40.409
 Rotational               0.889              2.981             28.363
 Vibrational            103.523             24.837             16.154
 Vibration     1          0.608              1.936              3.165
 Vibration     2          0.645              1.817              1.993
 Vibration     3          0.655              1.785              1.831
 Vibration     4          0.674              1.729              1.600
 Vibration     5          0.695              1.668              1.400
 Vibration     6          0.770              1.461              0.947
 Vibration     7          0.805              1.371              0.810
 Vibration     8          0.829              1.312              0.732
 Vibration     9          0.895              1.163              0.566
 Vibration    10          0.942              1.064              0.476

 Optimization completed.
    -- Stationary point found.
 Normal termination of Gaussian 09 at Mon Jan 27 20:25:05 2020.
