 Gaussian 09, Revision D.01,
 Gaussian 09:  ES64L-G09RevD.01 24-Apr-2013

 -----------------------------
 # b3lyp 6-31G(2df,p) opt Freq
 -----------------------------

 -----
 titel
 -----
 Symbolic Z-matrix:
 Charge =  0 Multiplicity = 1

 SCF Done:  E(RB3LYP) =  -423.129450388     A.U. after   14 cycles
 Optimization completed.
    -- Stationary point found.
 Normal termination of Gaussian 09 at Tue Jan 28 02:55:54 2020.

 ----------------------------------------------------------------------
 #N Geom=AllCheck Guess=TCheck SCRF=Check GenChk RB3LYP/6-31G(2df,p) Fr
 eq
 ----------------------------------------------------------------------

 Structure from the checkpoint file:  "/scratch/puck/g09_7ac604a9-8b53-4d80-9e4b-227f8fe1e65d/Gau-65434.chk"
 -----
 titel
 -----
 Charge =  0 Multiplicity = 1

                         Standard orientation:
 ---------------------------------------------------------------------
 Center     Atomic      Atomic             Coordinates (Angstroms)
 Number     Number       Type             X           Y           Z
 ---------------------------------------------------------------------
      1          6           0        0.180702    2.116457   -0.235474
      2          6           0        0.073679    0.614112   -0.173814
      3          6           0        1.200549   -0.293609   -0.771572
      4          8           0        2.110424    0.051858    0.328517
      5          6           0        0.801111   -0.186595    0.960333
      6          6           0        0.563847   -1.436075    0.068207
      7          6           0       -0.913043   -1.553952   -0.277052
      8          6           0       -1.277502   -0.045028   -0.426937
      9          8           0       -2.187159    0.428056    0.557936
     10          1           0       -0.516184    2.578213    0.469692
     11          1           0        1.198669    2.429226    0.010328
     12          1           0       -0.065002    2.488220   -1.237020
     13          1           0        1.610551   -0.314035   -1.783077
     14          1           0        0.728721   -0.073464    2.042077
     15          1           0        1.165348   -2.323248    0.260995
     16          1           0       -1.083793   -2.126734   -1.194473
     17          1           0       -1.499949   -2.010637    0.525950
     18          1           0       -1.652511    0.187275   -1.435110
     19          1           0       -3.048027    0.034010    0.386866
 ---------------------------------------------------------------------

 SCF Done:  E(RB3LYP) =  -423.129450388     A.U. after    1 cycles

 The electronic state is 1-A.
 Alpha  occ. eigenvalues --  -19.13996 -19.12620 -10.24101 -10.23874 -10.23378
 Alpha  occ. eigenvalues --  -10.19590 -10.19470 -10.18431 -10.16810  -1.05392
 Alpha  occ. eigenvalues --   -1.02098  -0.84310  -0.74500  -0.69886  -0.65421
 Alpha  occ. eigenvalues --   -0.64845  -0.57851  -0.51790  -0.51547  -0.49322
 Alpha  occ. eigenvalues --   -0.46899  -0.43606  -0.42297  -0.40940  -0.38992
 Alpha  occ. eigenvalues --   -0.37750  -0.36312  -0.35543  -0.33531  -0.31078
 Alpha  occ. eigenvalues --   -0.30632  -0.29614  -0.26959  -0.22874
 Alpha virt. eigenvalues --    0.06853   0.09050   0.11550   0.12385   0.12620
 Alpha virt. eigenvalues --    0.13218   0.14464   0.14508   0.15869   0.16176
 Alpha virt. eigenvalues --    0.17486   0.17961   0.19948   0.20526   0.21731

 Mulliken charges:
               1
     1  C   -0.514461
     2  C    0.369219
     3  C   -0.005737
     4  O   -0.322965
     5  C    0.019846
     6  C   -0.036974
     7  C   -0.291080
     8  C    0.040147
     9  O   -0.440344
    10  H    0.133677
    11  H    0.133620
    12  H    0.109613
    13  H    0.084372
    14  H    0.092142
    15  H    0.079255
    16  H    0.098832
    17  H    0.102881
    18  H    0.063486
    19  H    0.284471
 Sum of Mulliken charges =   0.00000

 Dipole moment (field-independent basis, Debye):
    X=             -2.3545    Y=             -1.2741    Z=             -1.2401  Tot=              2.9503
 Quadrupole moment (field-independent basis, Debye-Ang):
   XX=            -54.4622   YY=            -52.8898   ZZ=            -51.0548
   XY=              1.5540   XZ=              0.0013   YZ=             -0.5370

  Exact polarizability:  77.052   0.537  77.637  -0.439  -0.059  68.467
 Approx polarizability: 112.882   0.712 106.448  -1.223   1.290 110.254

                      1                      2                      3
                      A                      A                      A
 Frequencies --    108.3163               228.9786               244.6905
 Red. masses --      3.7089                 1.1401                 2.4782
 Frc consts  --      0.0256                 0.0352                 0.0874
 IR Inten    --      0.7992                 2.0461                 2.8742

                      4                      5                      6
                      A                      A                      A
 Frequencies --    277.4625               299.6442               314.0164
 Red. masses --      1.1920                 2.1562                 2.7249
 Frc consts  --      0.0541                 0.1141                 0.1583
 IR Inten    --     82.2347                13.0924                 0.6093

                      7                      8                      9
                      A                      A                      A
 Frequencies --    394.5906               491.0552               524.2204
 Red. masses --      2.9432                 4.8562                 3.4550
 Frc consts  --      0.2700                 0.6899                 0.5594
 IR Inten    --     11.7920                 5.7712                 1.8386

                     10                     11                     12
                      A                      A                      A
 Frequencies --    661.7649               686.5603               712.6335
 Red. masses --      4.4241                 4.1282                 3.7661
 Frc consts  --      1.1415                 1.1465                 1.1269
 IR Inten    --      7.5903                 2.3778                 0.1074

                     13                     14                     15
                      A                      A                      A
 Frequencies --    776.6623               791.1827               856.9705
 Red. masses --      2.9789                 3.3721                 2.3362
 Frc consts  --      1.0587                 1.2436                 1.0108
 IR Inten    --      6.1354                 2.2058                 0.8616

                     16                     17                     18
                      A                      A                      A
 Frequencies --    884.4468               897.3697               920.3500
 Red. masses --      3.1687                 2.4799                 2.7466
 Frc consts  --      1.4604                 1.1766                 1.3707
 IR Inten    --     11.3657                38.8387                 5.3947

                     19                     20                     21
                      A                      A                      A
 Frequencies --    947.1599               991.6979              1006.0326
 Red. masses --      1.6486                 1.4444                 1.5568
 Frc consts  --      0.8714                 0.8369                 0.9283
 IR Inten    --      9.7625                 4.3091                 6.7881

                     22                     23                     24
                      A                      A                      A
 Frequencies --   1035.2201              1080.1377              1098.2543
 Red. masses --      2.2367                 2.5926                 2.3676
 Frc consts  --      1.4123                 1.7822                 1.6825
 IR Inten    --     23.3606                 1.9455                27.1893

                     25                     26                     27
                      A                      A                      A
 Frequencies --   1120.3776              1151.3222              1171.7108
 Red. masses --      1.5400                 1.4495                 1.4203
 Frc consts  --      1.1390                 1.1321                 1.1488
 IR Inten    --     16.1139                 3.5801                 3.1076

                     28                     29                     30
                      A                      A                      A
 Frequencies --   1185.8057              1217.9559              1228.3613
 Red. masses --      2.2798                 1.5035                 1.6246
 Frc consts  --      1.8887                 1.3141                 1.4443
 IR Inten    --      7.6271                22.0313                 5.6481

                     31                     32                     33
                      A                      A                      A
 Frequencies --   1237.9245              1262.6723              1282.9284
 Red. masses --      1.5962                 1.5625                 1.6754
 Frc consts  --      1.4412                 1.4677                 1.6247
 IR Inten    --     18.3685                26.6728                10.6484

                     34                     35                     36
                      A                      A                      A
 Frequencies --   1296.7345              1341.4350              1367.3629
 Red. masses --      2.3840                 1.5583                 1.7862
 Frc consts  --      2.3619                 1.6521                 1.9676
 IR Inten    --      8.8797                 4.8620                 6.2373

                     37                     38                     39
                      A                      A                      A
 Frequencies --   1402.5125              1435.5195              1484.9431
 Red. masses --      1.4014                 1.6490                 1.1033
 Frc consts  --      1.6242                 2.0021                 1.4334
 IR Inten    --      6.7138                 3.5383                 1.8479

                     40                     41                     42
                      A                      A                      A
 Frequencies --   1493.5667              1497.4084              2983.1880
 Red. masses --      1.0547                 1.0528                 1.0842
 Frc consts  --      1.3862                 1.3909                 5.6849
 IR Inten    --      3.5684                 5.7219                50.7675

                     43                     44                     45
                      A                      A                      A
 Frequencies --   3034.7812              3045.2361              3091.2214
 Red. masses --      1.0384                 1.0593                 1.1056
 Frc consts  --      5.6344                 5.7879                 6.2248
 IR Inten    --     30.8403                35.6929                17.5399

                     46                     47                     48
                      A                      A                      A
 Frequencies --   3098.9458              3099.9021              3118.1272
 Red. masses --      1.0905                 1.0964                 1.0907
 Frc consts  --      6.1700                 6.2074                 6.2483
 IR Inten    --     64.1397                13.6077                29.7139

                     49                     50                     51
                      A                      A                      A
 Frequencies --   3126.8554              3137.7046              3821.6835
 Red. masses --      1.1017                 1.0925                 1.0664
 Frc consts  --      6.3464                 6.3371                 9.1763
 IR Inten    --      8.0658                32.4474                20.9547

 - Thermochemistry -
 -------------------
 Temperature   298.150 Kelvin.  Pressure   1.00000 Atm.
 Atom     1 has atomic number  6 and mass  12.00000

 Molecular mass:   126.06808 amu.
 Principal axes and moments of inertia in atomic units:
                           1         2         3
     Eigenvalues --   684.54886 966.720541349.48226
           X            0.99927   0.03818   0.00262
           Y           -0.03816   0.99924  -0.00754
           Z           -0.00291   0.00743   0.99997
 This molecule is an asymmetric top.
 Rotational symmetry number  1.
 Warning -- assumption of classical behavior for rotation
           may cause significant error
 Rotational temperatures (Kelvin)      0.12653     0.08960     0.06418
 Rotational constants (GHZ):           2.63640     1.86687     1.33736
 Zero-point vibrational energy     418487.2 (Joules/Mol)
                                  100.02085 (Kcal/Mol)
 Warning -- explicit consideration of   9 degrees of freedom as
           vibrations may cause significant error
 Vibrational temperatures:    155.84   329.45   352.05   399.21   431.12
          (Kelvin)            451.80   567.73   706.52   754.24   952.13
                              987.81  1025.32  1117.44  1138.33  1232.99
                             1272.52  1291.11  1324.18  1362.75  1426.83
                             1447.45  1489.45  1554.08  1580.14  1611.97
                             1656.49  1685.83  1706.11  1752.36  1767.34
                             1781.10  1816.70  1845.85  1865.71  1930.02
                             1967.33  2017.90  2065.39  2136.50  2148.91
                             2154.43  4292.14  4366.37  4381.41  4447.57
                             4458.69  4460.06  4486.28  4498.84  4514.45
                             5498.54

 Zero-point correction=                           0.159393 (Hartree/Particle)
 Thermal correction to Energy=                    0.167138
 Thermal correction to Enthalpy=                  0.168083
 Thermal correction to Gibbs Free Energy=         0.127583
 Sum of electronic and zero-point Energies=           -422.970057
 Sum of electronic and thermal Energies=              -422.962312
 Sum of electronic and thermal Enthalpies=            -422.961368
 Sum of electronic and thermal Free Energies=         -423.001867

                     E (Thermal)             CV                S
                      KCal/Mol        Cal/Mol-Kelvin    Cal/Mol-Kelvin
 Total                  104.881             31.205             85.238
 Electronic               0.000              0.000              0.000
 Translational            0.889              2.981             40.409
 Rotational               0.889              2.981             28.281
 Vibrational            103.103             25.244             16.548
 Vibration     1          0.606              1.943              3.299
 Vibration     2          0.652              1.797              1.887
 Vibration     3          0.660              1.772              1.769
 Vibration     4          0.678              1.715              1.549
 Vibration     5          0.692              1.674              1.419
 Vibration     6          0.702              1.647              1.341
 Vibration     7          0.762              1.482              0.983
 Vibration     8          0.847              1.270              0.681
 Vibration     9          0.879              1.196              0.600

 Normal termination of Gaussian 09 at Tue Jan 28 03:58:05 2020.
