 Gaussian 09, Revision D.01,
 Gaussian 09:  ES64L-G09RevD.01 24-Apr-2013

 -----------------------------
 # b3lyp 6-31G(2df,p) opt Freq
 -----------------------------

 -----
 titel
 -----
 Symbolic Z-matrix:
 Charge =  0 Multiplicity = 1

 SCF Done:  E(RB3LYP) =  -423.134008949     A.U. after   12 cycles
 Optimization completed.
    -- Stationary point found.
 Normal termination of Gaussian 09 at Tue Jan 28 01:52:11 2020.

 ----------------------------------------------------------------------
 #N Geom=AllCheck Guess=TCheck SCRF=Check GenChk RB3LYP/6-31G(2df,p) Fr
 eq
 ----------------------------------------------------------------------

 Structure from the checkpoint file:  "/scratch/puck/g09_2802a317-14c5-426e-88a9-e581635ced09/Gau-187350.chk"
 -----
 titel
 -----
 Charge =  0 Multiplicity = 1

                         Standard orientation:
 ---------------------------------------------------------------------
 Center     Atomic      Atomic             Coordinates (Angstroms)
 Number     Number       Type             X           Y           Z
 ---------------------------------------------------------------------
      1          6           0       -2.884461   -0.970184   -0.248452
      2          6           0       -2.027206    0.255796   -0.419254
      3          8           0       -1.682375    0.981191    0.776943
      4          6           0       -0.644838    0.337367    0.057446
      5          6           0        0.256405   -0.749283    0.670204
      6          6           0        1.452069   -0.023111    0.031129
      7          6           0        2.860479   -0.000922    0.420082
      8          8           0        2.418733   -0.695601   -0.756482
      9          6           0        0.558201    1.094392   -0.530778
     10          1           0       -3.923092   -0.688390   -0.046568
     11          1           0       -2.872555   -1.575721   -1.161400
     12          1           0       -2.529603   -1.584445    0.583123
     13          1           0       -2.303056    0.905290   -1.252942
     14          1           0        0.250652   -0.758078    1.763661
     15          1           0        0.099944   -1.765891    0.298715
     16          1           0        3.459284    0.890966    0.238066
     17          1           0        3.208796   -0.636270    1.233805
     18          1           0        0.713441    2.079696   -0.082173
     19          1           0        0.581430    1.183792   -1.620246
 ---------------------------------------------------------------------

 SCF Done:  E(RB3LYP) =  -423.134008949     A.U. after    1 cycles

 The electronic state is 1-A.
 Alpha  occ. eigenvalues --  -19.15104 -19.14663 -10.24547 -10.24166 -10.23687
 Alpha  occ. eigenvalues --  -10.23350 -10.18860 -10.18771 -10.18458  -1.07296
 Alpha  occ. eigenvalues --   -1.06812  -0.83196  -0.74667  -0.68308  -0.66609
 Alpha  occ. eigenvalues --   -0.62308  -0.58180  -0.53543  -0.50739  -0.49186
 Alpha  occ. eigenvalues --   -0.47469  -0.45574  -0.43458  -0.42212  -0.40689
 Alpha  occ. eigenvalues --   -0.39878  -0.38377  -0.35358  -0.34179  -0.33383
 Alpha  occ. eigenvalues --   -0.31164  -0.27741  -0.26789  -0.25650
 Alpha virt. eigenvalues --    0.05506   0.09966   0.10539   0.11002   0.12658
 Alpha virt. eigenvalues --    0.13068   0.13398   0.14551   0.14811   0.16050
 Alpha virt. eigenvalues --    0.16987   0.17893   0.18156   0.18752   0.20024

 Mulliken charges:
               1
     1  C   -0.417256
     2  C   -0.018395
     3  O   -0.291867
     4  C    0.425092
     5  C   -0.397557
     6  C    0.436056
     7  C   -0.262091
     8  O   -0.264238
     9  C   -0.399006
    10  H    0.131327
    11  H    0.123709
    12  H    0.128492
    13  H    0.089681
    14  H    0.120485
    15  H    0.120902
    16  H    0.116413
    17  H    0.116134
    18  H    0.121183
    19  H    0.120935
 Sum of Mulliken charges =   0.00000

 Dipole moment (field-independent basis, Debye):
    X=             -0.1760    Y=             -0.1447    Z=              0.0358  Tot=              0.2306
 Quadrupole moment (field-independent basis, Debye-Ang):
   XX=            -52.5786   YY=            -53.6541   ZZ=            -53.7339
   XY=              5.3458   XZ=              7.0373   YZ=             -3.2087

  Exact polarizability:  97.325   3.633  68.235   5.832  -3.410  64.473
 Approx polarizability: 119.215   0.631 100.855   4.694   1.639 102.978

                      1                      2                      3
                      A                      A                      A
 Frequencies --     18.8311               159.0362               184.5747
 Red. masses --      3.7115                 2.5466                 1.1294
 Frc consts  --      0.0008                 0.0379                 0.0227
 IR Inten    --      2.5347                 0.4994                 0.2976

                      4                      5                      6
                      A                      A                      A
 Frequencies --    201.3074               295.0848               312.6659
 Red. masses --      2.6415                 2.6148                 3.1376
 Frc consts  --      0.0631                 0.1341                 0.1807
 IR Inten    --      2.9294                 0.1968                 4.4766

                      7                      8                      9
                      A                      A                      A
 Frequencies --    348.9902               402.1190               426.4606
 Red. masses --      3.2733                 1.8906                 4.2304
 Frc consts  --      0.2349                 0.1801                 0.4533
 IR Inten    --      3.1306                 5.5650                 1.3618

                     10                     11                     12
                      A                      A                      A
 Frequencies --    461.4937               504.1653               663.2314
 Red. masses --      3.1395                 3.0805                 3.2421
 Frc consts  --      0.3940                 0.4613                 0.8402
 IR Inten    --      4.7633                 0.6555                 8.3526

                     13                     14                     15
                      A                      A                      A
 Frequencies --    770.0059               817.8537               826.0170
 Red. masses --      2.9357                 1.6690                 3.0727
 Frc consts  --      1.0255                 0.6577                 1.2352
 IR Inten    --     24.2885                 5.9909                23.7376

                     16                     17                     18
                      A                      A                      A
 Frequencies --    855.8742               889.6798               904.7647
 Red. masses --      3.9685                 1.4982                 3.8869
 Frc consts  --      1.7128                 0.6987                 1.8747
 IR Inten    --      3.5015                 1.5838                24.0058

                     19                     20                     21
                      A                      A                      A
 Frequencies --    961.6397               964.3682              1031.6378
 Red. masses --      2.2513                 2.0269                 2.7494
 Frc consts  --      1.2266                 1.1106                 1.7240
 IR Inten    --     20.7397                 7.0143                16.7393

                     22                     23                     24
                      A                      A                      A
 Frequencies --   1047.6398              1099.2569              1121.2123
 Red. masses --      1.0364                 2.4237                 2.2360
 Frc consts  --      0.6702                 1.7256                 1.6561
 IR Inten    --      0.5059                 5.6645                23.3241

                     25                     26                     27
                      A                      A                      A
 Frequencies --   1126.1752              1133.3027              1155.1409
 Red. masses --      1.3916                 2.2006                 1.5428
 Frc consts  --      1.0399                 1.6653                 1.2129
 IR Inten    --      7.4327                 2.2815                 8.6820

                     28                     29                     30
                      A                      A                      A
 Frequencies --   1169.8948              1209.5590              1214.2328
 Red. masses --      1.5815                 1.4175                 1.6354
 Frc consts  --      1.2753                 1.2219                 1.4206
 IR Inten    --      8.7476                 0.0175                 2.5855

                     31                     32                     33
                      A                      A                      A
 Frequencies --   1220.9658              1237.3309              1352.7915
 Red. masses --      2.6270                 1.5640                 1.3592
 Frc consts  --      2.3073                 1.4108                 1.4655
 IR Inten    --     10.5713                 2.5746                18.9880

                     34                     35                     36
                      A                      A                      A
 Frequencies --   1408.2998              1428.9062              1448.3742
 Red. masses --      1.2797                 2.0990                 1.0946
 Frc consts  --      1.4953                 2.5251                 1.3528
 IR Inten    --      4.9495                23.6182                 7.7104

                     37                     38                     39
                      A                      A                      A
 Frequencies --   1461.0889              1479.3435              1490.4239
 Red. masses --      1.2715                 1.1253                 1.0823
 Frc consts  --      1.5993                 1.4510                 1.4165
 IR Inten    --      5.0451                 2.7143                 5.5436

                     40                     41                     42
                      A                      A                      A
 Frequencies --   1519.8031              1543.4597              3036.4132
 Red. masses --      1.9297                 2.1546                 1.0360
 Frc consts  --      2.6262                 3.0242                 5.6278
 IR Inten    --     12.6081                 2.2896                17.4251

                     43                     44                     45
                      A                      A                      A
 Frequencies --   3055.1801              3059.4855              3078.0745
 Red. masses --      1.0573                 1.0595                 1.0504
 Frc consts  --      5.8148                 5.8429                 5.8634
 IR Inten    --     22.7082                 0.3483                26.8755

                     46                     47                     48
                      A                      A                      A
 Frequencies --   3084.1243              3100.3428              3112.0021
 Red. masses --      1.0869                 1.1006                 1.1079
 Frc consts  --      6.0910                 6.2329                 6.3215
 IR Inten    --     21.2620                16.5653                15.7766

                     49                     50                     51
                      A                      A                      A
 Frequencies --   3113.5147              3125.0472              3164.2546
 Red. masses --      1.1069                 1.1009                 1.1194
 Frc consts  --      6.3222                 6.3345                 6.6034
 IR Inten    --      2.6664                26.9505                21.3661

 - Thermochemistry -
 -------------------
 Temperature   298.150 Kelvin.  Pressure   1.00000 Atm.
 Atom     1 has atomic number  6 and mass  12.00000

 Molecular mass:   126.06808 amu.
 Principal axes and moments of inertia in atomic units:
                           1         2         3
     Eigenvalues --   419.652851867.683241983.45599
           X            0.99934   0.03226   0.01684
           Y           -0.02964   0.99002  -0.13781
           Z           -0.02111   0.13722   0.99032
 This molecule is an asymmetric top.
 Rotational symmetry number  1.
 Rotational temperatures (Kelvin)      0.20639     0.04638     0.04367
 Rotational constants (GHZ):           4.30056     0.96630     0.90990
 Zero-point vibrational energy     411488.1 (Joules/Mol)
                                   98.34802 (Kcal/Mol)
 Warning -- explicit consideration of  11 degrees of freedom as
           vibrations may cause significant error
 Vibrational temperatures:     27.09   228.82   265.56   289.64   424.56
          (Kelvin)            449.86   502.12   578.56   613.58   663.99
                              725.38   954.24  1107.87  1176.71  1188.45
                             1231.41  1280.05  1301.75  1383.58  1387.51
                             1484.29  1507.32  1581.58  1613.17  1620.31
                             1630.57  1661.99  1683.22  1740.28  1747.01
                             1756.70  1780.24  1946.36  2026.23  2055.87
                             2083.88  2102.18  2128.44  2144.38  2186.65
                             2220.69  4368.72  4395.72  4401.91  4428.66
                             4437.36  4460.70  4477.47  4479.65  4496.24
                             4552.65

 Zero-point correction=                           0.156728 (Hartree/Particle)
 Thermal correction to Energy=                    0.165423
 Thermal correction to Enthalpy=                  0.166367
 Thermal correction to Gibbs Free Energy=         0.122390
 Sum of electronic and zero-point Energies=           -422.977281
 Sum of electronic and thermal Energies=              -422.968586
 Sum of electronic and thermal Enthalpies=            -422.967642
 Sum of electronic and thermal Free Energies=         -423.011619

                     E (Thermal)             CV                S
                      KCal/Mol        Cal/Mol-Kelvin    Cal/Mol-Kelvin
 Total                  103.804             32.893             92.557
 Electronic               0.000              0.000              0.000
 Translational            0.889              2.981             40.409
 Rotational               0.889              2.981             28.832
 Vibrational            102.027             26.931             23.316
 Vibration     1          0.593              1.986              6.754
 Vibration     2          0.621              1.892              2.561
 Vibration     3          0.631              1.861              2.282
 Vibration     4          0.638              1.838              2.121
 Vibration     5          0.689              1.683              1.445
 Vibration     6          0.701              1.650              1.348
 Vibration     7          0.726              1.577              1.171
 Vibration     8          0.768              1.466              0.955
 Vibration     9          0.788              1.413              0.870
 Vibration    10          0.819              1.335              0.762
 Vibration    11          0.859              1.241              0.648

 Optimization completed.
    -- Stationary point found.
 Normal termination of Gaussian 09 at Tue Jan 28 02:33:40 2020.
