 Gaussian 09, Revision D.01,
 Gaussian 09:  ES64L-G09RevD.01 24-Apr-2013

 -----------------------------
 # b3lyp 6-31G(2df,p) opt Freq
 -----------------------------

 -----
 titel
 -----
 Symbolic Z-matrix:
 Charge =  0 Multiplicity = 1

 SCF Done:  E(RB3LYP) =  -423.143659532     A.U. after   13 cycles
 Optimization completed.
    -- Stationary point found.
 Normal termination of Gaussian 09 at Tue Jan 28 11:38:26 2020.

 ----------------------------------------------------------------------
 #N Geom=AllCheck Guess=TCheck SCRF=Check GenChk RB3LYP/6-31G(2df,p) Fr
 eq
 ----------------------------------------------------------------------

 Structure from the checkpoint file:  "/scratch/puck/g09_a7bf3396-f618-4b02-b550-2a850d4eb8ba/Gau-26274.chk"
 -----
 titel
 -----
 Charge =  0 Multiplicity = 1

                         Standard orientation:
 ---------------------------------------------------------------------
 Center     Atomic      Atomic             Coordinates (Angstroms)
 Number     Number       Type             X           Y           Z
 ---------------------------------------------------------------------
      1          8           0        3.101606    0.233421   -0.209159
      2          6               3          6           0        0.683539   -0.178733   -0.390168
      4          6           0        0.212038    1.194128    0.182062
      5          6           0       -1.270848    0.970497    0.454658
      6          8           0       -1.906602    0.609627   -0.819346
      7          6           0       -1.850380   -0.762290   -0.427856
      8          6           0       -1.412077   -0.478655    0.972085
      9          6           0       -0.445430   -1.137853    0.003169
     10          1           0        2.941233    1.091999    0.195107
     11          1           0        2.300051   -1.610603   -0.246641
     12          1           0        1.972713   -0.737827    1.257659
     13          1           0        0.770624   -0.112188   -1.479545
     14          1           0        0.726211    1.430120    1.125353
     15          1           0        0.372385    2.023460   -0.512073
     16          1           0       -1.810463    1.776309    0.954702
     17          1           0       -2.578217   -1.443736   -0.852490
     18          1           0       -1.739558   -0.834185    1.938592
     19          1           0       -0.241939   -2.198445    0.112804
 ---------------------------------------------------------------------

 SCF Done:  E(RB3LYP) =  -423.143659532     A.U. after    1 cycles

 The electronic state is 1-A.
 Alpha  occ. eigenvalues --  -19.13415 -19.13326 -10.24101 -10.23947 -10.22493
 Alpha  occ. eigenvalues --  -10.19481 -10.19271 -10.18880 -10.18768  -1.05263
 Alpha  occ. eigenvalues --   -1.01421  -0.85080  -0.77851  -0.72547  -0.65219
 Alpha  occ. eigenvalues --   -0.60584  -0.56340  -0.53572  -0.53375  -0.50815
 Alpha  occ. eigenvalues --   -0.47939  -0.44648  -0.43848  -0.40820  -0.40641
 Alpha  occ. eigenvalues --   -0.38949  -0.36347  -0.34629  -0.33597  -0.31915
 Alpha  occ. eigenvalues --   -0.31308  -0.27268  -0.26707  -0.22816
 Alpha virt. eigenvalues --    0.07058   0.08739   0.10232   0.11007   0.12114
 Alpha virt. eigenvalues --    0.12762   0.13772   0.14676   0.15711   0.16445
 Alpha virt. eigenvalues --    0.17377   0.17686   0.19104   0.20398   0.22410

 Mulliken charges:
               1
     1  O   -0.422798
     2  C   -0.087457
     3  C    0.010356
     4  C   -0.245429
     5  C    0.085859
     6  O   -0.308613
     7  C    0.088990
     8  C   -0.158359
     9  C   -0.099295
    10  H    0.284537
    11  H    0.108265
    12  H    0.083430
    13  H    0.091007
    14  H    0.086845
    15  H    0.114942
    16  H    0.081222
    17  H    0.103676
    18  H    0.096363
    19  H    0.086460
 Sum of Mulliken charges =   0.00000

 Dipole moment (field-independent basis, Debye):
    X=             -0.6409    Y=             -0.3007    Z=              2.0232  Tot=              2.1435
 Quadrupole moment (field-independent basis, Debye-Ang):
   XX=            -61.3663   YY=            -48.3197   ZZ=            -53.5565
   XY=              4.1111   XZ=             -0.2165   YZ=              2.3884

  Exact polarizability:  80.826   1.514  74.665  -0.687   2.353  64.362
 Approx polarizability: 107.560   0.330 110.751   0.844   3.312 105.110

                      1                      2                      3
                      A                      A                      A
 Frequencies --     95.0672               133.1310               199.3522
 Red. masses --      3.9909                 2.8950                 2.5632
 Frc consts  --      0.0213                 0.0302                 0.0600
 IR Inten    --      0.9465                 4.2112                 4.4012

                      4                      5                      6
                      A                      A                      A
 Frequencies --    301.5242               339.5367               385.4197
 Red. masses --      1.2972                 4.1454                 1.9437
 Frc consts  --      0.0695                 0.2816                 0.1701
 IR Inten    --     92.3076                13.4947                 9.7473

                      7                      8                      9
                      A                      A                      A
 Frequencies --    443.1076               534.9853               671.1614
 Red. masses --      4.0030                 2.9821                 5.0058
 Frc consts  --      0.4631                 0.5029                 1.3285
 IR Inten    --      6.8606                 3.3895                 4.1505

                     10                     11                     12
                      A                      A                      A
 Frequencies --    720.3082               781.4831               797.5575
 Red. masses --      4.0052                 1.7626                 1.8287
 Frc consts  --      1.2244                 0.6342                 0.6854
 IR Inten    --      0.7744                 2.9044                16.7677

                     13                     14                     15
                      A                      A                      A
 Frequencies --    811.8753               848.1238               859.2073
 Red. masses --      3.6918                 2.2368                 2.7776
 Frc consts  --      1.4337                 0.9480                 1.2081
 IR Inten    --      8.1962                 1.1032                 9.1265

                     16                     17                     18
                      A                      A                      A
 Frequencies --    903.1796               930.2916               987.5948
 Red. masses --      1.8022                 1.5273                 2.3809
 Frc consts  --      0.8662                 0.7788                 1.3682
 IR Inten    --      5.0232                 5.1374                20.5140

                     19                     20                     21
                      A                      A                      A
 Frequencies --    994.8236              1010.2677              1029.3479
 Red. masses --      1.8721                 2.1818                 4.2860
 Frc consts  --      1.0916                 1.3120                 2.6756
 IR Inten    --     28.0160                 5.1977                48.5021

                     22                     23                     24
                      A                      A                      A
 Frequencies --   1046.9402              1062.4600              1076.7673
 Red. masses --      1.5421                 1.9667                 3.1111
 Frc consts  --      0.9959                 1.3080                 2.1252
 IR Inten    --     11.0546                15.6543                29.8250

                     25                     26                     27
                      A                      A                      A
 Frequencies --   1082.1836              1095.1832              1139.0890
 Red. masses --      2.0375                 2.2841                 2.0559
 Frc consts  --      1.4059                 1.6141                 1.5717
 IR Inten    --     52.4206                 9.4066                 9.8361

                     28                     29                     30
                      A                      A                      A
 Frequencies --   1161.2998              1219.8907              1228.2141
 Red. masses --      1.2551                 1.3301                 1.4672
 Frc consts  --      0.9973                 1.1662                 1.3040
 IR Inten    --     10.1813                 2.4820                 1.4525

                     31                     32                     33
                      A                      A                      A
 Frequencies --   1263.3742              1277.5796              1297.2334
 Red. masses --      1.3234                 1.4939                 1.6641
 Frc consts  --      1.2445                 1.4367                 1.6499
 IR Inten    --      1.1502                 9.9072                 4.1259

                     34                     35                     36
                      A                      A                      A
 Frequencies --   1299.7634              1330.2431              1360.2838
 Red. masses --      1.5547                 1.4378                 1.5152
 Frc consts  --      1.5475                 1.4990                 1.6518
 IR Inten    --     12.1076                 2.6933                 5.1698

                     37                     38                     39
                      A                      A                      A
 Frequencies --   1389.4173              1404.6756              1421.2935
 Red. masses --      1.2320                 2.4460                 1.2885
 Frc consts  --      1.4012                 2.8436                 1.5336
 IR Inten    --      6.2527                 3.7688                52.4456

                     40                     41                     42
                      A                      A                      A
 Frequencies --   1474.9787              1505.7142              2963.0998
 Red. masses --      1.1028                 1.0882                 1.0703
 Frc consts  --      1.4136                 1.4536                 5.5366
 IR Inten    --      0.8029                 1.4553                49.0918

                     43                     44                     45
                      A                      A                      A
 Frequencies --   3006.4577              3053.1948              3070.1582
 Red. masses --      1.0681                 1.0832                 1.0928
 Frc consts  --      5.6881                 5.9492                 6.0690
 IR Inten    --     33.1971                11.6461                39.7573

                     46                     47                     48
                      A                      A                      A
 Frequencies --   3095.2100              3104.5262              3165.6099
 Red. masses --      1.0942                 1.0908                 1.0888
 Frc consts  --      6.1765                 6.1944                 6.4285
 IR Inten    --     24.7137                42.7342                 7.4545

                     49                     50                     51
                      A                      A                      A
 Frequencies --   3182.8614              3213.2090              3817.1103
 Red. masses --      1.0919                 1.0992                 1.0659
 Frc consts  --      6.5174                 6.6868                 9.1507
 IR Inten    --     26.7252                11.2416                12.2129

 - Thermochemistry -
 -------------------
 Temperature   298.150 Kelvin.  Pressure   1.00000 Atm.
 Atom     1 has atomic number  8 and mass  15.99491

 Molecular mass:   126.06808 amu.
 Principal axes and moments of inertia in atomic units:
                           1         2         3
     Eigenvalues --   456.550881527.927981693.15964
           X            0.99997   0.00747  -0.00237
           Y           -0.00739   0.99948   0.03138
           Z            0.00261  -0.03136   0.99950
 This molecule is an asymmetric top.
 Rotational symmetry number  1.
 Warning -- assumption of classical behavior for rotation
           may cause significant error
 Rotational temperatures (Kelvin)      0.18971     0.05669     0.05116
 Rotational constants (GHZ):           3.95299     1.18117     1.06590
 Zero-point vibrational energy     422194.3 (Joules/Mol)
                                  100.90685 (Kcal/Mol)
 Warning -- explicit consideration of   8 degrees of freedom as
           vibrations may cause significant error
 Vibrational temperatures:    136.78   191.55   286.82   433.83   488.52
          (Kelvin)            554.53   637.53   769.72   965.65  1036.36
                             1124.38  1147.51  1168.11  1220.26  1236.21
                             1299.47  1338.48  1420.93  1431.33  1453.55
                             1481.00  1506.31  1528.64  1549.23  1557.02
                             1575.72  1638.89  1670.85  1755.15  1767.12
                             1817.71  1838.15  1866.43  1870.07  1913.92
                             1957.14  1999.06  2021.01  2044.92  2122.16
                             2166.38  4263.23  4325.62  4392.86  4417.27
                             4453.31  4466.72  4554.60  4579.42  4623.09
                             5491.96

 Zero-point correction=                           0.160805 (Hartree/Particle)
 Thermal correction to Energy=                    0.168352
 Thermal correction to Enthalpy=                  0.169297
 Thermal correction to Gibbs Free Energy=         0.128636
 Sum of electronic and zero-point Energies=           -422.982854
 Sum of electronic and thermal Energies=              -422.975307
 Sum of electronic and thermal Enthalpies=            -422.974363
 Sum of electronic and thermal Free Energies=         -423.015024

                     E (Thermal)             CV                S
                      KCal/Mol        Cal/Mol-Kelvin    Cal/Mol-Kelvin
 Total                  105.643             29.941             85.578
 Electronic               0.000              0.000              0.000
 Translational            0.889              2.981             40.409
 Rotational               0.889              2.981             28.559
 Vibrational            103.865             23.979             16.610
 Vibration     1          0.603              1.953              3.553
 Vibration     2          0.613              1.920              2.900
 Vibration     3          0.637              1.841              2.139
 Vibration     4          0.694              1.671              1.408
 Vibration     5          0.719              1.596              1.214
 Vibration     6          0.754              1.501              1.018
 Vibration     7          0.803              1.376              0.817
 Vibration     8          0.890              1.173              0.576

 Optimization completed.
    -- Stationary point found.
 Normal termination of Gaussian 09 at Tue Jan 28 12:22:31 2020.
 Normal termination of Gaussian 09 at Tue Jan 28 12:05:07 2020.
