 Gaussian 09, Revision D.01,
 Gaussian 09:  ES64L-G09RevD.01 24-Apr-2013

 -----------------------------
 # b3lyp 6-31G(2df,p) opt Freq
 -----------------------------

 -----
 titel
 -----
 Symbolic Z-matrix:
 Charge =  0 Multiplicity = 1

 SCF Done:  E(RB3LYP) =  -423.093441060     A.U. after   13 cycles
 Optimization completed.
    -- Stationary point found.
 Normal termination of Gaussian 09 at Tue Jan 28 13:59:56 2020.

 ----------------------------------------------------------------------
 #N Geom=AllCheck Guess=TCheck SCRF=Check GenChk RB3LYP/6-31G(2df,p) Fr
 eq
 ----------------------------------------------------------------------

 Structure from the checkpoint file:  "/scratch/puck/g09_7c57b653-c35c-487d-bf00-a0596af37bee/Gau-15395.chk"
 -----
 titel
 -----
 Charge =  0 Multiplicity = 1

                         Standard orientation:
 ---------------------------------------------------------------------
 Center     Atomic      Atomic             Coordinates (Angstroms)
 Number     Number       Type             X           Y           Z
 ---------------------------------------------------------------------
      1          8           0       -3.015514    0.791971    0.503595
      2          6           0       -2.413601   -0.269854   -0.224426
      3          6           0       -0.977466   -0.394207    0.220409
      4          6           0       -0.006665   -0.942018   -0.795756
      5          6           0        1.454330   -1.099563   -0.284876
      6          6           0        1.664446   -0.620691    1.144416
      7          6           0        1.478428    0.384531    0.062772
      8          8           0        2.431315    1.363701   -0.139438
      9          6           0        0.009935    0.533909   -0.441674
     10          1           0       -3.953722    0.804417    0.292004
     11          1           0       -2.935613   -1.222503   -0.040917
     12          1           0       -2.451029   -0.080495   -1.310272
     13          1           0       -0.884809   -0.641697    1.272406
     14          1           0       -0.346325   -1.403255   -1.715403
     15          1           0        2.189786   -1.716587   -0.784833
     16          1           0        0.958247   -0.791873    1.950029
     17          1           0        2.703013   -0.698389    1.453061
     18          1           0        2.454163    1.571674   -1.080682
     19          1           0       -0.316565    1.380688   -1.033846
 ---------------------------------------------------------------------

 SCF Done:  E(RB3LYP) =  -423.093441060     A.U. after    1 cycles

 The electronic state is 1-A.
 Alpha  occ. eigenvalues --  -19.14668 -19.13187 -10.23797 -10.22980 -10.19234
 Alpha  occ. eigenvalues --  -10.19069 -10.18621 -10.18569 -10.18188  -1.03236
 Alpha  occ. eigenvalues --   -1.01310  -0.90883  -0.80438  -0.69810  -0.63020
 Alpha  occ. eigenvalues --   -0.60852  -0.55570  -0.55014  -0.52095  -0.50144
 Alpha  occ. eigenvalues --   -0.48760  -0.45549  -0.43075  -0.41655  -0.38571
 Alpha  occ. eigenvalues --   -0.37220  -0.36692  -0.34739  -0.33115  -0.30062
 Alpha  occ. eigenvalues --   -0.28407  -0.27074  -0.26399  -0.20269
 Alpha virt. eigenvalues --    0.06887   0.08124   0.09096   0.09904   0.11453
 Alpha virt. eigenvalues --    0.12870   0.14869   0.15812   0.16424   0.17446
 Alpha virt. eigenvalues --    0.18772   0.20446   0.21997   0.22517   0.22742

 Mulliken charges:
               1
     1  O   -0.419689
     2  C   -0.118278
     3  C   -0.009719
     4  C   -0.075227
     5  C   -0.169222
     6  C   -0.336683
     7  C    0.403669
     8  O   -0.450931
     9  C   -0.146786
    10  H    0.285538
    11  H    0.089183
    12  H    0.079826
    13  H    0.090197
    14  H    0.083139
    15  H    0.090825
    16  H    0.114964
    17  H    0.118136
    18  H    0.283676
    19  H    0.087384
 Sum of Mulliken charges =   0.00000

 Dipole moment (field-independent basis, Debye):
    X=             -1.2611    Y=             -1.0720    Z=             -2.1514  Tot=              2.7144
 Quadrupole moment (field-independent basis, Debye-Ang):
   XX=            -46.6356   YY=            -55.1762   ZZ=            -50.7393
   XY=             -0.2209   XZ=             -0.6541   YZ=             -3.3689

  Exact polarizability:  90.204  -0.481  68.222   1.513  -0.929  67.896
 Approx polarizability: 113.053   1.325 109.790   0.016   1.166 106.030

                      1                      2                      3
                      A                      A                      A
 Frequencies --     81.0387               143.3223               202.7603
 Red. masses --      4.0836                 4.6828                 2.1918
 Frc consts  --      0.0158                 0.0567                 0.0531
 IR Inten    --      1.4639                 1.4188                12.4267

                      4                      5                      6
                      A                      A                      A
 Frequencies --    236.0639               260.9251               334.2897
 Red. masses --      2.7618                 1.2143                 1.2020
 Frc consts  --      0.0907                 0.0487                 0.0791
 IR Inten    --     14.4801                83.1689                70.0195

                      7                      8                      9
                      A                      A                      A
 Frequencies --    376.4954               376.9998               424.7764
 Red. masses --      3.6450                 4.0467                 2.4775
 Frc consts  --      0.3044                 0.3389                 0.2634
 IR Inten    --      5.2094                 9.1507                29.8837

                     10                     11                     12
                      A                      A                      A
 Frequencies --    474.2771               518.7284               627.3625
 Red. masses --      2.6506                 2.7434                 3.8504
 Frc consts  --      0.3513                 0.4349                 0.8929
 IR Inten    --      0.1009                 6.9267                10.9916

                     13                     14                     15
                      A                      A                      A
 Frequencies --    736.9325               790.3422               833.9804
 Red. masses --      2.6990                 1.5096                 3.1294
 Frc consts  --      0.8636                 0.5556                 1.2824
 IR Inten    --      3.0337                 2.4217                 0.9274

                     16                     17                     18
                      A                      A                      A
 Frequencies --    866.2791               879.3317               898.9266
 Red. masses --      2.6473                 1.8138                 2.2765
 Frc consts  --      1.1705                 0.8263                 1.0838
 IR Inten    --     19.1342                 7.0007                 4.8309

                     19                     20                     21
                      A                      A                      A
 Frequencies --    943.5701               972.1693               984.7002
 Red. masses --      1.7149                 1.8594                 1.9582
 Frc consts  --      0.8996                 1.0354                 1.1187
 IR Inten    --      8.0775                 5.9757                 8.6580

                     22                     23                     24
                      A                      A                      A
 Frequencies --   1016.8697              1025.7088              1059.0734
 Red. masses --      1.8056                 1.3833                 2.0914
 Frc consts  --      1.1000                 0.8575                 1.3821
 IR Inten    --      0.9708                11.3594                 9.1110

                     25                     26                     27
                      A                      A                      A
 Frequencies --   1065.9662              1078.5026              1096.9839
 Red. masses --      1.5471                 2.3628                 1.5815
 Frc consts  --      1.0357                 1.6193                 1.1213
 IR Inten    --     28.9528                17.4523                14.6179

                     28                     29                     30
                      A                      A                      A
 Frequencies --   1120.9760              1167.8595              1185.9793
 Red. masses --      1.8926                 1.7407                 1.6903
 Frc consts  --      1.4012                 1.3988                 1.4008
 IR Inten    --     38.1685                 8.6341                10.8250

                     31                     32                     33
                      A                      A                      A
 Frequencies --   1238.1117              1244.2829              1253.5396
 Red. masses --      1.5579                 1.4578                 1.3255
 Frc consts  --      1.4070                 1.3298                 1.2272
 IR Inten    --     10.9017                 1.7077                50.9090

                     34                     35                     36
                      A                      A                      A
 Frequencies --   1274.0904              1291.2413              1317.2196
 Red. masses --      1.6046                 1.3986                 1.9167
 Frc consts  --      1.5347                 1.3739                 1.9594
 IR Inten    --     10.9342                79.0278               152.5979

                     37                     38                     39
                      A                      A                      A
 Frequencies --   1392.1975              1439.0972              1468.3563
 Red. masses --      1.9436                 1.7458                 1.6681
 Frc consts  --      2.2195                 2.1302                 2.1191
 IR Inten    --      2.1625                10.5905                15.5951

                     40                     41                     42
                      A                      A                      A
 Frequencies --   1508.2268              1518.8784              2958.0027
 Red. masses --      1.5408                 1.0833                 1.0570
 Frc consts  --      2.0650                 1.4724                 5.4489
 IR Inten    --     19.9837                 4.4022                57.2156

                     43                     44                     45
                      A                      A                      A
 Frequencies --   2988.7254              3122.2224              3162.8112
 Red. masses --      1.1035                 1.0564                 1.0865
 Frc consts  --      5.8077                 6.0675                 6.4037
 IR Inten    --     61.3222                 9.6257                16.8056

                     46                     47                     48
                      A                      A                      A
 Frequencies --   3174.2095              3184.8079              3195.5804
 Red. masses --      1.0881                 1.0942                 1.0976
 Frc consts  --      6.4597                 6.5393                 6.6040
 IR Inten    --     13.1106                13.3482                 7.7287

                     49                     50                     51
                      A                      A                      A
 Frequencies --   3205.1134              3783.7959              3825.6458
 Red. masses --      1.1100                 1.0658                 1.0663
 Frc consts  --      6.7185                 8.9906                 9.1944
 IR Inten    --     18.3438                16.7846                17.9246

 - Thermochemistry -
 -------------------
 Temperature   298.150 Kelvin.  Pressure   1.00000 Atm.
 Atom     1 has atomic number  8 and mass  15.99491

 Molecular mass:   126.06808 amu.
 Principal axes and moments of inertia in atomic units:
                           1         2         3
     Eigenvalues --   492.599541800.610961955.23564
           X            0.99996  -0.00292   0.00841
           Y            0.00337   0.99855  -0.05379
           Z           -0.00824   0.05382   0.99852
 This molecule is an asymmetric top.
 Rotational symmetry number  1.
 Warning -- assumption of classical behavior for rotation
           may cause significant error
 Rotational temperatures (Kelvin)      0.17583     0.04810     0.04430
 Rotational constants (GHZ):           3.66371     1.00229     0.92303
 Zero-point vibrational energy     414669.6 (Joules/Mol)
                                   99.10842 (Kcal/Mol)
 Warning -- explicit consideration of  11 degrees of freedom as
           vibrations may cause significant error
 Vibrational temperatures:    116.60   206.21   291.73   339.64   375.41
          (Kelvin)            480.97   541.69   542.42   611.16   682.38
                              746.33   902.63  1060.28  1137.12  1199.91
                             1246.38  1265.16  1293.35  1357.59  1398.73
                             1416.76  1463.05  1475.76  1523.77  1533.69
                             1551.72  1578.31  1612.83  1680.29  1706.36
                             1781.36  1790.24  1803.56  1833.13  1857.81
                             1895.18  2003.06  2070.54  2112.63  2170.00
                             2185.32  4255.90  4300.10  4492.18  4550.57
                             4566.97  4582.22  4597.72  4611.44  5444.03
                             5504.24

 Zero-point correction=                           0.157939 (Hartree/Particle)
 Thermal correction to Energy=                    0.166555
 Thermal correction to Enthalpy=                  0.167499
 Thermal correction to Gibbs Free Energy=         0.124822
 Sum of electronic and zero-point Energies=           -422.935502
 Sum of electronic and thermal Energies=              -422.926886
 Sum of electronic and thermal Enthalpies=            -422.925942
 Sum of electronic and thermal Free Energies=         -422.968619

                     E (Thermal)             CV                S
                      KCal/Mol        Cal/Mol-Kelvin    Cal/Mol-Kelvin
 Total                  104.515             33.635             89.821
 Electronic               0.000              0.000              0.000
 Translational            0.889              2.981             40.409
 Rotational               0.889              2.981             28.941
 Vibrational            102.737             27.673             20.471
 Vibration     1          0.600              1.962              3.866
 Vibration     2          0.616              1.910              2.759
 Vibration     3          0.639              1.836              2.108
 Vibration     4          0.655              1.786              1.832
 Vibration     5          0.669              1.744              1.656
 Vibration     6          0.716              1.607              1.239
 Vibration     7          0.747              1.520              1.053
 Vibration     8          0.748              1.519              1.051
 Vibration     9          0.787              1.416              0.876
 Vibration    10          0.831              1.307              0.726
 Vibration    11          0.874              1.209              0.613

 Normal termination of Gaussian 09 at Tue Jan 28 15:22:44 2020.
