 Gaussian 09, Revision D.01,
 Gaussian 09:  ES64L-G09RevD.01 24-Apr-2013

 -----------------------------
 # b3lyp 6-31G(2df,p) opt Freq
 -----------------------------

 -----
 titel
 -----
 Symbolic Z-matrix:
 Charge =  0 Multiplicity = 1

 SCF Done:  E(RB3LYP) =  -423.152690448     A.U. after   14 cycles
 Optimization completed.
    -- Stationary point found.
 Normal termination of Gaussian 09 at Mon Jan 27 11:13:43 2020.

 ----------------------------------------------------------------------
 #N Geom=AllCheck Guess=TCheck SCRF=Check GenChk RB3LYP/6-31G(2df,p) Fr
 eq
 ----------------------------------------------------------------------

 Structure from the checkpoint file:  "/scratch/puck/g09_35ea5ecb-1127-48b5-8519-7f0a37937226/Gau-15736.chk"
 -----
 titel
 -----
 Charge =  0 Multiplicity = 1

                         Standard orientation:
 ---------------------------------------------------------------------
 Center     Atomic      Atomic             Coordinates (Angstroms)
 Number     Number       Type             X           Y           Z
 ---------------------------------------------------------------------
      1          6           0       -3.583430    0.520473   -0.617405
      2          6           0       -2.704245   -0.067985   -0.046813
      3          6           0       -1.627159   -0.779865    0.645743
      4          8           0       -0.497015    0.039295    0.920892
      5          6           0        0.259710    0.377078   -0.227529
      6          6           0        1.414680    1.286167    0.238769
      7          6           0        2.683116    0.438368   -0.008888
      8          6           0        2.109291   -0.972295   -0.184632
      9          8           0        0.846121   -0.761771   -0.818843
     10          1           0       -4.365517    1.034955   -1.118921
     11          1           0       -1.981442   -1.133217    1.619345
     12          1           0       -1.324800   -1.657530    0.060034
     13          1           0       -0.398836    0.816775   -0.985013
     14          1           0        1.428179    2.226148   -0.316042
     15          1           0        1.270933    1.518389    1.295704
     16          1           0        3.185850    0.753560   -0.927649
     17          1           0        3.404573    0.501571    0.809013
     18          1           0        2.701797   -1.621099   -0.833651
     19          1           0        1.974649   -1.471389    0.785323
 ---------------------------------------------------------------------

 SCF Done:  E(RB3LYP) =  -423.152690448     A.U. after    1 cycles

 The electronic state is 1-A.
 Alpha  occ. eigenvalues --  -19.14563 -19.14076 -10.27041 -10.24916 -10.22602
 Alpha  occ. eigenvalues --  -10.18637 -10.18361 -10.18266 -10.17680  -1.06808
 Alpha  occ. eigenvalues --   -1.00854  -0.78507  -0.76795  -0.73156  -0.68321
 Alpha  occ. eigenvalues --   -0.59974  -0.58837  -0.53076  -0.51832  -0.49920
 Alpha  occ. eigenvalues --   -0.48660  -0.46608  -0.45457  -0.41545  -0.41079
 Alpha  occ. eigenvalues --   -0.36445  -0.35449  -0.35092  -0.34045  -0.31228
 Alpha  occ. eigenvalues --   -0.28115  -0.27505  -0.26718  -0.26190
 Alpha virt. eigenvalues --    0.03596   0.05671   0.09082   0.10746   0.12311
 Alpha virt. eigenvalues --    0.13112   0.14236   0.14737   0.15810   0.16633
 Alpha virt. eigenvalues --    0.16800   0.18545   0.18748   0.20949   0.22333

 Mulliken charges:
               1
     1  C   -0.472453
     2  C    0.315311
     3  C   -0.224322
     4  O   -0.251123
     5  C    0.221134
     6  C   -0.262567
     7  C   -0.211219
     8  C   -0.089409
     9  O   -0.248295
    10  H    0.201259
    11  H    0.135684
    12  H    0.139946
    13  H    0.086910
    14  H    0.110920
    15  H    0.124417
    16  H    0.109871
    17  H    0.105088
    18  H    0.108110
    19  H    0.100738
 Sum of Mulliken charges =   0.00000

 Dipole moment (field-independent basis, Debye):
    X=              0.8563    Y=              0.2918    Z=              0.0394  Tot=              0.9055
 Quadrupole moment (field-independent basis, Debye-Ang):
   XX=            -46.7918   YY=            -51.4492   ZZ=            -54.1527
   XY=             -0.8082   XZ=              1.8223   YZ=             -3.1632

  Exact polarizability:  98.675  -7.040  69.300   6.219  -5.675  63.702
 Approx polarizability: 124.504 -15.442 102.261  14.478 -10.605 102.119

                      1                      2                      3
                      A                      A                      A
 Frequencies --     46.8483                54.8879                99.4810
 Red. masses --      3.5327                 3.1020                 3.5159
 Frc consts  --      0.0046                 0.0055                 0.0205
 IR Inten    --      0.2032                 0.8571                 2.4939

                      4                      5                      6
                      A                      A                      A
 Frequencies --    179.9501               243.8801               269.8984
 Red. masses --      2.4937                 3.1344                 3.2844
 Frc consts  --      0.0476                 0.1098                 0.1410
 IR Inten    --      0.7474                10.5413                 1.9547

                      7                      8                      9
                      A                      A                      A
 Frequencies --    332.2735               379.4846               558.7955
 Red. masses --      2.9107                 3.6476                 5.3696
 Frc consts  --      0.1893                 0.3095                 0.9879
 IR Inten    --      6.5665                 0.1907                 5.9366

                     10                     11                     12
                      A                      A                      A
 Frequencies --    602.6539               614.5043               618.3265
 Red. masses --      5.3218                 1.2160                 2.0752
 Frc consts  --      1.1388                 0.2705                 0.4675
 IR Inten    --      4.9364                44.5860                 3.1358

                     13                     14                     15
                      A                      A                      A
 Frequencies --    679.4280               747.3718               820.8529
 Red. masses --      1.2404                 3.0190                 2.4463
 Frc consts  --      0.3374                 0.9935                 0.9711
 IR Inten    --     36.1939                 5.6578                 1.6117

                     16                     17                     18
                      A                      A                      A
 Frequencies --    860.2391               918.9543               928.9217
 Red. masses --      1.9984                 2.1493                 2.9135
 Frc consts  --      0.8713                 1.0694                 1.4812
 IR Inten    --     20.5169                 5.8994                 0.9937

                     19                     20                     21
                      A                      A                      A
 Frequencies --    937.6514               956.8029               981.2600
 Red. masses --      2.9262                 4.0654                 2.3861
 Frc consts  --      1.5158                 2.1928                 1.3536
 IR Inten    --     21.1178                37.6644                34.2941

                     22                     23                     24
                      A                      A                      A
 Frequencies --   1036.2015              1054.8564              1059.1875
 Red. masses --      1.9151                 1.8900                 7.4063
 Frc consts  --      1.2115                 1.2391                 4.8955
 IR Inten    --      5.2965                31.0121               338.9323

                     25                     26                     27
                      A                      A                      A
 Frequencies --   1107.2313              1137.6134              1210.4507
 Red. masses --      4.4009                 2.4058                 1.3791
 Frc consts  --      3.1789                 1.8344                 1.1905
 IR Inten    --     52.1156                26.6124                13.5258

                     28                     29                     30
                      A                      A                      A
 Frequencies --   1230.8337              1255.6784              1284.9637
 Red. masses --      1.3442                 1.1655                 1.1321
 Frc consts  --      1.1998                 1.0827                 1.1013
 IR Inten    --      6.6493                 0.4573                11.7473

                     31                     32                     33
                      A                      A                      A
 Frequencies --   1309.5812              1323.3572              1363.4861
 Red. masses --      1.3159                 1.2962                 1.3243
 Frc consts  --      1.3296                 1.3374                 1.4506
 IR Inten    --      6.0057                 4.3172                 1.3782

                     34                     35                     36
                      A                      A                      A
 Frequencies --   1380.0244              1394.1220              1409.5714
 Red. masses --      1.2346                 1.3964                 1.2502
 Frc consts  --      1.3854                 1.5990                 1.4635
 IR Inten    --     30.0005                13.6659                 4.1813

                     37                     38                     39
                      A                      A                      A
 Frequencies --   1481.2939              1483.0804              1498.0920
 Red. masses --      1.0814                 1.0823                 1.0962
 Frc consts  --      1.3980                 1.4026                 1.4495
 IR Inten    --      4.3704                 5.5736                 5.0669

                     40                     41                     42
                      A                      A                      A
 Frequencies --   1517.3661              2233.4298              3006.9375
 Red. masses --      1.1003                 5.8871                 1.0691
 Frc consts  --      1.4925                17.3021                 5.6954
 IR Inten    --      1.1374                 1.3318                48.4963

                     43                     44                     45
                      A                      A                      A
 Frequencies --   3027.6591              3050.5732              3060.8021
 Red. masses --      1.0619                 1.0858                 1.0618
 Frc consts  --      5.7351                 5.9533                 5.8609
 IR Inten    --     25.2065                22.8125                23.3983

                     46                     47                     48
                      A                      A                      A
 Frequencies --   3078.9543              3081.7110              3101.7544
 Red. masses --      1.0990                 1.0618                 1.0941
 Frc consts  --      6.1386                 5.9413                 6.2017
 IR Inten    --     11.0256                23.0082                25.8990

                     49                     50                     51
                      A                      A                      A
 Frequencies --   3110.6144              3132.4825              3504.1394
 Red. masses --      1.1045                 1.1061                 1.1628
 Frc consts  --      6.2967                 6.3945                 8.4121
 IR Inten    --     19.1456                25.8577                59.7709

 - Thermochemistry -
 -------------------
 Temperature   298.150 Kelvin.  Pressure   1.00000 Atm.
 Atom     1 has atomic number  6 and mass  12.00000

 Molecular mass:   126.06808 amu.
 Principal axes and moments of inertia in atomic units:
                           1         2         3
     Eigenvalues --   425.023762000.572932105.10249
           X            0.99998   0.00399   0.00451
           Y           -0.00356   0.99571  -0.09248
           Z           -0.00486   0.09246   0.99570
 This molecule is an asymmetric top.
 Rotational symmetry number  1.
 Rotational temperatures (Kelvin)      0.20379     0.04329     0.04114
 Rotational constants (GHZ):           4.24621     0.90211     0.85732
 Zero-point vibrational energy     417248.6 (Joules/Mol)
                                   99.72480 (Kcal/Mol)
 Warning -- explicit consideration of  12 degrees of freedom as
           vibrations may cause significant error
 Vibrational temperatures:     67.40    78.97   143.13   258.91   350.89
          (Kelvin)            388.32   478.07   545.99   803.98   867.08
                              884.13   889.63   977.54  1075.30  1181.02
                             1237.69  1322.17  1336.51  1349.07  1376.62
                             1411.81  1490.86  1517.70  1523.93  1593.06
                             1636.77  1741.57  1770.89  1806.64  1848.77
                             1884.19  1904.01  1961.75  1985.54  2005.83
                             2028.06  2131.25  2133.82  2155.42  2183.15
                             3213.40  4326.31  4356.12  4389.09  4403.81
                             4429.92  4433.89  4462.73  4475.47  4506.94
                             5041.67

 Zero-point correction=                           0.158922 (Hartree/Particle)
 Thermal correction to Energy=                    0.167905
 Thermal correction to Enthalpy=                  0.168849
 Thermal correction to Gibbs Free Energy=         0.123990
 Sum of electronic and zero-point Energies=           -422.993769
 Sum of electronic and thermal Energies=              -422.984786
 Sum of electronic and thermal Enthalpies=            -422.983841
 Sum of electronic and thermal Free Energies=         -423.028701

                     E (Thermal)             CV                S
                      KCal/Mol        Cal/Mol-Kelvin    Cal/Mol-Kelvin
 Total                  105.362             32.742             94.415
 Electronic               0.000              0.000              0.000
 Translational            0.889              2.981             40.409
 Rotational               0.889              2.981             28.972
 Vibrational            103.584             26.780             25.034
 Vibration     1          0.595              1.979              4.946
 Vibration     2          0.596              1.976              4.633
 Vibration     3          0.604              1.949              3.464
 Vibration     4          0.629              1.867              2.329
 Vibration     5          0.659              1.773              1.774
 Vibration     6          0.674              1.729              1.597
 Vibration     7          0.714              1.611              1.249
 Vibration     8          0.749              1.514              1.041
 Vibration     9          0.914              1.120              0.526
 Vibration    10          0.961              1.026              0.445
 Vibration    11          0.974              1.001              0.425
 Vibration    12          0.978              0.993              0.419

 Normal termination of Gaussian 09 at Mon Jan 27 11:55:51 2020.
