 Gaussian 09, Revision D.01,
 Gaussian 09:  ES64L-G09RevD.01 24-Apr-2013

 -----------------------------
 # b3lyp 6-31G(2df,p) opt Freq
 -----------------------------

 -----
 titel
 -----
 Symbolic Z-matrix:
 Charge =  0 Multiplicity = 1

 SCF Done:  E(RB3LYP) =  -423.132079383     A.U. after   13 cycles
 Optimization completed.
    -- Stationary point found.
 Normal termination of Gaussian 09 at Mon Jan 27 23:06:29 2020.

 ----------------------------------------------------------------------
 #N Geom=AllCheck Guess=TCheck SCRF=Check GenChk RB3LYP/6-31G(2df,p) Fr
 eq
 ----------------------------------------------------------------------

 Structure from the checkpoint file:  "/scratch/puck/g09_82e60d15-c96b-4a62-89d6-70aec027c291/Gau-67601.chk"
 -----
 titel
 -----
 Charge =  0 Multiplicity = 1

                         Standard orientation:
 ---------------------------------------------------------------------
 Center     Atomic      Atomic             Coordinates (Angstroms)
 Number     Number       Type             X           Y           Z
 ---------------------------------------------------------------------
      1          6           0        1.888716    1.066720   -0.863073
      2          6           0        1.044388    0.154183   -0.022139
      3          6           0        1.595356   -0.854285    0.956980
      4          6           0        0.710985   -1.345061   -0.152566
      5          6           0       -0.758115   -1.098587    0.255238
      6          8           0       -1.732579   -1.381718   -0.709543
      7          6           0       -0.405765    0.412076    0.322847
      8          6           0       -1.121501    1.546093    0.904154
      9          8           0       -1.185886    1.265646   -0.512772
     10          1           0        1.325487    1.432303   -1.726903
     11          1           0        2.228927    1.938596   -0.291306
     12          1           0        2.779173    0.544994   -1.227312
     13          1           0        2.655450   -1.059420    0.844113
     14          1           0        1.248689   -0.883849    1.988555
     15          1           0        1.029193   -2.055531   -0.904938
     16          1           0       -1.043552   -1.577593    1.201029
     17          1           0       -1.961605   -0.536918   -1.123006
     18          1           0       -2.049825    1.379128    1.448174
     19          1           0       -0.588598    2.460028    1.161468
 ---------------------------------------------------------------------

 SCF Done:  E(RB3LYP) =  -423.132079383     A.U. after    1 cycles

 The electronic state is 1-A.
 Alpha  occ. eigenvalues --  -19.16488 -19.12882 -10.24603 -10.24057 -10.23447
 Alpha  occ. eigenvalues --  -10.20481 -10.19327 -10.19141 -10.18286  -1.08267
 Alpha  occ. eigenvalues --   -1.01407  -0.89676  -0.73108  -0.70306  -0.67315
 Alpha  occ. eigenvalues --   -0.62453  -0.58656  -0.53380  -0.52541  -0.49895
 Alpha  occ. eigenvalues --   -0.47300  -0.44276  -0.43636  -0.41591  -0.40820
 Alpha  occ. eigenvalues --   -0.39303  -0.38094  -0.37451  -0.33506  -0.31797
 Alpha  occ. eigenvalues --   -0.29862  -0.27757  -0.25987  -0.25222
 Alpha virt. eigenvalues --    0.07921   0.08506   0.09838   0.10837   0.12047
 Alpha virt. eigenvalues --    0.12510   0.13995   0.14546   0.15159   0.16312
 Alpha virt. eigenvalues --    0.17220   0.17908   0.19778   0.20356   0.22005

 Mulliken charges:
               1
     1  C   -0.501963
     2  C    0.274842
     3  C   -0.341625
     4  C   -0.145411
     5  C    0.084329
     6  O   -0.446896
     7  C    0.322032
     8  C   -0.272537
     9  O   -0.286754
    10  H    0.135083
    11  H    0.119755
    12  H    0.121574
    13  H    0.116957
    14  H    0.106303
    15  H    0.098236
    16  H    0.076575
    17  H    0.294528
    18  H    0.123629
    19  H    0.121343
 Sum of Mulliken charges =   0.00000

 Dipole moment (field-independent basis, Debye):
    X=              1.5337    Y=              1.1449    Z=              1.3987  Tot=              2.3705
 Quadrupole moment (field-independent basis, Debye-Ang):
   XX=            -52.8895   YY=            -55.3065   ZZ=            -51.9023
   XY=             -3.0628   XZ=             -2.7071   YZ=              1.0231

  Exact polarizability:  80.176  -2.438  78.858  -1.349   1.207  67.435
 Approx polarizability: 108.988  -3.612 115.180   3.320   1.835 105.722

                      1                      2                      3
                      A                      A                      A
 Frequencies --     90.4763               183.9861               206.0075
 Red. masses --      4.2341                 1.0647                 3.0536
 Frc consts  --      0.0204                 0.0212                 0.0764
 IR Inten    --      1.5092                 0.4326                 0.7365

                      4                      5                      6
                      A                      A                      A
 Frequencies --    221.0198               261.4283               300.2562
 Red. masses --      2.7440                 3.0515                 3.3328
 Frc consts  --      0.0790                 0.1229                 0.1770
 IR Inten    --      0.0843                19.0699                 3.9465

                      7                      8                      9
                      A                      A                      A
 Frequencies --    349.4918               379.0357               444.7792
 Red. masses --      2.4060                 1.3004                 2.5523
 Frc consts  --      0.1732                 0.1101                 0.2975
 IR Inten    --      4.4970                40.4404                10.3752

                     10                     11                     12
                      A                      A                      A
 Frequencies --    502.2645               529.9869               591.7006
 Red. masses --      4.4263                 4.2463                 3.5757
 Frc consts  --      0.6579                 0.7027                 0.7376
 IR Inten    --      2.7702                 1.9518                 1.0788

                     13                     14                     15
                      A                      A                      A
 Frequencies --    688.1857               801.3792               819.2811
 Red. masses --      3.1387                 2.8662                 2.3740
 Frc consts  --      0.8758                 1.0845                 0.9389
 IR Inten    --     13.7872                 2.6954                27.6168

                     16                     17                     18
                      A                      A                      A
 Frequencies --    845.3665               877.8994               916.2397
 Red. masses --      1.6317                 2.6552                 2.5296
 Frc consts  --      0.6870                 1.2057                 1.2512
 IR Inten    --      4.8312                 4.4370                10.6160

                     19                     20                     21
                      A                      A                      A
 Frequencies --    972.6043               979.5567              1001.0184
 Red. masses --      1.9499                 2.1233                 1.6948
 Frc consts  --      1.0868                 1.2004                 1.0006
 IR Inten    --     27.0290                20.7971                 2.7039

                     22                     23                     24
                      A                      A                      A
 Frequencies --   1027.6741              1065.5769              1086.7542
 Red. masses --      1.5487                 1.9733                 1.7103
 Frc consts  --      0.9636                 1.3201                 1.1901
 IR Inten    --      4.9274                28.9484                15.2337

                     25                     26                     27
                      A                      A                      A
 Frequencies --   1108.8687              1116.8194              1121.6733
 Red. masses --      1.4149                 1.8652                 1.5897
 Frc consts  --      1.0250                 1.3707                 1.1784
 IR Inten    --      0.7109                32.4034                16.2808

                     28                     29                     30
                      A                      A                      A
 Frequencies --   1161.2243              1164.0929              1213.9500
 Red. masses --      2.0974                 1.4315                 1.5112
 Frc consts  --      1.6664                 1.1430                 1.3121
 IR Inten    --     45.3477                 1.5362                16.3805

                     31                     32                     33
                      A                      A                      A
 Frequencies --   1257.7726              1278.2585              1347.5951
 Red. masses --      1.8742                 3.2906                 1.4167
 Frc consts  --      1.7469                 3.1679                 1.5158
 IR Inten    --      7.1086                 3.2703                 5.6060

                     34                     35                     36
                      A                      A                      A
 Frequencies --   1372.8525              1417.2982              1422.7533
 Red. masses --      2.2261                 1.3594                 1.5227
 Frc consts  --      2.4720                 1.6089                 1.8160
 IR Inten    --      0.8036                23.3404                51.9794

                     37                     38                     39
                      A                      A                      A
 Frequencies --   1446.5341              1482.1743              1496.8356
 Red. masses --      1.8486                 1.0470                 1.3016
 Frc consts  --      2.2791                 1.3551                 1.7182
 IR Inten    --     38.8049                 5.4498                 4.0202

                     40                     41                     42
                      A                      A                      A
 Frequencies --   1502.1690              1530.8093              3014.8715
 Red. masses --      1.0603                 1.6474                 1.0851
 Frc consts  --      1.4097                 2.2746                 5.8112
 IR Inten    --      6.8025                11.0565                59.1800

                     43                     44                     45
                      A                      A                      A
 Frequencies --   3027.1282              3086.8417              3088.3856
 Red. masses --      1.0380                 1.0571                 1.0900
 Frc consts  --      5.6043                 5.9347                 6.1254
 IR Inten    --     28.2921                 8.2173                32.4363

                     46                     47                     48
                      A                      A                      A
 Frequencies --   3099.0811              3111.5837              3175.4633
 Red. masses --      1.0581                 1.1013                 1.1194
 Frc consts  --      5.9874                 6.2825                 6.6503
 IR Inten    --     20.5486                15.4437                15.1506

                     49                     50                     51
                      A                      A                      A
 Frequencies --   3190.1452              3200.6533              3727.3767
 Red. masses --      1.1084                 1.0970                 1.0653
 Frc consts  --      6.6462                 6.6211                 8.7199
 IR Inten    --      5.2126                12.6436                52.8749

 - Thermochemistry -
 -------------------
 Temperature   298.150 Kelvin.  Pressure   1.00000 Atm.
 Atom     1 has atomic number  6 and mass  12.00000

 Molecular mass:   126.06808 amu.
 Principal axes and moments of inertia in atomic units:
                           1         2         3
     Eigenvalues --   819.080221004.281031391.53085
           X            0.99948   0.00305  -0.03214
           Y           -0.00332   0.99996  -0.00844
           Z            0.03212   0.00855   0.99945
 This molecule is an asymmetric top.
 Rotational symmetry number  1.
 Warning -- assumption of classical behavior for rotation
           may cause significant error
 Rotational temperatures (Kelvin)      0.10575     0.08624     0.06224
 Rotational constants (GHZ):           2.20338     1.79705     1.29695
 Zero-point vibrational energy     414537.0 (Joules/Mol)
                                   99.07673 (Kcal/Mol)
 Warning -- explicit consideration of  12 degrees of freedom as
           vibrations may cause significant error
 Vibrational temperatures:    130.17   264.71   296.40   318.00   376.14
          (Kelvin)            432.00   502.84   545.35   639.94   722.65
                              762.53   851.32   990.14  1153.00  1178.76
                             1216.29  1263.10  1318.26  1399.36  1409.36
                             1440.24  1478.59  1533.13  1563.60  1595.41
                             1606.85  1613.84  1670.74  1674.87  1746.60
                             1809.65  1839.13  1938.89  1975.23  2039.17
                             2047.02  2081.24  2132.52  2153.61  2161.28
                             2202.49  4337.72  4355.36  4441.27  4443.49
                             4458.88  4476.87  4568.78  4589.90  4605.02
                             5362.86

 Zero-point correction=                           0.157889 (Hartree/Particle)
 Thermal correction to Energy=                    0.166438
 Thermal correction to Enthalpy=                  0.167383
 Thermal correction to Gibbs Free Energy=         0.125141
 Sum of electronic and zero-point Energies=           -422.974191
 Sum of electronic and thermal Energies=              -422.965641
 Sum of electronic and thermal Enthalpies=            -422.964697
 Sum of electronic and thermal Free Energies=         -423.006938

                     E (Thermal)             CV                S
                      KCal/Mol        Cal/Mol-Kelvin    Cal/Mol-Kelvin
 Total                  104.442             33.235             88.904
 Electronic               0.000              0.000              0.000
 Translational            0.889              2.981             40.409
 Rotational               0.889              2.981             28.528
 Vibrational            102.664             27.274             19.968
 Vibration     1          0.602              1.956              3.650
 Vibration     2          0.631              1.862              2.288
 Vibration     3          0.640              1.831              2.079
 Vibration     4          0.648              1.809              1.951
 Vibration     5          0.669              1.743              1.652
 Vibration     6          0.693              1.673              1.415
 Vibration     7          0.727              1.576              1.168
 Vibration     8          0.749              1.515              1.043
 Vibration     9          0.804              1.372              0.812
 Vibration    10          0.858              1.245              0.652
 Vibration    11          0.885              1.184              0.587
 Vibration    12          0.949              1.049              0.464

 Normal termination of Gaussian 09 at Mon Jan 27 23:50:57 2020.
