 Gaussian 09, Revision D.01,
 Gaussian 09:  ES64L-G09RevD.01 24-Apr-2013

 -----------------------------
 # b3lyp 6-31G(2df,p) opt Freq
 -----------------------------

 -----
 titel
 -----
 Symbolic Z-matrix:
 Charge =  0 Multiplicity = 1

 SCF Done:  E(RB3LYP) =  -423.114398047     A.U. after   14 cycles
 Optimization completed.
    -- Stationary point found.
 Normal termination of Gaussian 09 at Tue Jan 28 13:42:07 2020.

 ----------------------------------------------------------------------
 #N Geom=AllCheck Guess=TCheck SCRF=Check GenChk RB3LYP/6-31G(2df,p) Fr
 eq
 ----------------------------------------------------------------------

 Structure from the checkpoint file:  "/scratch/puck/g09_bc0dc989-5834-4614-8a79-beb72bbf5be3/Gau-94582.chk"
 -----
 titel
 -----
 Charge =  0 Multiplicity = 1

                         Standard orientation:
 ---------------------------------------------------------------------
 Center     Atomic      Atomic             Coordinates (Angstroms)
 Number     Number       Type             X           Y           Z
 ---------------------------------------------------------------------
      1          6           0       -3.165466   -0.183995    0.436686
      2          6           0       -2.084310    0.580115   -0.332984
      3          6           0       -0.689994    0.297828    0.198667
      4          8           0       -0.328456   -1.112680    0.039679
      5          6           0        0.782093   -0.780675   -0.798182
      6          6           0        2.147792   -0.545567   -0.077983
      7          8           0        1.877975    0.095597    1.168712
      8          6           0        1.873282    0.905827   -0.005683
      9          6           0        0.496455    0.733692   -0.698748
     10          1           0       -2.971332   -1.259282    0.395016
     11          1           0       -3.185095    0.113045    1.490964
     12          1           0       -4.158106    0.002866    0.016468
     13          1           0       -2.122974    0.313479   -1.396705
     14          1           0       -2.259727    1.662762   -0.269576
     15          1           0       -0.598077    0.592791    1.249623
     16          1           0        0.827881   -1.344704   -1.733360
     17          1           0        3.074934   -1.102754   -0.156268
     18          1           0        2.540997    1.759461   -0.024323
     19          1           0        0.296236    1.355649   -1.569615
 ---------------------------------------------------------------------

 SCF Done:  E(RB3LYP) =  -423.114398047     A.U. after    1 cycles

 The electronic state is 1-A.
 Alpha  occ. eigenvalues --  -19.15908 -19.13092 -10.24511 -10.23918 -10.23874
 Alpha  occ. eigenvalues --  -10.23040 -10.19567 -10.18107 -10.16964  -1.09070
 Alpha  occ. eigenvalues --   -1.02940  -0.78841  -0.77798  -0.69690  -0.63950
 Alpha  occ. eigenvalues --   -0.62052  -0.58817  -0.53970  -0.52747  -0.48669
 Alpha  occ. eigenvalues --   -0.47471  -0.45517  -0.42036  -0.41380  -0.39711
 Alpha  occ. eigenvalues --   -0.37858  -0.36147  -0.35476  -0.34769  -0.33358
 Alpha  occ. eigenvalues --   -0.30554  -0.27460  -0.26452  -0.24245
 Alpha virt. eigenvalues --    0.05490   0.08182   0.10134   0.11671   0.12262
 Alpha virt. eigenvalues --    0.13339   0.14468   0.15097   0.15232   0.16855
 Alpha virt. eigenvalues --    0.17017   0.18323   0.19361   0.20348   0.20540

 Mulliken charges:
               1
     1  C   -0.382644
     2  C   -0.204113
     3  C    0.160302
     4  O   -0.307510
     5  C    0.095589
     6  C   -0.007296
     7  O   -0.219343
     8  C    0.001957
     9  C   -0.162052
    10  H    0.138407
    11  H    0.115191
    12  H    0.109820
    13  H    0.095661
    14  H    0.093998
    15  H    0.092582
    16  H    0.082368
    17  H    0.105823
    18  H    0.108087
    19  H    0.083172
 Sum of Mulliken charges =   0.00000

 Dipole moment (field-independent basis, Debye):
    X=              0.5699    Y=              1.4866    Z=             -2.1324  Tot=              2.6612
 Quadrupole moment (field-independent basis, Debye-Ang):
   XX=            -49.9908   YY=            -52.4739   ZZ=            -54.2704
   XY=             -1.3649   XZ=             -3.3155   YZ=              0.9866

  Exact polarizability:  90.010  -2.250  69.710  -0.875   1.650  64.360
 Approx polarizability: 109.279  -3.409 111.906  -0.282   2.280 103.380

                      1                      2                      3
                      A                      A                      A
 Frequencies --     95.6189               135.9973               167.5200
 Red. masses --      3.2581                 2.7219                 2.1890
 Frc consts  --      0.0176                 0.0297                 0.0362
 IR Inten    --      0.7986                 2.7414                 0.4105

                      4                      5                      6
                      A                      A                      A
 Frequencies --    242.7216               293.9416               343.7838
 Red. masses --      1.3349                 5.9069                 2.9619
 Frc consts  --      0.0463                 0.3007                 0.2062
 IR Inten    --      0.9093                 1.0222                 0.3412

                      7                      8                      9
                      A                      A                      A
 Frequencies --    375.2715               540.1005               626.8465
 Red. masses --      3.1786                 2.8586                 5.8273
 Frc consts  --      0.2637                 0.4913                 1.3491
 IR Inten    --      2.3809                 1.4726                19.4921

                     10                     11                     12
                      A                      A                      A
 Frequencies --    725.9300               764.4836               780.2047
 Red. masses --      3.4193                 3.8892                 1.6589
 Frc consts  --      1.0616                 1.3392                 0.5950
 IR Inten    --      2.6932                 1.6259                 1.6186

                     13                     14                     15
                      A                      A                      A
 Frequencies --    820.3693               870.0425               878.3584
 Red. masses --      1.9719                 1.7402                 2.0584
 Frc consts  --      0.7819                 0.7761                 0.9357
 IR Inten    --      5.4327                20.9726                 7.7465

                     16                     17                     18
                      A                      A                      A
 Frequencies --    880.5886               906.6970               937.9293
 Red. masses --      2.0661                 3.6729                 2.5401
 Frc consts  --      0.9439                 1.7790                 1.3165
 IR Inten    --      3.3592                22.5243                 7.7096

                     19                     20                     21
                      A                      A                      A
 Frequencies --    961.9968               986.7060              1000.6822
 Red. masses --      2.3281                 2.6119                 2.7465
 Frc consts  --      1.2694                 1.4982                 1.6204
 IR Inten    --      9.1864                53.8405                14.4433

                     22                     23                     24
                      A                      A                      A
 Frequencies --   1030.6725              1050.0344              1083.4123
 Red. masses --      2.1909                 1.6108                 2.2461
 Frc consts  --      1.3713                 1.0464                 1.5534
 IR Inten    --     33.6763                30.9049                 6.2753

                     25                     26                     27
                      A                      A                      A
 Frequencies --   1097.4827              1137.9966              1164.6406
 Red. masses --      1.7690                 2.1096                 2.1265
 Frc consts  --      1.2554                 1.6096                 1.6994
 IR Inten    --      2.8035                 1.3995                 8.8055

                     28                     29                     30
                      A                      A                      A
 Frequencies --   1199.8353              1218.6398              1241.3391
 Red. masses --      1.4567                 1.4860                 1.3846
 Frc consts  --      1.2355                 1.3002                 1.2571
 IR Inten    --      3.5779                 6.0723                 4.4362

                     31                     32                     33
                      A                      A                      A
 Frequencies --   1262.3191              1274.5187              1298.4583
 Red. masses --      1.5248                 1.3272                 1.3656
 Frc consts  --      1.4316                 1.2702                 1.3566
 IR Inten    --      4.6959                 0.4675                 1.7133

                     34                     35                     36
                      A                      A                      A
 Frequencies --   1312.1401              1345.3791              1371.6155
 Red. masses --      1.5238                 1.4255                 2.3796
 Frc consts  --      1.5457                 1.5202                 2.6377
 IR Inten    --     16.3478                 3.6605                12.2909

                     37                     38                     39
                      A                      A                      A
 Frequencies --   1403.0566              1409.3266              1475.6454
 Red. masses --      1.7360                 1.2780                 1.0776
 Frc consts  --      2.0135                 1.4956                 1.3826
 IR Inten    --      1.6236                 2.8233                 0.7322

                     40                     41                     42
                      A                      A                      A
 Frequencies --   1497.8826              1509.4670              3015.5848
 Red. masses --      1.0428                 1.0593                 1.0595
 Frc consts  --      1.3785                 1.4221                 5.6768
 IR Inten    --      4.7989                 4.3326                23.9491

                     43                     44                     45
                      A                      A                      A
 Frequencies --   3037.4631              3043.8589              3062.7894
 Red. masses --      1.0369                 1.0910                 1.0942
 Frc consts  --      5.6366                 5.9556                 6.0477
 IR Inten    --     24.9449                 1.9846                48.0045

                     46                     47                     48
                      A                      A                      A
 Frequencies --   3078.3879              3104.1083              3121.0138
 Red. masses --      1.0888                 1.1010                 1.1015
 Frc consts  --      6.0791                 6.2507                 6.3217
 IR Inten    --     39.3067                37.9608                21.7333

                     49                     50                     51
                      A                      A                      A
 Frequencies --   3130.5068              3173.1796              3189.6610
 Red. masses --      1.0896                 1.0880                 1.1009
 Frc consts  --      6.2913                 6.4547                 6.5994
 IR Inten    --     17.7400                19.7897                27.1718

 - Thermochemistry -
 -------------------
 Temperature   298.150 Kelvin.  Pressure   1.00000 Atm.
 Atom     1 has atomic number  6 and mass  12.00000

 Molecular mass:   126.06808 amu.
 Principal axes and moments of inertia in atomic units:
                           1         2         3
     Eigenvalues --   415.878221635.155501686.96727
           X            0.99988  -0.00359  -0.01519
           Y            0.00343   0.99994  -0.01067
           Z            0.01523   0.01062   0.99983
 This molecule is an asymmetric top.
 Rotational symmetry number  1.
 Rotational temperatures (Kelvin)      0.20827     0.05297     0.05134
 Rotational constants (GHZ):           4.33959     1.10371     1.06981
 Zero-point vibrational energy     416756.3 (Joules/Mol)
                                   99.60714 (Kcal/Mol)
 Warning -- explicit consideration of   8 degrees of freedom as
           vibrations may cause significant error
 Vibrational temperatures:    137.57   195.67   241.02   349.22   422.92
          (Kelvin)            494.63   539.93   777.08   901.89  1044.45
                             1099.92  1122.54  1180.33  1251.80  1263.76
                             1266.97  1304.53  1349.47  1384.10  1419.65
                             1439.76  1482.91  1510.76  1558.79  1579.03
                             1637.32  1675.66  1726.29  1753.35  1786.01
                             1816.19  1833.75  1868.19  1887.87  1935.70
                             1973.45  2018.68  2027.70  2123.12  2155.12
                             2171.78  4338.75  4370.23  4379.43  4406.67
                             4429.11  4466.11  4490.44  4504.10  4565.49
                             4589.21

 Zero-point correction=                           0.158734 (Hartree/Particle)
 Thermal correction to Energy=                    0.166600
 Thermal correction to Enthalpy=                  0.167545
 Thermal correction to Gibbs Free Energy=         0.126235
 Sum of electronic and zero-point Energies=           -422.955664
 Sum of electronic and thermal Energies=              -422.947798
 Sum of electronic and thermal Enthalpies=            -422.946853
 Sum of electronic and thermal Free Energies=         -422.988163

                     E (Thermal)             CV                S
                      KCal/Mol        Cal/Mol-Kelvin    Cal/Mol-Kelvin
 Total                  104.543             30.548             86.942
 Electronic               0.000              0.000              0.000
 Translational            0.889              2.981             40.409
 Rotational               0.889              2.981             28.530
 Vibrational            102.766             24.587             18.004
 Vibration     1          0.603              1.952              3.542
 Vibration     2          0.614              1.917              2.859
 Vibration     3          0.624              1.882              2.463
 Vibration     4          0.659              1.775              1.783
 Vibration     5          0.689              1.685              1.451
 Vibration     6          0.723              1.588              1.195
 Vibration     7          0.746              1.523              1.058
 Vibration     8          0.895              1.161              0.565

 Optimization completed.
    -- Stationary point found.
 Normal termination of Gaussian 09 at Tue Jan 28 15:04:57 2020.
