 Gaussian 09, Revision D.01,
 Gaussian 09:  ES64L-G09RevD.01 24-Apr-2013

 -----------------------------
 # b3lyp 6-31G(2df,p) opt Freq
 -----------------------------

 -----
 titel
 -----
 Symbolic Z-matrix:
 Charge =  0 Multiplicity = 1

 SCF Done:  E(RB3LYP) =  -423.187923613     A.U. after   13 cycles
 Optimization completed.
    -- Stationary point found.
 Normal termination of Gaussian 09 at Mon Jan 27 12:25:49 2020.

 ----------------------------------------------------------------------
 #N Geom=AllCheck Guess=TCheck SCRF=Check GenChk RB3LYP/6-31G(2df,p) Fr
 eq
 ----------------------------------------------------------------------

 Structure from the checkpoint file:  "/scratch/puck/g09_36179a7f-b0be-4cd9-9eae-fbb1eda5ae48/Gau-133991.chk"
 -----
 titel
 -----
 Charge =  0 Multiplicity = 1

                         Standard orientation:
 ---------------------------------------------------------------------
 Center     Atomic      Atomic             Coordinates (Angstroms)
 Number     Number       Type             X           Y           Z
 ---------------------------------------------------------------------
      1          6           0       -0.824665   -0.981245   -1.059680
      2          8           0       -0.966478    0.417204   -1.279120
      3          6           0       -0.625735    1.210456   -0.137080
      4          6           0       -1.122535    0.516053    1.134089
      5          8           0       -0.482266   -0.739497    1.334930
      6          6           0        0.056197   -1.313804    0.143958
      7          6           0        1.536235   -0.918120   -0.017328
      8          6           0        1.797216    0.563056   -0.052027
      9          6           0        0.862020    1.509452   -0.087452
     10          1           0       -1.815726   -1.431525   -0.896400
     11          1           0       -0.403464   -1.423865   -1.970396
     12          1           0       -1.180990    2.145896   -0.259575
     13          1           0       -0.917736    1.133103    2.015704
     14          1           0       -2.212100    0.378483    1.056459
     15          1           0        0.012106   -2.400147    0.289250
     16          1           0        2.093419   -1.351559    0.824100
     17          1           0        1.944026   -1.398541   -0.919602
     18          1           0        2.845391    0.855151   -0.038254
     19          1           0        1.152631    2.556268   -0.094642
 ---------------------------------------------------------------------

 SCF Done:  E(RB3LYP) =  -423.187923613     A.U. after    1 cycles

 The electronic state is 1-A.
 Alpha  occ. eigenvalues --  -19.13706 -19.13487 -10.23598 -10.23513 -10.22751
 Alpha  occ. eigenvalues --  -10.22729 -10.18812 -10.18584 -10.17774  -1.04785
 Alpha  occ. eigenvalues --   -1.00943  -0.80216  -0.79285  -0.69101  -0.67966
 Alpha  occ. eigenvalues --   -0.66585  -0.54831  -0.52590  -0.52411  -0.49817
 Alpha  occ. eigenvalues --   -0.47184  -0.44227  -0.43193  -0.41905  -0.40867
 Alpha  occ. eigenvalues --   -0.40455  -0.38535  -0.36706  -0.35013  -0.33738
 Alpha  occ. eigenvalues --   -0.28729  -0.25775  -0.24790  -0.23822
 Alpha virt. eigenvalues --    0.01443   0.07764   0.11068   0.11412   0.12462
 Alpha virt. eigenvalues --    0.13254   0.14979   0.15924   0.16857   0.17787
 Alpha virt. eigenvalues --    0.18224   0.18661   0.19271   0.19765   0.23334

 Mulliken charges:
               1
     1  C   -0.082176
     2  O   -0.273732
     3  C    0.030437
     4  C   -0.079278
     5  O   -0.276329
     6  C    0.069517
     7  C   -0.258072
     8  C   -0.039463
     9  C   -0.062534
    10  H    0.098894
    11  H    0.104501
    12  H    0.081698
    13  H    0.108470
    14  H    0.096491
    15  H    0.082577
    16  H    0.114977
    17  H    0.105152
    18  H    0.091054
    19  H    0.087816
 Sum of Mulliken charges =   0.00000

 Dipole moment (field-independent basis, Debye):
    X=              0.6128    Y=             -0.1304    Z=              0.0362  Tot=              0.6276
 Quadrupole moment (field-independent basis, Debye-Ang):
   XX=            -51.2209   YY=            -49.0033   ZZ=            -57.8252
   XY=             -0.9631   XZ=             -1.2904   YZ=              3.9243

  Exact polarizability:  81.201  -4.859  82.680  -1.163   4.208  61.387
 Approx polarizability: 116.397 -14.280 122.717  -0.394   3.225  94.419

                      1                      2                      3
                      A                      A                      A
 Frequencies --    105.2824               248.8029               264.7367
 Red. masses --      2.6770                 4.3974                 2.5413
 Frc consts  --      0.0175                 0.1604                 0.1049
 IR Inten    --      5.3324                 0.9020                 1.7146

                      4                      5                      6
                      A                      A                      A
 Frequencies --    318.2096               368.7991               432.4275
 Red. masses --      2.3538                 3.6391                 2.4615
 Frc consts  --      0.1404                 0.2916                 0.2712
 IR Inten    --      1.2234                 4.7364                 1.6587

                      7                      8                      9
                      A                      A                      A
 Frequencies --    481.4433               520.4802               597.1052
 Red. masses --      3.7173                 4.0138                 3.5380
 Frc consts  --      0.5077                 0.6406                 0.7432
 IR Inten    --      0.3272                 0.7203                 4.9613

                     10                     11                     12
                      A                      A                      A
 Frequencies --    716.3818               771.9187               801.4323
 Red. masses --      1.6898                 4.2874                 3.3953
 Frc consts  --      0.5109                 1.5052                 1.2849
 IR Inten    --     15.1234                 1.9014                 7.2908

                     13                     14                     15
                      A                      A                      A
 Frequencies --    852.1286               875.0028               899.2172
 Red. masses --      3.3506                 2.8378                 3.5039
 Frc consts  --      1.4335                 1.2801                 1.6693
 IR Inten    --     16.3450                47.1693                 4.2279

                     16                     17                     18
                      A                      A                      A
 Frequencies --    916.3894               948.3212               967.0442
 Red. masses --      2.1869                 2.2168                 2.3499
 Frc consts  --      1.0820                 1.1746                 1.2948
 IR Inten    --     11.0328                17.5409                10.6425

                     19                     20                     21
                      A                      A                      A
 Frequencies --    992.1446               999.8621              1053.1771
 Red. masses --      2.1832                 1.3347                 2.0307
 Frc consts  --      1.2662                 0.7862                 1.3271
 IR Inten    --      2.0756                 1.2782                 7.4723

                     22                     23                     24
                      A                      A                      A
 Frequencies --   1069.1295              1113.8534              1145.7197
 Red. masses --      2.3047                 2.1114                 3.8507
 Frc consts  --      1.5521                 1.5434                 2.9781
 IR Inten    --      2.4887                 5.2593               130.9783

                     25                     26                     27
                      A                      A                      A
 Frequencies --   1157.5098              1216.3095              1235.6774
 Red. masses --      3.4482                 1.1204                 1.2091
 Frc consts  --      2.7221                 0.9766                 1.0877
 IR Inten    --     35.3173                 1.9496                24.9236

                     28                     29                     30
                      A                      A                      A
 Frequencies --   1253.6563              1270.0739              1329.9678
 Red. masses --      1.0968                 1.1330                 1.5099
 Frc consts  --      1.0156                 1.0768                 1.5735
 IR Inten    --     11.2102                 9.8529                 1.6789

                     31                     32                     33
                      A                      A                      A
 Frequencies --   1345.1774              1358.2947              1367.8180
 Red. masses --      1.7465                 1.3105                 1.2486
 Frc consts  --      1.8620                 1.4246                 1.3764
 IR Inten    --      5.1920                 0.1704                 2.6472

                     34                     35                     36
                      A                      A                      A
 Frequencies --   1389.7662              1407.8230              1414.4498
 Red. masses --      1.4511                 1.3519                 1.4097
 Frc consts  --      1.6513                 1.5786                 1.6617
 IR Inten    --      3.2712                 2.0469                 3.0532

                     37                     38                     39
                      A                      A                      A
 Frequencies --   1424.2280              1462.1065              1504.9134
 Red. masses --      1.4316                 1.0949                 1.0932
 Frc consts  --      1.7109                 1.3790                 1.4587
 IR Inten    --      2.1391                 4.9904                 1.0428

                     40                     41                     42
                      A                      A                      A
 Frequencies --   1515.5157              1726.9557              2982.5247
 Red. masses --      1.0838                 6.6918                 1.0681
 Frc consts  --      1.4666                11.7586                 5.5982
 IR Inten    --      0.4608                 4.6180                30.5930

                     43                     44                     45
                      A                      A                      A
 Frequencies --   2988.1844              2998.0868              3030.0411
 Red. masses --      1.0673                 1.0642                 1.0944
 Frc consts  --      5.6151                 5.6359                 5.9198
 IR Inten    --     90.3798                21.7783                25.9713

                     46                     47                     48
                      A                      A                      A
 Frequencies --   3037.7523              3049.5133              3057.3358
 Red. masses --      1.0882                 1.0952                 1.0885
 Frc consts  --      5.9163                 6.0008                 5.9949
 IR Inten    --     51.1348                54.4624                31.3368

                     49                     50                     51
                      A                      A                      A
 Frequencies --   3065.5032              3141.3989              3170.1396
 Red. masses --      1.0937                 1.0842                 1.0962
 Frc consts  --      6.0555                 6.3039                 6.4909
 IR Inten    --     33.2490                10.3426                29.9295

 - Thermochemistry -
 -------------------
 Temperature   298.150 Kelvin.  Pressure   1.00000 Atm.
 Atom     1 has atomic number  6 and mass  12.00000

 Molecular mass:   126.06808 amu.
 Principal axes and moments of inertia in atomic units:
                           1         2         3
     Eigenvalues --   816.49230 879.197821017.17982
           X            0.99716  -0.06725  -0.03394
           Y            0.07140   0.98740   0.14123
           Z            0.02402  -0.14325   0.98940
 This molecule is an asymmetric top.
 Rotational symmetry number  1.
 Warning -- assumption of classical behavior for rotation
           may cause significant error
 Rotational temperatures (Kelvin)      0.10608     0.09851     0.08515
 Rotational constants (GHZ):           2.21036     2.05271     1.77426
 Zero-point vibrational energy     426826.0 (Joules/Mol)
                                  102.01386 (Kcal/Mol)
 Warning -- explicit consideration of   9 degrees of freedom as
           vibrations may cause significant error
 Vibrational temperatures:    151.48   357.97   380.90   457.83   530.62
          (Kelvin)            622.17   692.69   748.85   859.10  1030.71
                             1110.62  1153.08  1226.02  1258.93  1293.77
                             1318.48  1364.42  1391.36  1427.47  1438.58
                             1515.28  1538.24  1602.58  1648.43  1665.40
                             1750.00  1777.86  1803.73  1827.35  1913.52
                             1935.41  1954.28  1967.98  1999.56  2025.54
                             2035.08  2049.14  2103.64  2165.23  2180.49
                             2484.70  4291.18  4299.33  4313.57  4359.55
                             4370.64  4387.56  4398.82  4410.57  4519.77
                             4561.12

 Zero-point correction=                           0.162569 (Hartree/Particle)
 Thermal correction to Energy=                    0.169631
 Thermal correction to Enthalpy=                  0.170575
 Thermal correction to Gibbs Free Energy=         0.131323
 Sum of electronic and zero-point Energies=           -423.025354
 Sum of electronic and thermal Energies=              -423.018293
 Sum of electronic and thermal Enthalpies=            -423.017349
 Sum of electronic and thermal Free Energies=         -423.056600

                     E (Thermal)             CV                S
                      KCal/Mol        Cal/Mol-Kelvin    Cal/Mol-Kelvin
 Total                  106.445             28.626             82.612
 Electronic               0.000              0.000              0.000
 Translational            0.889              2.981             40.409
 Rotational               0.889              2.981             28.081
 Vibrational            104.667             22.664             14.122
 Vibration     1          0.605              1.945              3.354
 Vibration     2          0.662              1.765              1.739
 Vibration     3          0.671              1.738              1.630
 Vibration     4          0.705              1.639              1.319
 Vibration     5          0.741              1.536              1.085
 Vibration     6          0.793              1.400              0.851
 Vibration     7          0.838              1.291              0.706
 Vibration     8          0.875              1.205              0.609
 Vibration     9          0.955              1.038              0.455

 Normal termination of Gaussian 09 at Mon Jan 27 13:31:55 2020.
