 Gaussian 09, Revision D.01,
 Gaussian 09:  ES64L-G09RevD.01 24-Apr-2013

 -----------------------------
 # b3lyp 6-31G(2df,p) opt Freq
 -----------------------------

 -----
 titel
 -----
 Symbolic Z-matrix:
 Charge =  0 Multiplicity = 1

 SCF Done:  E(RB3LYP) =  -423.118007110     A.U. after   13 cycles
 Optimization completed.
    -- Stationary point found.
 Normal termination of Gaussian 09 at Mon Jan 27 22:52:47 2020.

 ----------------------------------------------------------------------
 #N Geom=AllCheck Guess=TCheck SCRF=Check GenChk RB3LYP/6-31G(2df,p) Fr
 eq
 ----------------------------------------------------------------------

 Structure from the checkpoint file:  "/scratch/puck/g09_6f1d47c9-0be5-46de-bfa0-7b17d109075f/Gau-191496.chk"
 -----
 titel
 -----
 Charge =  0 Multiplicity = 1

                         Standard orientation:
 ---------------------------------------------------------------------
 Center     Atomic      Atomic             Coordinates (Angstroms)
 Number     Number       Type             X           Y           Z
 ---------------------------------------------------------------------
      1          6           0       -2.336007   -1.166946   -0.319720
      2          6           0       -0.873488   -0.770917   -0.301781
      3          6           0       -0.278108   -0.431466    1.053945
      4          6           0        1.236758   -0.137809    0.988225
      5          6           0        2.095019   -0.812371   -0.104461
      6          8           0        1.710580    0.190993   -1.082499
      7          6           0        0.965664    0.933235   -0.083848
      8          6           0       -0.555952    0.662441    0.013057
      9          8           0       -1.506660    1.667001    0.057953
     10          1           0       -2.782583   -0.980188   -1.303054
     11          1           0       -2.453210   -2.233586   -0.102968
     12          1           0       -2.911653   -0.602327    0.418706
     13          1           0       -0.260812   -1.279375   -1.041116
     14          1           0       -0.820360   -0.669931    1.961304
     15          1           0        1.709476    0.100270    1.939595
     16          1           0        3.173652   -0.774546    0.089709
     17          1           0        1.819558   -1.826980   -0.414212
     18          1           0        1.262475    1.982027   -0.003143
     19          1           0       -1.891212    1.763680   -0.820967
 ---------------------------------------------------------------------

 SCF Done:  E(RB3LYP) =  -423.118007110     A.U. after    1 cycles

 The electronic state is 1-A.
 Alpha  occ. eigenvalues --  -19.15133 -19.13015 -10.23554 -10.22884 -10.22703
 Alpha  occ. eigenvalues --  -10.19259 -10.19233 -10.19212 -10.18072  -1.04122
 Alpha  occ. eigenvalues --   -1.02823  -0.87753  -0.75384  -0.70600  -0.67013
 Alpha  occ. eigenvalues --   -0.60627  -0.57843  -0.52300  -0.51989  -0.49798
 Alpha  occ. eigenvalues --   -0.47309  -0.44912  -0.42326  -0.41532  -0.40679
 Alpha  occ. eigenvalues --   -0.38158  -0.37154  -0.35997  -0.34916  -0.30540
 Alpha  occ. eigenvalues --   -0.29610  -0.27128  -0.24355  -0.23628
 Alpha virt. eigenvalues --    0.06640   0.07362   0.09860   0.11041   0.12237
 Alpha virt. eigenvalues --    0.13106   0.15047   0.15253   0.16772   0.17228
 Alpha virt. eigenvalues --    0.18049   0.18547   0.19394   0.20594   0.21730

 Mulliken charges:
               1
     1  C   -0.435321
     2  C   -0.084753
     3  C   -0.150659
     4  C   -0.074563
     5  C   -0.111567
     6  O   -0.299701
     7  C    0.034781
     8  C    0.369623
     9  O   -0.463101
    10  H    0.113430
    11  H    0.120610
    12  H    0.130400
    13  H    0.099765
    14  H    0.092259
    15  H    0.082613
    16  H    0.102560
    17  H    0.103094
    18  H    0.081921
    19  H    0.288608
 Sum of Mulliken charges =   0.00000

 Dipole moment (field-independent basis, Debye):
    X=             -0.5746    Y=             -0.7567    Z=              0.4085  Tot=              1.0342
 Quadrupole moment (field-independent basis, Debye-Ang):
   XX=            -51.8303   YY=            -52.8184   ZZ=            -53.3780
   XY=             -0.3237   XZ=              5.8896   YZ=             -1.9167

  Exact polarizability:  85.969  -0.187  72.495   3.652  -0.330  65.203
 Approx polarizability: 110.111  -3.596 109.761   3.061  -2.450 105.366

                      1                      2                      3
                      A                      A                      A
 Frequencies --    163.9632               178.8941               211.8002
 Red. masses --      3.3932                 1.1476                 2.9075
 Frc consts  --      0.0537                 0.0216                 0.0768
 IR Inten    --     13.3293                 1.0397                 5.5983

                      4                      5                      6
                      A                      A                      A
 Frequencies --    226.3067               255.9562               295.7281
 Red. masses --      2.2770                 1.4182                 2.5099
 Frc consts  --      0.0687                 0.0547                 0.1293
 IR Inten    --      0.0811                67.0712                18.9409

                      7                      8                      9
                      A                      A                      A
 Frequencies --    318.9323               413.6949               496.6105
 Red. masses --      3.4283                 3.7070                 2.5837
 Frc consts  --      0.2055                 0.3738                 0.3754
 IR Inten    --     17.1119                 6.8891                 1.4166

                     10                     11                     12
                      A                      A                      A
 Frequencies --    548.5590               653.6622               702.9185
 Red. masses --      4.0680                 4.3399                 3.5278
 Frc consts  --      0.7212                 1.0925                 1.0270
 IR Inten    --      4.2485                 0.9043                 5.6223

                     13                     14                     15
                      A                      A                      A
 Frequencies --    785.6676               836.9160               860.9399
 Red. masses --      2.9428                 1.7674                 4.1618
 Frc consts  --      1.0702                 0.7294                 1.8175
 IR Inten    --     10.1470                 2.0502                 3.2675

                     16                     17                     18
                      A                      A                      A
 Frequencies --    879.8185               917.5611               956.8977
 Red. masses --      2.0204                 1.6092                 2.1849
 Frc consts  --      0.9214                 0.7982                 1.1787
 IR Inten    --      4.0341                14.7307                22.8011

                     19                     20                     21
                      A                      A                      A
 Frequencies --    969.7096               985.9831              1017.9303
 Red. masses --      2.8266                 3.6319                 1.8695
 Frc consts  --      1.5660                 2.0803                 1.1414
 IR Inten    --     51.2326                64.6326                 1.5234

                     22                     23                     24
                      A                      A                      A
 Frequencies --   1024.9253              1045.8311              1062.6138
 Red. masses --      1.4184                 2.5504                 2.1856
 Frc consts  --      0.8779                 1.6435                 1.4540
 IR Inten    --     16.9501                 2.2948                 7.4273

                     25                     26                     27
                      A                      A                      A
 Frequencies --   1131.5181              1139.0806              1161.3291
 Red. masses --      2.1804                 1.7495                 1.2475
 Frc consts  --      1.6448                 1.3374                 0.9913
 IR Inten    --      1.4413                 0.9225                 2.7486

                     28                     29                     30
                      A                      A                      A
 Frequencies --   1181.7817              1194.0225              1216.2080
 Red. masses --      1.5873                 2.1724                 1.6251
 Frc consts  --      1.3061                 1.8248                 1.4162
 IR Inten    --      4.0354                 6.2526                78.2826

                     31                     32                     33
                      A                      A                      A
 Frequencies --   1231.3738              1271.2352              1300.4620
 Red. masses --      1.7573                 1.4338                 1.6784
 Frc consts  --      1.5699                 1.3652                 1.6724
 IR Inten    --      0.6226                 0.8822                 8.6361

                     34                     35                     36
                      A                      A                      A
 Frequencies --   1306.3776              1347.9207              1376.9226
 Red. masses --      1.3226                 1.4593                 1.7646
 Frc consts  --      1.3299                 1.5622                 1.9711
 IR Inten    --     45.2526                 1.9087                 3.5946

                     37                     38                     39
                      A                      A                      A
 Frequencies --   1415.5278              1443.0426              1494.3912
 Red. masses --      1.3561                 2.5821                 1.0472
 Frc consts  --      1.6009                 3.1680                 1.3779
 IR Inten    --      0.9392                17.9518                 3.3575

                     40                     41                     42
                      A                      A                      A
 Frequencies --   1506.8174              1520.5699              3019.9033
 Red. masses --      1.0967                 1.0989                 1.0552
 Frc consts  --      1.4671                 1.4969                 5.6699
 IR Inten    --      7.2577                 0.9622                74.4914

                     43                     44                     45
                      A                      A                      A
 Frequencies --   3032.0357              3065.4062              3082.0155
 Red. masses --      1.0372                 1.1106                 1.0893
 Frc consts  --      5.6178                 6.1488                 6.0961
 IR Inten    --     35.9166                35.2007                38.1559

                     46                     47                     48
                      A                      A                      A
 Frequencies --   3090.2048              3114.3144              3125.6793
 Red. masses --      1.0996                 1.0992                 1.0898
 Frc consts  --      6.1864                 6.2812                 6.2733
 IR Inten    --     23.1345                 8.2805                31.3911

                     49                     50                     51
                      A                      A                      A
 Frequencies --   3146.9491              3182.7858              3781.8581
 Red. masses --      1.0883                 1.0925                 1.0663
 Frc consts  --      6.3500                 6.5207                 8.9851
 IR Inten    --     16.7009                13.0991                20.5157

 - Thermochemistry -
 -------------------
 Temperature   298.150 Kelvin.  Pressure   1.00000 Atm.
 Atom     1 has atomic number  6 and mass  12.00000

 Molecular mass:   126.06808 amu.
 Principal axes and moments of inertia in atomic units:
                           1         2         3
     Eigenvalues --   612.894511240.326491440.76777
           X            0.99938   0.02497   0.02463
           Y           -0.02532   0.99958   0.01385
           Z           -0.02428  -0.01447   0.99960
 This molecule is an asymmetric top.
 Rotational symmetry number  1.
 Warning -- assumption of classical behavior for rotation
           may cause significant error
 Rotational temperatures (Kelvin)      0.14132     0.06983     0.06012
 Rotational constants (GHZ):           2.94462     1.45505     1.25262
 Zero-point vibrational energy     416848.1 (Joules/Mol)
                                   99.62908 (Kcal/Mol)
 Warning -- explicit consideration of  10 degrees of freedom as
           vibrations may cause significant error
 Vibrational temperatures:    235.91   257.39   304.73   325.60   368.26
          (Kelvin)            425.49   458.87   595.21   714.51   789.25
                              940.47  1011.34  1130.40  1204.13  1238.70
                             1265.86  1320.16  1376.76  1395.19  1418.61
                             1464.57  1474.64  1504.72  1528.86  1628.00
                             1638.88  1670.89  1700.32  1717.93  1749.85
                             1771.67  1829.02  1871.07  1879.58  1939.35
                             1981.08  2036.63  2076.21  2150.09  2167.97
                             2187.76  4344.96  4362.42  4410.43  4434.33
                             4446.11  4480.80  4497.15  4527.75  4579.31
                             5441.24

 Zero-point correction=                           0.158769 (Hartree/Particle)
 Thermal correction to Energy=                    0.166919
 Thermal correction to Enthalpy=                  0.167863
 Thermal correction to Gibbs Free Energy=         0.126571
 Sum of electronic and zero-point Energies=           -422.959238
 Sum of electronic and thermal Energies=              -422.951088
 Sum of electronic and thermal Enthalpies=            -422.950144
 Sum of electronic and thermal Free Energies=         -422.991436

                     E (Thermal)             CV                S
                      KCal/Mol        Cal/Mol-Kelvin    Cal/Mol-Kelvin
 Total                  104.743             32.055             86.906
 Electronic               0.000              0.000              0.000
 Translational            0.889              2.981             40.409
 Rotational               0.889              2.981             28.484
 Vibrational            102.966             26.093             18.014
 Vibration     1          0.623              1.887              2.504
 Vibration     2          0.629              1.868              2.340
 Vibration     3          0.643              1.823              2.028
 Vibration     4          0.650              1.801              1.908
 Vibration     5          0.666              1.753              1.689
 Vibration     6          0.690              1.682              1.441
 Vibration     7          0.705              1.637              1.316
 Vibration     8          0.777              1.441              0.914
 Vibration     9          0.852              1.258              0.667
 Vibration    10          0.904              1.143              0.547

 Optimization completed.
    -- Stationary point found.
 Normal termination of Gaussian 09 at Mon Jan 27 23:37:49 2020.
