 Gaussian 09, Revision D.01,
 Gaussian 09:  ES64L-G09RevD.01 24-Apr-2013

 -----------------------------
 # b3lyp 6-31G(2df,p) opt Freq
 -----------------------------

 -----
 titel
 -----
 Symbolic Z-matrix:
 Charge =  0 Multiplicity = 1

 SCF Done:  E(RB3LYP) =  -423.193867721     A.U. after   14 cycles
 Optimization completed.
    -- Stationary point found.
 Normal termination of Gaussian 09 at Mon Jan 27 13:34:03 2020.

 ----------------------------------------------------------------------
 #N Geom=AllCheck Guess=TCheck SCRF=Check GenChk RB3LYP/6-31G(2df,p) Fr
 eq
 ----------------------------------------------------------------------

 Structure from the checkpoint file:  "/scratch/puck/g09_099ad965-2e21-4829-bc8f-270874379e59/Gau-76439.chk"
 -----
 titel
 -----
 Charge =  0 Multiplicity = 1

                         Standard orientation:
 ---------------------------------------------------------------------
 Center     Atomic      Atomic             Coordinates (Angstroms)
 Number     Number       Type             X           Y           Z
 ---------------------------------------------------------------------
      1          8           0       -1.769458   -2.077758   -0.212591
      2          6           0       -1.964271   -0.891899   -0.243289
      3          6           0       -1.467517    0.085326    0.812980
      4          6           0       -0.686355    1.221190    0.138748
      5          8           0       -1.263376    2.009243   -0.573396
      6          6           0        0.821978    1.250424    0.337483
      7          6           0        1.491277    0.129358   -0.444117
      8          6           0        2.880330   -0.334565   -0.082271
      9          6           0        1.700555   -1.241692    0.153748
     10          1           0       -2.528130   -0.407052   -1.068197
     11          1           0       -2.352042    0.544387    1.271067
     12          1           0       -0.894909   -0.456040    1.565928
     13          1           0        1.179617    2.225791   -0.005666
     14          1           0        1.058194    1.146617    1.403605
     15          1           0        1.267395    0.151827   -1.507360
     16          1           0        3.564758   -0.570007   -0.889425
     17          1           0        3.354135    0.115898    0.783875
     18          1           0        1.564634   -2.105307   -0.486452
     19          1           0        1.393034   -1.406848    1.180828
 ---------------------------------------------------------------------

 SCF Done:  E(RB3LYP) =  -423.193867721     A.U. after    1 cycles

 The electronic state is 1-A.
 Alpha  occ. eigenvalues --  -19.14897 -19.14138 -10.28349 -10.28284 -10.20790
 Alpha  occ. eigenvalues --  -10.20620 -10.20240 -10.19415 -10.19360  -1.05719
 Alpha  occ. eigenvalues --   -1.05173  -0.86964  -0.78739  -0.74176  -0.61100
 Alpha  occ. eigenvalues --   -0.60374  -0.58039  -0.54732  -0.50853  -0.48908
 Alpha  occ. eigenvalues --   -0.47555  -0.46124  -0.45071  -0.43968  -0.40990
 Alpha  occ. eigenvalues --   -0.40137  -0.38796  -0.37370  -0.37100  -0.35353
 Alpha  occ. eigenvalues --   -0.30591  -0.29716  -0.26978  -0.24607
 Alpha virt. eigenvalues --   -0.04301  -0.01129   0.08171   0.09270   0.11587
 Alpha virt. eigenvalues --    0.12473   0.12676   0.13747   0.14262   0.15821
 Alpha virt. eigenvalues --    0.16860   0.17100   0.18371   0.22523   0.23451

 Mulliken charges:
               1
     1  O   -0.233882
     2  C    0.164714
     3  C   -0.359058
     4  C    0.356862
     5  O   -0.303828
     6  C   -0.311114
     7  C    0.021059
     8  C   -0.280129
     9  C   -0.249177
    10  H    0.105274
    11  H    0.150472
    12  H    0.124069
    13  H    0.125363
    14  H    0.108664
    15  H    0.100866
    16  H    0.119676
    17  H    0.114501
    18  H    0.129604
    19  H    0.116066
 Sum of Mulliken charges =   0.00000

 Dipole moment (field-independent basis, Debye):
    X=              1.4683    Y=              0.5031    Z=              1.4726  Tot=              2.1395
 Quadrupole moment (field-independent basis, Debye-Ang):
   XX=            -51.8241   YY=            -63.8877   ZZ=            -50.8103
   XY=             -0.3716   XZ=             -2.4850   YZ=              2.8043

  Exact polarizability:  84.346  -1.492  82.018   2.600  -1.300  64.377
 Approx polarizability: 110.021  -5.463 131.524   6.739  -6.982 101.373

                      1                      2                      3
                      A                      A                      A
 Frequencies --     30.8464                38.8815               100.5616
 Red. masses --      2.9937                 5.5673                 3.6783
 Frc consts  --      0.0017                 0.0050                 0.0219
 IR Inten    --      0.4930                 2.8843                 6.6676

                      4                      5                      6
                      A                      A                      A
 Frequencies --    113.3138               148.5929               231.1810
 Red. masses --      3.4108                 3.5159                 2.9495
 Frc consts  --      0.0258                 0.0457                 0.0929
 IR Inten    --      4.9096                 3.4304                 4.7826

                      7                      8                      9
                      A                      A                      A
 Frequencies --    305.0151               324.2272               428.2911
 Red. masses --      2.6995                 3.2263                 2.0061
 Frc consts  --      0.1480                 0.1998                 0.2168
 IR Inten    --      2.9045                 0.1313                 1.6990

                     10                     11                     12
                      A                      A                      A
 Frequencies --    477.2201               558.2579               631.0115
 Red. masses --      4.0696                 2.3858                 3.6093
 Frc consts  --      0.5461                 0.4381                 0.8467
 IR Inten    --     10.4766                20.4914                 1.4344

                     13                     14                     15
                      A                      A                      A
 Frequencies --    772.5297               780.0644               813.8909
 Red. masses --      1.1633                 1.9695                 1.9199
 Frc consts  --      0.4091                 0.7061                 0.7493
 IR Inten    --      1.1622                 9.0153                 5.9627

                     16                     17                     18
                      A                      A                      A
 Frequencies --    839.5001               867.6513               903.7080
 Red. masses --      1.4643                 2.3170                 1.8481
 Frc consts  --      0.6080                 1.0277                 0.8893
 IR Inten    --     17.6441                13.1491                 3.5651

                     19                     20                     21
                      A                      A                      A
 Frequencies --    923.5403               984.7625              1034.0759
 Red. masses --      2.5946                 2.3872                 1.8970
 Frc consts  --      1.3039                 1.3639                 1.1952
 IR Inten    --      4.8624                 5.5084                22.7888

                     22                     23                     24
                      A                      A                      A
 Frequencies --   1045.2058              1064.9261              1090.0590
 Red. masses --      2.0277                 1.4810                 1.4111
 Frc consts  --      1.3051                 0.9896                 0.9879
 IR Inten    --      1.6435                 7.0931                 4.0437

                     25                     26                     27
                      A                      A                      A
 Frequencies --   1099.0969              1144.0050              1156.3690
 Red. masses --      2.0450                 1.1812                 1.4837
 Frc consts  --      1.4555                 0.9108                 1.1690
 IR Inten    --     72.7100                 6.9471                38.6254

                     28                     29                     30
                      A                      A                      A
 Frequencies --   1198.2648              1206.4177              1229.6278
 Red. masses --      1.3964                 1.5414                 1.7748
 Frc consts  --      1.1813                 1.3217                 1.5811
 IR Inten    --      0.5696                 9.5736                 3.0259

                     31                     32                     33
                      A                      A                      A
 Frequencies --   1250.9660              1289.6774              1302.6085
 Red. masses --      1.3789                 1.7428                 1.4766
 Frc consts  --      1.2714                 1.7079                 1.4762
 IR Inten    --      9.1440                58.9300                 6.5270

                     34                     35                     36
                      A                      A                      A
 Frequencies --   1400.7844              1408.2512              1446.2547
 Red. masses --      1.5609                 1.1657                 1.1033
 Frc consts  --      1.8046                 1.3620                 1.3596
 IR Inten    --      7.2061                 4.6502                13.8265

                     37                     38                     39
                      A                      A                      A
 Frequencies --   1466.4680              1475.1470              1506.8645
 Red. masses --      1.0920                 1.0949                 1.3471
 Frc consts  --      1.3836                 1.4038                 1.8021
 IR Inten    --      3.8711                 2.5553                 2.2646

                     40                     41                     42
                      A                      A                      A
 Frequencies --   1793.0513              1837.9307              2915.3872
 Red. masses --     11.3744                 9.7514                 1.0849
 Frc consts  --     21.5459                19.4077                 5.4328
 IR Inten    --    267.7532                82.0215                66.2888

                     43                     44                     45
                      A                      A                      A
 Frequencies --   3033.4255              3047.4522              3095.1525
 Red. masses --      1.0600                 1.0628                 1.1014
 Frc consts  --      5.7466                 5.8153                 6.2168
 IR Inten    --     11.3352                 0.4215                12.0869

                     46                     47                     48
                      A                      A                      A
 Frequencies --   3133.3974              3140.8087              3144.0670
 Red. masses --      1.0529                 1.0750                 1.0914
 Frc consts  --      6.0909                 6.2478                 6.3565
 IR Inten    --     18.1001                 3.3258                18.3024

                     49                     50                     51
                      A                      A                      A
 Frequencies --   3144.6718              3213.4584              3229.6116
 Red. masses --      1.0785                 1.1173                 1.1150
 Frc consts  --      6.2837                 6.7979                 6.8522
 IR Inten    --      3.3283                 1.2709                14.0933

 - Thermochemistry -
 -------------------
 Temperature   298.150 Kelvin.  Pressure   1.00000 Atm.
 Atom     1 has atomic number  8 and mass  15.99491

 Molecular mass:   126.06808 amu.
 Principal axes and moments of inertia in atomic units:
                           1         2         3
     Eigenvalues --   875.690251425.146272076.04105
           X            0.99983  -0.01763  -0.00492
           Y            0.01767   0.99980   0.00946
           Z            0.00475  -0.00954   0.99994
 This molecule is an asymmetric top.
 Rotational symmetry number  1.
 Warning -- assumption of classical behavior for rotation
           may cause significant error
 Rotational temperatures (Kelvin)      0.09891     0.06078     0.04172
 Rotational constants (GHZ):           2.06094     1.26636     0.86932
 Zero-point vibrational energy     411614.3 (Joules/Mol)
                                   98.37817 (Kcal/Mol)
 Warning -- explicit consideration of  11 degrees of freedom as
           vibrations may cause significant error
 Vibrational temperatures:     44.38    55.94   144.69   163.03   213.79
          (Kelvin)            332.62   438.85   466.49   616.21   686.61
                              803.21   907.88  1111.50  1122.34  1171.01
                             1207.85  1248.36  1300.23  1328.77  1416.85
                             1487.80  1503.82  1532.19  1568.35  1581.35
                             1645.97  1663.75  1724.03  1735.76  1769.16
                             1799.86  1855.56  1874.16  2015.41  2026.16
                             2080.84  2109.92  2122.40  2168.04  2579.80
                             2644.37  4194.59  4364.42  4384.60  4453.23
                             4508.25  4518.92  4523.61  4524.48  4623.44
                             4646.68

 Zero-point correction=                           0.156776 (Hartree/Particle)
 Thermal correction to Energy=                    0.166425
 Thermal correction to Enthalpy=                  0.167369
 Thermal correction to Gibbs Free Energy=         0.120163
 Sum of electronic and zero-point Energies=           -423.037092
 Sum of electronic and thermal Energies=              -423.027443
 Sum of electronic and thermal Enthalpies=            -423.026499
 Sum of electronic and thermal Free Energies=         -423.073704

                     E (Thermal)             CV                S
                      KCal/Mol        Cal/Mol-Kelvin    Cal/Mol-Kelvin
 Total                  104.433             33.787             99.353
 Electronic               0.000              0.000              0.000
 Translational            0.889              2.981             40.409
 Rotational               0.889              2.981             29.340
 Vibrational            102.656             27.825             29.605
 Vibration     1          0.594              1.984              5.774
 Vibration     2          0.594              1.981              5.315
 Vibration     3          0.604              1.949              3.443
 Vibration     4          0.607              1.938              3.211
 Vibration     5          0.618              1.904              2.690
 Vibration     6          0.653              1.793              1.870
 Vibration     7          0.696              1.664              1.389
 Vibration     8          0.709              1.627              1.289
 Vibration     9          0.790              1.409              0.864
 Vibration    10          0.834              1.301              0.718
 Vibration    11          0.914              1.122              0.527

 Optimization completed.
    -- Stationary point found.
 Normal termination of Gaussian 09 at Mon Jan 27 14:11:21 2020.
