 Gaussian 09, Revision D.01,
 Gaussian 09:  ES64L-G09RevD.01 24-Apr-2013

 -----------------------------
 # b3lyp 6-31G(2df,p) opt Freq
 -----------------------------

 -----
 titel
 -----
 Symbolic Z-matrix:
 Charge =  0 Multiplicity = 1

 SCF Done:  E(RB3LYP) =  -423.157490436     A.U. after   14 cycles
 Optimization completed.
    -- Stationary point found.
 Normal termination of Gaussian 09 at Mon Jan 27 14:05:45 2020.

 ----------------------------------------------------------------------
 #N Geom=AllCheck Guess=TCheck SCRF=Check GenChk RB3LYP/6-31G(2df,p) Fr
 eq
 ----------------------------------------------------------------------

 Structure from the checkpoint file:  "/scratch/puck/g09_b9a7619a-5216-4458-8037-4c55311cf302/Gau-171768.chk"
 -----
 titel
 -----
 Charge =  0 Multiplicity = 1

                         Standard orientation:
 ---------------------------------------------------------------------
 Center     Atomic      Atomic             Coordinates (Angstroms)
 Number     Number       Type             X           Y           Z
 ---------------------------------------------------------------------
      1          6           0        2.523039   -1.099390    0.015043
      2          6           0        1.740382    0.201249   -0.004708
      3          8           0        2.284846    1.282927   -0.009898
      4          6           0        0.245818    0.085693   -0.013331
      5          6           0       -0.655133   -0.759877   -0.978222
      6          6           0       -1.614662   -0.045771   -0.000608
      7          8           0       -2.984961   -0.192848   -0.061756
      8          6           0       -0.764382    1.250398   -0.181214
      9          6           0       -0.648104   -0.453278    1.157535
     10          1           0        3.589112   -0.885981    0.100410
     11          1           0        2.200918   -1.733975    0.847575
     12          1           0        2.335266   -1.664053   -0.905264
     13          1           0       -0.682829   -0.431888   -2.020264
     14          1           0       -0.587861   -1.847114   -0.890941
     15          1           0       -3.388192    0.419521    0.563112
     16          1           0       -0.794829    1.727038   -1.163474
     17          1           0       -0.792552    1.983338    0.628899
     18          1           0       -0.664919    0.158555    2.063662
     19          1           0       -0.574956   -1.520215    1.382545
 ---------------------------------------------------------------------

 SCF Done:  E(RB3LYP) =  -423.157490437     A.U. after    1 cycles

 The electronic state is 1-A.
 Alpha  occ. eigenvalues --  -19.15252 -19.12698 -10.26893 -10.25818 -10.21532
 Alpha  occ. eigenvalues --  -10.19775 -10.19734 -10.18910 -10.18813  -1.04068
 Alpha  occ. eigenvalues --   -1.03673  -0.91750  -0.74990  -0.68159  -0.67812
 Alpha  occ. eigenvalues --   -0.65240  -0.57643  -0.54489  -0.48970  -0.46481
 Alpha  occ. eigenvalues --   -0.46436  -0.44496  -0.43701  -0.42775  -0.40335
 Alpha  occ. eigenvalues --   -0.38695  -0.36390  -0.36311  -0.35766  -0.32841
 Alpha  occ. eigenvalues --   -0.32329  -0.30799  -0.26876  -0.24194
 Alpha virt. eigenvalues --   -0.01677   0.07526   0.08475   0.11178   0.13017
 Alpha virt. eigenvalues --    0.13350   0.14530   0.15338   0.15760   0.15820
 Alpha virt. eigenvalues --    0.17131   0.17580   0.18810   0.19850   0.22965

 Mulliken charges:
               1
     1  C   -0.492723
     2  C    0.249575
     3  O   -0.295959
     4  C    0.266123
     5  C   -0.303164
     6  C    0.391191
     7  O   -0.466798
     8  C   -0.327521
     9  C   -0.328630
    10  H    0.141932
    11  H    0.138624
    12  H    0.144082
    13  H    0.103929
    14  H    0.098416
    15  H    0.284502
    16  H    0.102592
    17  H    0.096932
    18  H    0.098416
    19  H    0.098478
 Sum of Mulliken charges =   0.00000

 Dipole moment (field-independent basis, Debye):
    X=             -1.1086    Y=             -1.3966    Z=              0.8944  Tot=              1.9948
 Quadrupole moment (field-independent basis, Debye-Ang):
   XX=            -57.4198   YY=            -54.8533   ZZ=            -51.0027
   XY=             -9.7264   XZ=             -3.6106   YZ=              0.6689

  Exact polarizability:  87.109  -1.185  76.458  -1.078   0.542  67.030
 Approx polarizability: 117.415   7.189 121.366  -1.189   1.096 102.918

                      1                      2                      3
                      A                      A                      A
 Frequencies --     30.0700               109.5221               140.1817
 Red. masses --      2.8358                 1.1440                 3.6622
 Frc consts  --      0.0015                 0.0081                 0.0424
 IR Inten    --      3.8613                 0.1085                 5.6300

                      4                      5                      6
                      A                      A                      A
 Frequencies --    150.3905               243.6299               329.4359
 Red. masses --      4.3115                 1.1226                 3.3342
 Frc consts  --      0.0575                 0.0393                 0.2132
 IR Inten    --      0.9105                88.1845                11.9339

                      7                      8                      9
                      A                      A                      A
 Frequencies --    369.7913               382.1355               473.8001
 Red. masses --      4.3179                 4.0541                 3.3274
 Frc consts  --      0.3479                 0.3488                 0.4401
 IR Inten    --      1.5584                 7.5242                 2.4320

                     10                     11                     12
                      A                      A                      A
 Frequencies --    538.5696               555.4300               595.5551
 Red. masses --      1.9310                 1.9384                 2.3158
 Frc consts  --      0.3300                 0.3523                 0.4840
 IR Inten    --      1.1126                 3.9478                 0.4150

                     13                     14                     15
                      A                      A                      A
 Frequencies --    612.8700               647.3031               775.2884
 Red. masses --      3.6375                 3.8156                 2.9548
 Frc consts  --      0.8050                 0.9419                 1.0464
 IR Inten    --     21.6174                 2.7889                 2.4338

                     16                     17                     18
                      A                      A                      A
 Frequencies --    799.8936               922.2186               949.3475
 Red. masses --      2.8625                 4.0519                 2.5338
 Frc consts  --      1.0791                 2.0304                 1.3455
 IR Inten    --      2.3003                 8.6008                29.6241

                     19                     20                     21
                      A                      A                      A
 Frequencies --    956.3912               983.7277               997.5984
 Red. masses --      1.2316                 1.0411                 2.2749
 Frc consts  --      0.6637                 0.5936                 1.3339
 IR Inten    --      0.3185                 0.1646                 3.7261

                     22                     23                     24
                      A                      A                      A
 Frequencies --   1046.8454              1057.8253              1065.6140
 Red. masses --      2.3764                 1.9761                 2.3298
 Frc consts  --      1.5344                 1.3028                 1.5587
 IR Inten    --     16.9341                22.4423                 2.9496

                     25                     26                     27
                      A                      A                      A
 Frequencies --   1106.0833              1124.8020              1135.2936
 Red. masses --      1.3178                 1.3293                 1.4419
 Frc consts  --      0.9499                 0.9909                 1.0950
 IR Inten    --     16.9453                 1.1950                12.4758

                     28                     29                     30
                      A                      A                      A
 Frequencies --   1149.5191              1161.5655              1171.2035
 Red. masses --      1.4152                 1.6693                 2.3013
 Frc consts  --      1.1018                 1.3270                 1.8599
 IR Inten    --      0.6209                 0.5748                 7.0555

                     31                     32                     33
                      A                      A                      A
 Frequencies --   1195.5286              1291.9670              1337.2095
 Red. masses --      2.0858                 2.6035                 2.5352
 Frc consts  --      1.7565                 2.5604                 2.6710
 IR Inten    --     19.6456               177.8543                96.6559

                     34                     35                     36
                      A                      A                      A
 Frequencies --   1377.7861              1388.8033              1462.9493
 Red. masses --      1.6667                 1.9731                 1.0547
 Frc consts  --      1.8641                 2.2423                 1.3300
 IR Inten    --     13.9208               109.3253                 7.6144

                     37                     38                     39
                      A                      A                      A
 Frequencies --   1473.0823              1491.6089              1497.6377
 Red. masses --      1.0487                 1.0992                 1.1015
 Frc consts  --      1.3408                 1.4409                 1.4556
 IR Inten    --      8.8687                 0.8185                 0.6826

                     40                     41                     42
                      A                      A                      A
 Frequencies --   1560.4119              1797.9516              3038.5896
 Red. masses --      1.2787                11.2895                 1.0366
 Frc consts  --      1.8344                21.5021                 5.6390
 IR Inten    --     32.3364               161.7306                 1.8312

                     43                     44                     45
                      A                      A                      A
 Frequencies --   3049.5811              3055.6137              3064.6482
 Red. masses --      1.0533                 1.0538                 1.0555
 Frc consts  --      5.7712                 5.7970                 5.8407
 IR Inten    --     44.4806                43.2821                 6.1226

                     46                     47                     48
                      A                      A                      A
 Frequencies --   3099.6190              3120.7402              3127.0266
 Red. masses --      1.0980                 1.1130                 1.1114
 Frc consts  --      6.2152                 6.3862                 6.4032
 IR Inten    --      7.7407                 9.1027                38.0112

                     49                     50                     51
                      A                      A                      A
 Frequencies --   3131.2596              3152.4325              3809.3517
 Red. masses --      1.1113                 1.1022                 1.0657
 Frc consts  --      6.4196                 6.4536                 9.1116
 IR Inten    --     38.0844                11.4440                32.0823

 - Thermochemistry -
 -------------------
 Temperature   298.150 Kelvin.  Pressure   1.00000 Atm.
 Atom     1 has atomic number  6 and mass  12.00000

 Molecular mass:   126.06808 amu.
 Principal axes and moments of inertia in atomic units:
                           1         2         3
     Eigenvalues --   471.720721675.025831841.15490
           X            0.99925  -0.03858  -0.00437
           Y            0.03860   0.99925   0.00432
           Z            0.00420  -0.00449   0.99998
 This molecule is an asymmetric top.
 Rotational symmetry number  1.
 Warning -- assumption of classical behavior for rotation
           may cause significant error
 Rotational temperatures (Kelvin)      0.18361     0.05171     0.04704
 Rotational constants (GHZ):           3.82587     1.07744     0.98022
 Zero-point vibrational energy     413343.9 (Joules/Mol)
                                   98.79156 (Kcal/Mol)
 Warning -- explicit consideration of  13 degrees of freedom as
           vibrations may cause significant error
 Vibrational temperatures:     43.26   157.58   201.69   216.38   350.53
          (Kelvin)            473.98   532.05   549.81   681.69   774.88
                              799.14   856.87   881.78   931.32  1115.47
                             1150.87  1326.87  1365.90  1376.03  1415.36
                             1435.32  1506.18  1521.97  1533.18  1591.41
                             1618.34  1633.43  1653.90  1671.23  1685.10
                             1720.10  1858.85  1923.94  1982.32  1998.18
                             2104.86  2119.43  2146.09  2154.76  2245.08
                             2586.85  4371.85  4387.66  4396.34  4409.34
                             4459.65  4490.04  4499.09  4505.18  4535.64
                             5480.80

 Zero-point correction=                           0.157434 (Hartree/Particle)
 Thermal correction to Energy=                    0.166465
 Thermal correction to Enthalpy=                  0.167410
 Thermal correction to Gibbs Free Energy=         0.122887
 Sum of electronic and zero-point Energies=           -423.000056
 Sum of electronic and thermal Energies=              -422.991025
 Sum of electronic and thermal Enthalpies=            -422.990081
 Sum of electronic and thermal Free Energies=         -423.034603

                     E (Thermal)             CV                S
                      KCal/Mol        Cal/Mol-Kelvin    Cal/Mol-Kelvin
 Total                  104.459             33.728             93.705
 Electronic               0.000              0.000              0.000
 Translational            0.889              2.981             40.409
 Rotational               0.889              2.981             28.766
 Vibrational            102.681             27.767             24.530
 Vibration     1          0.594              1.984              5.825
 Vibration     2          0.606              1.942              3.277
 Vibration     3          0.615              1.913              2.801
 Vibration     4          0.618              1.902              2.667
 Vibration     5          0.659              1.773              1.776
 Vibration     6          0.712              1.617              1.263
 Vibration     7          0.742              1.534              1.081
 Vibration     8          0.752              1.508              1.031
 Vibration     9          0.831              1.308              0.727
 Vibration    10          0.894              1.165              0.568
 Vibration    11          0.911              1.128              0.533
 Vibration    12          0.953              1.041              0.457
 Vibration    13          0.972              1.005              0.428

 Normal termination of Gaussian 09 at Mon Jan 27 14:48:21 2020.
