 Gaussian 09, Revision D.01,
 Gaussian 09:  ES64L-G09RevD.01 24-Apr-2013

 -----------------------------
 # b3lyp 6-31G(2df,p) opt Freq
 -----------------------------

 -----
 titel
 -----
 Symbolic Z-matrix:
 Charge =  0 Multiplicity = 1

 SCF Done:  E(RB3LYP) =  -423.161035299     A.U. after   14 cycles
 Optimization completed.
    -- Stationary point found.
 Normal termination of Gaussian 09 at Tue Jan 28 02:05:23 2020.

 ----------------------------------------------------------------------
 #N Geom=AllCheck Guess=TCheck SCRF=Check GenChk RB3LYP/6-31G(2df,p) Fr
 eq
 ----------------------------------------------------------------------

 Structure from the checkpoint file:  "/scratch/puck/g09_8c38aa9f-afa1-40ba-8abc-642a2342cf81/Gau-111947.chk"
 -----
 titel
 -----
 Charge =  0 Multiplicity = 1

                         Standard orientation:
 ---------------------------------------------------------------------
 Center     Atomic      Atomic             Coordinates (Angstroms)
 Number     Number       Type             X           Y           Z
 ---------------------------------------------------------------------
      1          6           0        2.847668    0.728504    0.218291
      2          6           0        1.628250   -0.137483    0.433235
      3          6           0        1.363579   -1.344451   -0.432991
      4          6           0        0.493221   -0.120112   -0.563171
      5          6           0       -0.921850   -0.134108   -0.083157
      6          6           0       -1.843660   -1.261869   -0.364384
      7          8           0       -1.274004   -1.096692    0.925146
      8          6           0       -1.585771    1.194590    0.136682
      9          8           0       -1.154578    2.243786   -0.265213
     10          1           0        3.720672    0.319453    0.738732
     11          1           0        3.098062    0.797337   -0.845772
     12          1           0        2.681918    1.746528    0.586422
     13          1           0        1.322516   -0.253069    1.469824
     14          1           0        2.053200   -1.558993   -1.242755
     15          1           0        0.934998   -2.217760    0.046158
     16          1           0        0.636464    0.507923   -1.436784
     17          1           0       -2.918840   -1.097387   -0.424934
     18          1           0       -1.454705   -2.090917   -0.952116
     19          1           0       -2.534244    1.119721    0.714731
 ---------------------------------------------------------------------

 SCF Done:  E(RB3LYP) =  -423.161035299     A.U. after    1 cycles

 The electronic state is 1-A.
 Alpha  occ. eigenvalues --  -19.17564 -19.14808 -10.27649 -10.25809 -10.25315
 Alpha  occ. eigenvalues --  -10.19774 -10.19443 -10.18729 -10.17760  -1.09586
 Alpha  occ. eigenvalues --   -1.05372  -0.86719  -0.73507  -0.70629  -0.67079
 Alpha  occ. eigenvalues --   -0.62519  -0.57695  -0.55351  -0.51369  -0.50622
 Alpha  occ. eigenvalues --   -0.46505  -0.45359  -0.44209  -0.41855  -0.41148
 Alpha  occ. eigenvalues --   -0.40044  -0.39023  -0.37117  -0.35416  -0.33631
 Alpha  occ. eigenvalues --   -0.30068  -0.29558  -0.27339  -0.25524
 Alpha virt. eigenvalues --   -0.03562   0.08617   0.09687   0.10171   0.11732
 Alpha virt. eigenvalues --    0.12238   0.13184   0.14258   0.15479   0.16428
 Alpha virt. eigenvalues --    0.16988   0.17605   0.18294   0.19835   0.22951

 Mulliken charges:
               1
     1  C   -0.409689
     2  C    0.015699
     3  C   -0.315030
     4  C   -0.096369
     5  C    0.274834
     6  C   -0.216061
     7  O   -0.260566
     8  C    0.129578
     9  O   -0.253623
    10  H    0.117627
    11  H    0.113838
    12  H    0.127197
    13  H    0.097313
    14  H    0.109947
    15  H    0.121721
    16  H    0.103050
    17  H    0.123858
    18  H    0.131655
    19  H    0.085023
 Sum of Mulliken charges =   0.00000

 Dipole moment (field-independent basis, Debye):
    X=             -0.2164    Y=             -1.8307    Z=             -0.8942  Tot=              2.0489
 Quadrupole moment (field-independent basis, Debye-Ang):
   XX=            -48.4671   YY=            -59.0968   ZZ=            -53.4139
   XY=              2.4092   XZ=              0.9755   YZ=              3.5002

  Exact polarizability:  87.971   4.754  81.627  -0.654   2.415  60.621
 Approx polarizability: 111.396   9.580 126.893  -1.052  -2.967  99.529

                      1                      2                      3
                      A                      A                      A
 Frequencies --     55.0578               112.5129               142.9710
 Red. masses --      3.7065                 3.9096                 3.3050
 Frc consts  --      0.0066                 0.0292                 0.0398
 IR Inten    --      1.3630                 2.7368                 6.6931

                      4                      5                      6
                      A                      A                      A
 Frequencies --    177.1356               221.8926               247.1705
 Red. masses --      2.0042                 1.3513                 4.0201
 Frc consts  --      0.0371                 0.0392                 0.1447
 IR Inten    --      0.4945                 0.7344                 8.0226

                      7                      8                      9
                      A                      A                      A
 Frequencies --    284.2720               357.9412               382.9463
 Red. masses --      3.0029                 2.4378                 2.3104
 Frc consts  --      0.1430                 0.1840                 0.1996
 IR Inten    --      1.0431                 4.1543                 2.9922

                     10                     11                     12
                      A                      A                      A
 Frequencies --    455.5017               484.4423               599.9994
 Red. masses --      3.5911                 3.3311                 4.5896
 Frc consts  --      0.4390                 0.4606                 0.9735
 IR Inten    --      0.9771                 3.8286                10.8662

                     13                     14                     15
                      A                      A                      A
 Frequencies --    714.2897               810.8596               846.3267
 Red. masses --      3.0242                 1.9278                 3.3028
 Frc consts  --      0.9091                 0.7468                 1.3938
 IR Inten    --      8.3830                 4.7420                19.0892

                     16                     17                     18
                      A                      A                      A
 Frequencies --    878.4843               879.9947               889.7180
 Red. masses --      1.9544                 1.8437                 2.4777
 Frc consts  --      0.8886                 0.8412                 1.1556
 IR Inten    --     15.4597                18.7359                 9.4591

                     19                     20                     21
                      A                      A                      A
 Frequencies --    922.9379               997.2706              1033.6919
 Red. masses --      1.3831                 2.1574                 1.8415
 Frc consts  --      0.6942                 1.2642                 1.1593
 IR Inten    --      2.1796                11.3149                 9.1970

                     22                     23                     24
                      A                      A                      A
 Frequencies --   1046.2075              1083.6294              1101.0921
 Red. masses --      2.1149                 1.4659                 1.6522
 Frc consts  --      1.3639                 1.0142                 1.1802
 IR Inten    --      1.4228                 1.6241                11.1706

                     25                     26                     27
                      A                      A                      A
 Frequencies --   1119.5472              1136.7088              1145.2930
 Red. masses --      1.1792                 1.2877                 1.4919
 Frc consts  --      0.8708                 0.9803                 1.1530
 IR Inten    --      1.9511                 2.4406                 0.2856

                     28                     29                     30
                      A                      A                      A
 Frequencies --   1162.9425              1199.9879              1234.2052
 Red. masses --      1.3443                 1.6800                 1.9465
 Frc consts  --      1.0712                 1.4253                 1.7469
 IR Inten    --      1.4070                 0.5979                 3.4474

                     31                     32                     33
                      A                      A                      A
 Frequencies --   1250.5383              1330.2520              1358.2684
 Red. masses --      2.1725                 1.9021                 1.8671
 Frc consts  --      2.0018                 1.9832                 2.0295
 IR Inten    --     12.1751                 3.5628                 0.8103

                     34                     35                     36
                      A                      A                      A
 Frequencies --   1413.0671              1421.3433              1444.0029
 Red. masses --      1.2471                 1.4008                 1.5271
 Frc consts  --      1.4672                 1.6674                 1.8761
 IR Inten    --      3.6944                 4.1304                 8.5676

                     37                     38                     39
                      A                      A                      A
 Frequencies --   1490.0364              1491.6387              1505.2206
 Red. masses --      1.1338                 1.2705                 1.2814
 Frc consts  --      1.4831                 1.6656                 1.7105
 IR Inten    --      4.4790                 4.6791                 5.2559

                     40                     41                     42
                      A                      A                      A
 Frequencies --   1516.1656              1829.9995              2887.1379
 Red. masses --      1.2509                10.8440                 1.0843
 Frc consts  --      1.6941                21.3965                 5.3254
 IR Inten    --      1.5020               166.6060                96.4614

                     43                     44                     45
                      A                      A                      A
 Frequencies --   3027.6010              3086.2494              3092.1322
 Red. masses --      1.0352                 1.0497                 1.1007
 Frc consts  --      5.5906                 5.8908                 6.2009
 IR Inten    --     31.8220                21.2371                23.5475

                     46                     47                     48
                      A                      A                      A
 Frequencies --   3096.0017              3131.4840              3146.4361
 Red. masses --      1.1008                 1.0539                 1.0889
 Frc consts  --      6.2168                 6.0893                 6.3515
 IR Inten    --     18.5003                12.5954                10.4599

                     49                     50                     51
                      A                      A                      A
 Frequencies --   3165.0924              3180.6122              3220.5030
 Red. masses --      1.0873                 1.1197                 1.1161
 Frc consts  --      6.4179                 6.6739                 6.8203
 IR Inten    --      4.6510                13.1507                 7.2063

 - Thermochemistry -
 -------------------
 Temperature   298.150 Kelvin.  Pressure   1.00000 Atm.
 Atom     1 has atomic number  6 and mass  12.00000

 Molecular mass:   126.06808 amu.
 Principal axes and moments of inertia in atomic units:
                           1         2         3
     Eigenvalues --   776.416081330.082361860.22815
           X            0.99919   0.04012   0.00375
           Y           -0.04022   0.99871   0.03084
           Z           -0.00251  -0.03097   0.99952
 This molecule is an asymmetric top.
 Rotational symmetry number  1.
 Warning -- assumption of classical behavior for rotation
           may cause significant error
 Rotational temperatures (Kelvin)      0.11156     0.06512     0.04656
 Rotational constants (GHZ):           2.32445     1.35686     0.97017
 Zero-point vibrational energy     411568.1 (Joules/Mol)
                                   98.36714 (Kcal/Mol)
 Warning -- explicit consideration of  12 degrees of freedom as
           vibrations may cause significant error
 Vibrational temperatures:     79.22   161.88   205.70   254.86   319.25
          (Kelvin)            355.62   409.00   515.00   550.97   655.36
                              697.00   863.26  1027.70  1166.64  1217.67
                             1263.94  1266.11  1280.10  1327.90  1434.85
                             1487.25  1505.26  1559.10  1584.22  1610.78
                             1635.47  1647.82  1673.21  1726.51  1775.74
                             1799.24  1913.93  1954.24  2033.09  2044.99
                             2077.60  2143.83  2146.13  2165.67  2181.42
                             2632.96  4153.94  4356.04  4440.42  4448.88
                             4454.45  4505.50  4527.01  4553.86  4576.19
                             4633.58

 Zero-point correction=                           0.156758 (Hartree/Particle)
 Thermal correction to Energy=                    0.165983
 Thermal correction to Enthalpy=                  0.166927
 Thermal correction to Gibbs Free Energy=         0.122360
 Sum of electronic and zero-point Energies=           -423.004277
 Sum of electronic and thermal Energies=              -422.995052
 Sum of electronic and thermal Enthalpies=            -422.994108
 Sum of electronic and thermal Free Energies=         -423.038675

                     E (Thermal)             CV                S
                      KCal/Mol        Cal/Mol-Kelvin    Cal/Mol-Kelvin
 Total                  104.156             33.764             93.798
 Electronic               0.000              0.000              0.000
 Translational            0.889              2.981             40.409
 Rotational               0.889              2.981             29.042
 Vibrational            102.378             27.802             24.347
 Vibration     1          0.596              1.976              4.627
 Vibration     2          0.607              1.939              3.225
 Vibration     3          0.616              1.910              2.764
 Vibration     4          0.628              1.871              2.358
 Vibration     5          0.648              1.808              1.944
 Vibration     6          0.661              1.767              1.751
 Vibration     7          0.683              1.703              1.508
 Vibration     8          0.733              1.559              1.131
 Vibration     9          0.752              1.507              1.028
 Vibration    10          0.814              1.349              0.779
 Vibration    11          0.841              1.285              0.698
 Vibration    12          0.958              1.032              0.450

 Normal termination of Gaussian 09 at Tue Jan 28 02:45:38 2020.
