 Gaussian 09, Revision D.01,
 Gaussian 09:  ES64L-G09RevD.01 24-Apr-2013

 -----------------------------
 # b3lyp 6-31G(2df,p) opt Freq
 -----------------------------

 -----
 titel
 -----
 Symbolic Z-matrix:
 Charge =  0 Multiplicity = 1

 SCF Done:  E(RB3LYP) =  -423.180386778     A.U. after   14 cycles
 SCF Done:  E(RB3LYP) =  -423.180387442     A.U. after    7 cycles
 SCF Done:  E(RB3LYP) =  -423.180387795     A.U. after    7 cycles
 Optimization completed.
    -- Stationary point found.
 Normal termination of Gaussian 09 at Mon Jan 27 22:10:53 2020.

 ----------------------------------------------------------------------
 #N Geom=AllCheck Guess=TCheck SCRF=Check GenChk RB3LYP/6-31G(2df,p) Fr
 eq
 ----------------------------------------------------------------------

 Structure from the checkpoint file:  "/scratch/puck/g09_b1648cb3-3b7a-42b5-a8f1-30fc6dd09c02/Gau-98589.chk"
 -----
 titel
 -----
 Charge =  0 Multiplicity = 1

                         Standard orientation:
 ---------------------------------------------------------------------
 Center     Atomic      Atomic             Coordinates (Angstroms)
 Number     Number       Type             X           Y           Z
 ---------------------------------------------------------------------
      1          6           0        1.478899   -1.393325    1.023597
      2          6           0        0.460221   -0.823164    0.082780
      3          6           0       -0.858241   -1.501225   -0.323210
      4          6           0       -1.533207   -0.112533   -0.193183
      5          8           0       -2.681925    0.233350   -0.148936
      6          6           0       -0.250520    0.587542    0.122116
      7          6           0       -0.103314    1.809200    0.981535
      8          6           0        0.769830    0.208714   -0.953064
      9          8           0        1.959684    0.931933   -0.826722
     10          1           0        2.271836   -0.667438    1.221614
     11          1           0        1.026914   -1.675704    1.980233
     12          1           0        1.940808   -2.294476    0.600949
     13          1           0       -0.886902   -1.991223   -1.302665
     14          1           0       -1.255438   -2.187565    0.431305
     15          1           0        0.944481    2.100166    1.072470
     16          1           0       -0.651978    2.646509    0.536956
     17          1           0       -0.514768    1.640675    1.981614
     18          1           0        0.444987    0.065870   -1.986896
     19          1           0        2.675977    0.389666   -1.173734
 ---------------------------------------------------------------------

 SCF Done:  E(RB3LYP) =  -423.180387795     A.U. after    1 cycles

 The electronic state is 1-A.
 Alpha  occ. eigenvalues --  -19.16139 -19.12375 -10.26185 -10.25216 -10.21359
 Alpha  occ. eigenvalues --  -10.20338 -10.19271 -10.19213 -10.17942  -1.04787
 Alpha  occ. eigenvalues --   -1.03372  -0.90121  -0.74657  -0.73058  -0.70056
 Alpha  occ. eigenvalues --   -0.61525  -0.56989  -0.53509  -0.48862  -0.47700
 Alpha  occ. eigenvalues --   -0.45746  -0.44540  -0.42854  -0.41445  -0.40493
 Alpha  occ. eigenvalues --   -0.39983  -0.39398  -0.37823  -0.36686  -0.34534
 Alpha  occ. eigenvalues --   -0.32626  -0.27767  -0.25456  -0.23624
 Alpha virt. eigenvalues --   -0.00620   0.05998   0.09891   0.10810   0.11899
 Alpha virt. eigenvalues --    0.12781   0.13881   0.14704   0.15730   0.16266
 Alpha virt. eigenvalues --    0.17841   0.18787   0.19799   0.20802   0.21003

 Mulliken charges:
               1
     1  C   -0.505656
     2  C    0.241657
     3  C   -0.427830
     4  C    0.375693
     5  O   -0.323104
     6  C    0.147072
     7  C   -0.505064
     8  C    0.004096
     9  O   -0.424532
    10  H    0.132381
    11  H    0.128209
    12  H    0.122697
    13  H    0.113415
    14  H    0.130742
    15  H    0.141698
    16  H    0.138818
    17  H    0.124967
    18  H    0.090079
    19  H    0.294663
 Sum of Mulliken charges =   0.00000

 Dipole moment (field-independent basis, Debye):
    X=              3.5497    Y=             -1.8315    Z=             -0.2221  Tot=              4.0005
 Quadrupole moment (field-independent basis, Debye-Ang):
   XX=            -59.6342   YY=            -52.8767   ZZ=            -50.2285
   XY=             -0.7798   XZ=             -2.3809   YZ=              1.0276

  Exact polarizability:  86.122  -2.372  79.472  -0.316   1.995  66.431
 Approx polarizability: 131.232  -6.466 114.454  -2.546   1.850  98.490

                      1                      2                      3
                      A                      A                      A
 Frequencies --     95.1621               115.5996               156.1875
 Red. masses --      2.5735                 1.2603                 2.8093
 Frc consts  --      0.0137                 0.0099                 0.0404
 IR Inten    --      2.7055                 0.5869                 0.8598

                      4                      5                      6
                      A                      A                      A
 Frequencies --    187.3130               224.2499               250.4728
 Red. masses --      1.0421                 2.6492                 1.9526
 Frc consts  --      0.0215                 0.0785                 0.0722
 IR Inten    --      9.3501                 5.3246                22.3515

                      7                      8                      9
                      A                      A                      A
 Frequencies --    258.4735               292.9495               311.4610
 Red. masses --      2.0676                 2.5100                 2.4551
 Frc consts  --      0.0814                 0.1269                 0.1403
 IR Inten    --     66.2158                20.3298                 3.0422

                     10                     11                     12
                      A                      A                      A
 Frequencies --    426.4114               501.4186               544.0466
 Red. masses --      2.7615                 5.7276                 2.9397
 Frc consts  --      0.2958                 0.8484                 0.5127
 IR Inten    --      2.8414                 3.4897                 7.8205

                     13                     14                     15
                      A                      A                      A
 Frequencies --    567.6641               627.3972               664.3743
 Red. masses --      3.0518                 3.7948                 3.6309
 Frc consts  --      0.5794                 0.8801                 0.9443
 IR Inten    --      8.4411                 3.2732                 6.3159

                     16                     17                     18
                      A                      A                      A
 Frequencies --    679.4885               797.0808               857.1554
 Red. masses --      3.3787                 3.1964                 2.9258
 Frc consts  --      0.9191                 1.1965                 1.2665
 IR Inten    --     10.6371                24.4733                 9.9891

                     19                     20                     21
                      A                      A                      A
 Frequencies --    957.2263               978.9121              1008.0650
 Red. masses --      1.8410                 1.9152                 2.6162
 Frc consts  --      0.9939                 1.0813                 1.5664
 IR Inten    --      2.1603                 3.8769                20.2106

                     22                     23                     24
                      A                      A                      A
 Frequencies --   1050.3252              1080.1818              1095.7042
 Red. masses --      1.4169                 1.3902                 1.7127
 Frc consts  --      0.9210                 0.9557                 1.2115
 IR Inten    --     39.3088                 6.6869                 3.8750

                     25                     26                     27
                      A                      A                      A
 Frequencies --   1110.5772              1137.8391              1186.4438
 Red. masses --      1.6816                 2.6763                 2.6937
 Frc consts  --      1.2220                 2.0415                 2.2341
 IR Inten    --      9.0350                19.4966                47.2673

                     28                     29                     30
                      A                      A                      A
 Frequencies --   1203.4814              1244.7424              1268.2042
 Red. masses --      1.4659                 2.6792                 1.3287
 Frc consts  --      1.2510                 2.4458                 1.2591
 IR Inten    --     10.0816                 9.7943                22.9812

                     31                     32                     33
                      A                      A                      A
 Frequencies --   1349.5321              1368.1819              1406.4243
 Red. masses --      3.0790                 1.5992                 1.3574
 Frc consts  --      3.3039                 1.7637                 1.5819
 IR Inten    --     43.4800                 0.9324                 0.8836

                     34                     35                     36
                      A                      A                      A
 Frequencies --   1420.4706              1436.2200              1464.9159
 Red. masses --      1.5422                 1.6991                 1.3139
 Frc consts  --      1.8334                 2.0650                 1.6613
 IR Inten    --      1.7766                 9.2377                 3.9390

                     37                     38                     39
                      A                      A                      A
 Frequencies --   1488.6553              1490.0684              1495.6323
 Red. masses --      1.0511                 1.0486                 1.0518
 Frc consts  --      1.3724                 1.3717                 1.3862
 IR Inten    --      2.3419                 2.7212                 6.2435

                     40                     41                     42
                      A                      A                      A
 Frequencies --   1499.2801              1870.0873              3024.1720
 Red. masses --      1.1021                12.6699                 1.0396
 Frc consts  --      1.4596                26.1063                 5.6020
 IR Inten    --     14.0447               349.0964                35.4286

                     43                     44                     45
                      A                      A                      A
 Frequencies --   3040.2617              3041.0890              3057.9458
 Red. masses --      1.0518                 1.0445                 1.0876
 Frc consts  --      5.7280                 5.6914                 5.9923
 IR Inten    --     43.3409                 5.9433                37.6141

                     46                     47                     48
                      A                      A                      A
 Frequencies --   3082.5497              3097.4104              3098.0154
 Red. masses --      1.0972                 1.1043                 1.1007
 Frc consts  --      6.1428                 6.2421                 6.2240
 IR Inten    --     16.9225                 9.0859                17.7302

                     49                     50                     51
                      A                      A                      A
 Frequencies --   3117.6332              3138.8884              3809.2508
 Red. masses --      1.0993                 1.0991                 1.0663
 Frc consts  --      6.2953                 6.3800                 9.1161
 IR Inten    --     10.8289                 6.1056                32.5002

 - Thermochemistry -
 -------------------
 Temperature   298.150 Kelvin.  Pressure   1.00000 Atm.
 Atom     1 has atomic number  6 and mass  12.00000

 Molecular mass:   126.06808 amu.
 Principal axes and moments of inertia in atomic units:
                           1         2         3
     Eigenvalues --   770.188451207.577651502.15258
           X            0.99967  -0.02306   0.01103
           Y            0.02273   0.99933   0.02870
           Z           -0.01169  -0.02844   0.99953
 This molecule is an asymmetric top.
 Rotational symmetry number  1.
 Warning -- assumption of classical behavior for rotation
           may cause significant error
 Rotational temperatures (Kelvin)      0.11246     0.07173     0.05766
 Rotational constants (GHZ):           2.34325     1.49451     1.20144
 Zero-point vibrational energy     410769.5 (Joules/Mol)
                                   98.17626 (Kcal/Mol)
 Warning -- explicit consideration of  13 degrees of freedom as
           vibrations may cause significant error
 Vibrational temperatures:    136.92   166.32   224.72   269.50   322.65
          (Kelvin)            360.37   371.89   421.49   448.12   613.51
                              721.43   782.76   816.74   902.68   955.89
                              977.63  1146.82  1233.25  1377.23  1408.43
                             1450.38  1511.18  1554.14  1576.47  1597.87
                             1637.09  1707.03  1731.54  1790.90  1824.66
                             1941.67  1968.51  2023.53  2043.74  2066.40
                             2107.68  2141.84  2143.87  2151.88  2157.13
                             2690.64  4351.10  4374.25  4375.44  4399.70
                             4435.10  4456.48  4457.35  4485.57  4516.15
                             5480.66

 Zero-point correction=                           0.156454 (Hartree/Particle)
 Thermal correction to Energy=                    0.166058
 Thermal correction to Enthalpy=                  0.167003
 Thermal correction to Gibbs Free Energy=         0.122422
 Sum of electronic and zero-point Energies=           -423.023934
 Sum of electronic and thermal Energies=              -423.014329
 Sum of electronic and thermal Enthalpies=            -423.013385
 Sum of electronic and thermal Free Energies=         -423.057965

                     E (Thermal)             CV                S
                      KCal/Mol        Cal/Mol-Kelvin    Cal/Mol-Kelvin
 Total                  104.203             35.461             93.827
 Electronic               0.000              0.000              0.000
 Translational            0.889              2.981             40.409
 Rotational               0.889              2.981             28.726
 Vibrational            102.426             29.500             24.692
 Vibration     1          0.603              1.953              3.551
 Vibration     2          0.608              1.936              3.173
 Vibration     3          0.620              1.896              2.595
 Vibration     4          0.632              1.857              2.254
 Vibration     5          0.649              1.804              1.925
 Vibration     6          0.663              1.762              1.727
 Vibration     7          0.667              1.748              1.672
 Vibration     8          0.688              1.687              1.457
 Vibration     9          0.700              1.652              1.355
 Vibration    10          0.788              1.413              0.870
 Vibration    11          0.857              1.247              0.655
 Vibration    12          0.899              1.153              0.557
 Vibration    13          0.924              1.101              0.509

 Normal termination of Gaussian 09 at Mon Jan 27 22:54:05 2020.
