 Gaussian 09, Revision D.01,
 Gaussian 09:  ES64L-G09RevD.01 24-Apr-2013

 -----------------------------
 # b3lyp 6-31G(2df,p) opt Freq
 -----------------------------

 -----
 titel
 -----
 Symbolic Z-matrix:
 Charge =  0 Multiplicity = 1

 SCF Done:  E(RB3LYP) =  -423.202778451     A.U. after   14 cycles
 Optimization completed.
    -- Stationary point found.
 Normal termination of Gaussian 09 at Mon Jan 27 17:29:52 2020.

 ----------------------------------------------------------------------
 #N Geom=AllCheck Guess=TCheck SCRF=Check GenChk RB3LYP/6-31G(2df,p) Fr
 eq
 ----------------------------------------------------------------------

 Structure from the checkpoint file:  "/scratch/puck/g09_c25b3078-8e4e-4c34-8b53-043a26b55b48/Gau-39420.chk"
 -----
 titel
 -----
 Charge =  0 Multiplicity = 1

                         Standard orientation:
 ---------------------------------------------------------------------
 Center     Atomic      Atomic             Coordinates (Angstroms)
 Number     Number       Type             X           Y           Z
 ---------------------------------------------------------------------
      1          6           0        2.447976   -0.531509   -0.691780
      2          6           0        1.176816   -0.083247   -0.006482
      3          6           0        0.816681   -0.598659    1.346814
      4          6           0        0.020576   -1.072753    0.125729
      5          6           0       -1.357679   -0.584189   -0.127901
      6          8           0       -2.275925   -1.319125   -0.418840
      7          6           0       -1.566737    0.933165   -0.108336
      8          8           0       -0.460957    1.684394    0.353032
      9          6           0        0.746774    1.345808   -0.304471
     10          1           0        2.362746   -0.447868   -1.781175
     11          1           0        3.301348    0.079241   -0.374479
     12          1           0        2.677750   -1.574130   -0.453505
     13          1           0        1.453341   -1.348115    1.803735
     14          1           0        0.326744    0.075934    2.037873
     15          1           0        0.177712   -2.101287   -0.181642
     16          1           0       -1.845944    1.226226   -1.135110
     17          1           0       -2.413026    1.170916    0.541526
     18          1           0        0.650148    1.491349   -1.394627
     19          1           0        1.497795    2.053889    0.062422
 ---------------------------------------------------------------------

 SCF Done:  E(RB3LYP) =  -423.202778451     A.U. after    1 cycles

 The electronic state is 1-A.
 Alpha  occ. eigenvalues --  -19.15457 -19.12224 -10.26619 -10.24121 -10.23706
 Alpha  occ. eigenvalues --  -10.21576 -10.20227 -10.20134 -10.19343  -1.05238
 Alpha  occ. eigenvalues --   -1.03131  -0.88280  -0.76142  -0.72273  -0.67974
 Alpha  occ. eigenvalues --   -0.64236  -0.57365  -0.54257  -0.51146  -0.49405
 Alpha  occ. eigenvalues --   -0.46811  -0.44845  -0.43589  -0.42737  -0.40873
 Alpha  occ. eigenvalues --   -0.40463  -0.39526  -0.38018  -0.37166  -0.33237
 Alpha  occ. eigenvalues --   -0.30380  -0.29099  -0.27929  -0.23146
 Alpha virt. eigenvalues --   -0.01524   0.08081   0.09775   0.10591   0.11314
 Alpha virt. eigenvalues --    0.13007   0.13548   0.15203   0.15968   0.17315
 Alpha virt. eigenvalues --    0.17700   0.18217   0.19536   0.20013   0.22681

 Mulliken charges:
               1
     1  C   -0.471574
     2  C    0.298615
     3  C   -0.327882
     4  C   -0.164687
     5  C    0.360732
     6  O   -0.326072
     7  C   -0.185993
     8  O   -0.243684
     9  C   -0.147906
    10  H    0.124855
    11  H    0.124195
    12  H    0.124762
    13  H    0.121119
    14  H    0.139079
    15  H    0.103510
    16  H    0.121906
    17  H    0.141450
    18  H    0.092464
    19  H    0.115112
 Sum of Mulliken charges =   0.00000

 Dipole moment (field-independent basis, Debye):
    X=              2.9147    Y=              0.8035    Z=             -0.0404  Tot=              3.0237
 Quadrupole moment (field-independent basis, Debye-Ang):
   XX=            -56.1425   YY=            -56.6750   ZZ=            -52.0508
   XY=             -5.3774   XZ=             -1.4597   YZ=             -2.5177

  Exact polarizability:  90.116   1.767  72.775   2.075  -1.357  66.066
 Approx polarizability: 126.480  10.601 108.130   6.675   2.017 102.867

                      1                      2                      3
                      A                      A                      A
 Frequencies --     95.7024               154.0769               217.1051
 Red. masses --      3.3965                 2.5445                 1.0567
 Frc consts  --      0.0183                 0.0356                 0.0293
 IR Inten    --      4.5046                 0.3180                 0.1119

                      4                      5                      6
                      A                      A                      A
 Frequencies --    280.6916               296.3417               357.2827
 Red. masses --      2.7655                 3.4777                 2.4976
 Frc consts  --      0.1284                 0.1799                 0.1878
 IR Inten    --      1.2219                 7.4981                 0.2462

                      7                      8                      9
                      A                      A                      A
 Frequencies --    381.1921               412.6812               461.7380
 Red. masses --      2.2107                 3.8649                 4.6312
 Frc consts  --      0.1893                 0.3878                 0.5817
 IR Inten    --      3.7979                10.6051                10.4986

                     10                     11                     12
                      A                      A                      A
 Frequencies --    506.9169               574.8550               615.0156
 Red. masses --      4.5100                 2.7867                 5.3797
 Frc consts  --      0.6828                 0.5426                 1.1989
 IR Inten    --      3.6298                 1.4719                 3.6070

                     13                     14                     15
                      A                      A                      A
 Frequencies --    698.5029               770.1591               856.4691
 Red. masses --      3.3814                 2.1931                 3.0217
 Frc consts  --      0.9720                 0.7664                 1.3060
 IR Inten    --      1.2520                14.0133                15.2610

                     16                     17                     18
                      A                      A                      A
 Frequencies --    912.2701               935.1490               954.1410
 Red. masses --      1.3906                 2.1626                 1.4695
 Frc consts  --      0.6819                 1.1143                 0.7882
 IR Inten    --      2.0468                 7.9770                 4.8769

                     19                     20                     21
                      A                      A                      A
 Frequencies --    973.1775              1013.7879              1038.1150
 Red. masses --      3.7232                 2.2279                 1.7024
 Frc consts  --      2.0776                 1.3491                 1.0810
 IR Inten    --     28.9001                 3.7680                 1.1731

                     22                     23                     24
                      A                      A                      A
 Frequencies --   1057.7691              1079.4331              1105.6158
 Red. masses --      1.7313                 1.3676                 1.3953
 Frc consts  --      1.1413                 0.9389                 1.0049
 IR Inten    --      4.5404                 4.5433                10.1186

                     25                     26                     27
                      A                      A                      A
 Frequencies --   1135.6387              1148.6389              1231.5860
 Red. masses --      2.7820                 3.1331                 1.8616
 Frc consts  --      2.1139                 2.4355                 1.6636
 IR Inten    --     66.4819                14.7627                 4.5297

                     28                     29                     30
                      A                      A                      A
 Frequencies --   1253.9297              1267.9051              1314.9724
 Red. masses --      1.3089                 2.1298                 1.2597
 Frc consts  --      1.2126                 2.0172                 1.2833
 IR Inten    --      7.1240                88.7541                 5.9473

                     31                     32                     33
                      A                      A                      A
 Frequencies --   1326.8183              1349.6265              1384.4633
 Red. masses --      2.0660                 1.5701                 1.8021
 Frc consts  --      2.1429                 1.6850                 2.0352
 IR Inten    --     19.5279                10.3200                 6.4002

                     34                     35                     36
                      A                      A                      A
 Frequencies --   1417.2407              1421.7179              1456.0190
 Red. masses --      1.2426                 1.5541                 1.0834
 Frc consts  --      1.4705                 1.8508                 1.3532
 IR Inten    --      3.0401                 2.9819                 4.9115

                     37                     38                     39
                      A                      A                      A
 Frequencies --   1482.7072              1490.3288              1495.6671
 Red. masses --      1.2888                 1.0564                 1.0908
 Frc consts  --      1.6694                 1.3824                 1.4377
 IR Inten    --     10.5832                 2.7079                 0.9093

                     40                     41                     42
                      A                      A                      A
 Frequencies --   1506.0584              1798.3524              2956.0640
 Red. masses --      1.1433                11.9831                 1.0701
 Frc consts  --      1.5279                22.8334                 5.5093
 IR Inten    --      3.4138               227.3139                51.3557

                     43                     44                     45
                      A                      A                      A
 Frequencies --   2968.3253              3025.7887              3066.5480
 Red. masses --      1.0706                 1.0361                 1.0918
 Frc consts  --      5.5578                 5.5889                 6.0489
 IR Inten    --     40.8379                31.2982                28.7919

                     46                     47                     48
                      A                      A                      A
 Frequencies --   3086.5960              3100.8360              3106.0104
 Red. masses --      1.1009                 1.0903                 1.1006
 Frc consts  --      6.1793                 6.1767                 6.2556
 IR Inten    --     23.9962                 8.4019                17.7966

                     49                     50                     51
                      A                      A                      A
 Frequencies --   3143.7133              3171.0477              3237.7574
 Red. masses --      1.0546                 1.0896                 1.1164
 Frc consts  --      6.1405                 6.4557                 6.8956
 IR Inten    --      9.5243                 5.5911                 1.8782

 - Thermochemistry -
 -------------------
 Temperature   298.150 Kelvin.  Pressure   1.00000 Atm.
 Atom     1 has atomic number  6 and mass  12.00000

 Molecular mass:   126.06808 amu.
 Principal axes and moments of inertia in atomic units:
                           1         2         3
     Eigenvalues --   704.995921169.935001529.21534
           X            0.99784  -0.06422  -0.01394
           Y            0.06379   0.99753  -0.02949
           Z            0.01580   0.02854   0.99947
 This molecule is an asymmetric top.
 Rotational symmetry number  1.
 Warning -- assumption of classical behavior for rotation
           may cause significant error
 Rotational temperatures (Kelvin)      0.12286     0.07403     0.05664
 Rotational constants (GHZ):           2.55993     1.54260     1.18017
 Zero-point vibrational energy     419246.5 (Joules/Mol)
                                  100.20232 (Kcal/Mol)
 Warning -- explicit consideration of  12 degrees of freedom as
           vibrations may cause significant error
 Vibrational temperatures:    137.69   221.68   312.37   403.85   426.37
          (Kelvin)            514.05   548.45   593.76   664.34   729.34
                              827.09   884.87  1004.99  1108.09  1232.27
                             1312.55  1345.47  1372.79  1400.18  1458.61
                             1493.61  1521.89  1553.06  1590.73  1633.93
                             1652.63  1771.98  1804.12  1824.23  1891.95
                             1908.99  1941.81  1991.93  2039.09  2045.53
                             2094.88  2133.28  2144.25  2151.93  2166.88
                             2587.42  4253.11  4270.75  4353.43  4412.07
                             4440.92  4461.41  4468.85  4523.10  4562.42
                             4658.40

 Zero-point correction=                           0.159683 (Hartree/Particle)
 Thermal correction to Energy=                    0.167834
 Thermal correction to Enthalpy=                  0.168778
 Thermal correction to Gibbs Free Energy=         0.127205
 Sum of electronic and zero-point Energies=           -423.043096
 Sum of electronic and thermal Energies=              -423.034945
 Sum of electronic and thermal Enthalpies=            -423.034000
 Sum of electronic and thermal Free Energies=         -423.075573

                     E (Thermal)             CV                S
                      KCal/Mol        Cal/Mol-Kelvin    Cal/Mol-Kelvin
 Total                  105.317             31.793             87.497
 Electronic               0.000              0.000              0.000
 Translational            0.889              2.981             40.409
 Rotational               0.889              2.981             28.624
 Vibrational            103.540             25.831             18.464
 Vibration     1          0.603              1.952              3.540
 Vibration     2          0.620              1.898              2.621
 Vibration     3          0.646              1.815              1.983
 Vibration     4          0.680              1.709              1.529
 Vibration     5          0.690              1.681              1.437
 Vibration     6          0.732              1.560              1.134
 Vibration     7          0.751              1.510              1.034
 Vibration     8          0.776              1.443              0.917
 Vibration     9          0.819              1.335              0.761
 Vibration    10          0.862              1.235              0.641
 Vibration    11          0.931              1.086              0.495
 Vibration    12          0.975              1.000              0.425

 Optimization completed.
    -- Stationary point found.
 Normal termination of Gaussian 09 at Mon Jan 27 18:29:22 2020.
