 Gaussian 09, Revision D.01,
 Gaussian 09:  ES64L-G09RevD.01 24-Apr-2013

 -----------------------------
 # b3lyp 6-31G(2df,p) opt Freq
 -----------------------------

 -----
 titel
 -----
 Symbolic Z-matrix:
 Charge =  0 Multiplicity = 1

 SCF Done:  E(RB3LYP) =  -423.151918351     A.U. after   14 cycles
 SCF Done:  E(RB3LYP) =  -423.151917112     A.U. after    8 cycles
 SCF Done:  E(RB3LYP) =  -423.151918172     A.U. after    7 cycles
 SCF Done:  E(RB3LYP) =  -423.151918348     A.U. after    7 cycles
 SCF Done:  E(RB3LYP) =  -423.151918418     A.U. after    6 cycles
 Optimization completed.
    -- Stationary point found.
 Normal termination of Gaussian 09 at Mon Jan 27 11:29:37 2020.

 ----------------------------------------------------------------------
 #N Geom=AllCheck Guess=TCheck SCRF=Check GenChk RB3LYP/6-31G(2df,p) Fr
 eq
 ----------------------------------------------------------------------

 Structure from the checkpoint file:  "/scratch/puck/g09_3e2fca93-b18f-4ea0-b59a-000d3b7c4bc9/Gau-39093.chk"
 -----
 titel
 -----
 Charge =  0 Multiplicity = 1

                         Standard orientation:
 ---------------------------------------------------------------------
 Center     Atomic      Atomic             Coordinates (Angstroms)
 Number     Number       Type             X           Y           Z
 ---------------------------------------------------------------------
      1          6           0       -3.646280   -0.595855   -0.256830
      2          6           0       -2.702938    0.096989    0.016735
      3          6           0       -1.540852    0.919399    0.333637
      4          6           0       -0.225360    0.370251   -0.251804
      5          6           0        0.133196   -1.011662    0.311880
      6          8           0        1.403068   -1.432656   -0.165262
      7          6           0        2.398217   -0.500244    0.156076
      8          8           0        2.170445    0.759477   -0.419921
      9          6           0        0.947616    1.317594    0.035105
     10          1           0       -4.487041   -1.199545   -0.493796
     11          1           0       -1.704220    1.938271   -0.041768
     12          1           0       -1.445792    1.010637    1.424638
     13          1           0       -0.327685    0.274615   -1.338337
     14          1           0        0.140902   -0.971049    1.416302
     15          1           0       -0.590978   -1.768733    0.004723
     16          1           0        2.473690   -0.397417    1.256980
     17          1           0        3.337313   -0.874947   -0.255196
     18          1           0        1.005703    1.520047    1.120107
     19          1           0        0.828399    2.274718   -0.480973
 ---------------------------------------------------------------------

 SCF Done:  E(RB3LYP) =  -423.151918418     A.U. after    1 cycles

 The electronic state is 1-A.
 Alpha  occ. eigenvalues --  -19.14740 -19.14584 -10.27301 -10.23659 -10.23194
 Alpha  occ. eigenvalues --  -10.21847 -10.19963 -10.18679 -10.17568  -1.07602
 Alpha  occ. eigenvalues --   -1.00809  -0.83001  -0.76164  -0.70950  -0.68068
 Alpha  occ. eigenvalues --   -0.65260  -0.58135  -0.53221  -0.51688  -0.50136
 Alpha  occ. eigenvalues --   -0.48915  -0.46355  -0.44822  -0.43577  -0.42460
 Alpha  occ. eigenvalues --   -0.40143  -0.39259  -0.35866  -0.33093  -0.32023
 Alpha  occ. eigenvalues --   -0.27500  -0.27000  -0.26580  -0.26072
 Alpha virt. eigenvalues --    0.04786   0.05133   0.09064   0.10042   0.11065
 Alpha virt. eigenvalues --    0.12064   0.12822   0.14501   0.15131   0.15850
 Alpha virt. eigenvalues --    0.16023   0.18343   0.18869   0.19726   0.22561

 Mulliken charges:
               1
     1  C   -0.434310
     2  C    0.297662
     3  C   -0.380881
     4  C   -0.007845
     5  C   -0.088324
     6  O   -0.233249
     7  C    0.014825
     8  O   -0.236421
     9  C   -0.100634
    10  H    0.198200
    11  H    0.134059
    12  H    0.130966
    13  H    0.103017
    14  H    0.084802
    15  H    0.127441
    16  H    0.072261
    17  H    0.119196
    18  H    0.085380
    19  H    0.113854
 Sum of Mulliken charges =   0.00000

 Dipole moment (field-independent basis, Debye):
    X=             -0.8300    Y=              0.8033    Z=              1.1501  Tot=              1.6300
 Quadrupole moment (field-independent basis, Debye-Ang):
   XX=            -53.3781   YY=            -53.3252   ZZ=            -53.5836
   XY=              1.1584   XZ=              3.0469   YZ=              0.3841

  Exact polarizability:  98.656   7.952  71.919   4.153   2.200  59.934
 Approx polarizability: 129.006  18.438 109.617   6.273   6.311  95.151

                      1                      2                      3
                      A                      A                      A
 Frequencies --     67.9906               106.9504               170.1585
 Red. masses --      3.5882                 4.1478                 2.5085
 Frc consts  --      0.0098                 0.0280                 0.0428
 IR Inten    --      0.4521                 0.1937                 0.4316

                      4                      5                      6
                      A                      A                      A
 Frequencies --    259.6598               280.8889               345.9785
 Red. masses --      2.6650                 3.8864                 3.0059
 Frc consts  --      0.1059                 0.1807                 0.2120
 IR Inten    --      1.1095                 2.1959                 3.5430

                      7                      8                      9
                      A                      A                      A
 Frequencies --    379.5444               394.8007               447.9109
 Red. masses --      2.4636                 5.4010                 1.7160
 Frc consts  --      0.2091                 0.4960                 0.2028
 IR Inten    --      7.7481                 0.0622                 5.1207

                     10                     11                     12
                      A                      A                      A
 Frequencies --    473.4766               561.7771               623.2004
 Red. masses --      5.8998                 5.1355                 1.2045
 Frc consts  --      0.7793                 0.9549                 0.2756
 IR Inten    --      6.7262                 1.3126                43.3844

                     13                     14                     15
                      A                      A                      A
 Frequencies --    641.8971               678.4001               845.9990
 Red. masses --      1.2605                 3.7427                 2.0025
 Frc consts  --      0.3060                 1.0149                 0.8444
 IR Inten    --     36.8089                18.8654                 3.4066

                     16                     17                     18
                      A                      A                      A
 Frequencies --    912.7432               925.6819               936.6835
 Red. masses --      1.4594                 2.1439                 4.6316
 Frc consts  --      0.7164                 1.0824                 2.3942
 IR Inten    --      4.0716                10.0882                20.4617

                     19                     20                     21
                      A                      A                      A
 Frequencies --    976.8775               987.6361              1066.4159
 Red. masses --      3.3021                 3.6895                 4.4120
 Frc consts  --      1.8566                 2.1204                 2.9562
 IR Inten    --     39.0162                21.8228                52.4440

                     22                     23                     24
                      A                      A                      A
 Frequencies --   1069.5991              1097.5694              1122.1265
 Red. masses --      4.3268                 2.0661                 2.7729
 Frc consts  --      2.9165                 1.4665                 2.0572
 IR Inten    --     48.2088                19.9019                11.5261

                     25                     26                     27
                      A                      A                      A
 Frequencies --   1179.6257              1199.5393              1234.2970
 Red. masses --      3.0218                 1.8431                 1.4130
 Frc consts  --      2.4775                 1.5626                 1.2684
 IR Inten    --     84.7175               103.3315                11.1887

                     28                     29                     30
                      A                      A                      A
 Frequencies --   1237.9327              1290.7913              1321.3425
 Red. masses --      1.1681                 1.1917                 1.1955
 Frc consts  --      1.0547                 1.1698                 1.2298
 IR Inten    --      8.3008                 6.4820                 2.9140

                     31                     32                     33
                      A                      A                      A
 Frequencies --   1333.4723              1352.3775              1369.3031
 Red. masses --      1.1842                 1.2983                 1.3454
 Frc consts  --      1.2407                 1.3990                 1.4863
 IR Inten    --      1.0434                 4.0579                 0.7618

                     34                     35                     36
                      A                      A                      A
 Frequencies --   1389.0708              1422.7219              1443.6782
 Red. masses --      1.3483                 1.3890                 1.2098
 Frc consts  --      1.5328                 1.6565                 1.4857
 IR Inten    --      2.3539                13.1682                10.7262

                     37                     38                     39
                      A                      A                      A
 Frequencies --   1471.4126              1494.2927              1496.4250
 Red. masses --      1.0887                 1.0997                 1.0828
 Frc consts  --      1.3888                 1.4467                 1.4286
 IR Inten    --      4.2009                 4.2382                 0.6123

                     40                     41                     42
                      A                      A                      A
 Frequencies --   1511.1143              2238.8271              2906.3591
 Red. masses --      1.1115                 5.9254                 1.0704
 Frc consts  --      1.4954                17.4989                 5.3270
 IR Inten    --      5.8452                 2.2704                73.0238

                     43                     44                     45
                      A                      A                      A
 Frequencies --   2942.1228              2951.5009              3010.3438
 Red. masses --      1.0705                 1.0708                 1.0591
 Frc consts  --      5.4595                 5.4962                 5.6548
 IR Inten    --     14.9461                90.9835                18.2696

                     46                     47                     48
                      A                      A                      A
 Frequencies --   3039.3090              3059.6171              3084.5902
 Red. masses --      1.0968                 1.0862                 1.0921
 Frc consts  --      5.9695                 5.9911                 6.1223
 IR Inten    --      6.6531                19.6681                36.9023

                     49                     50                     51
                      A                      A                      A
 Frequencies --   3111.3302              3116.9000              3505.5797
 Red. masses --      1.0909                 1.0935                 1.1624
 Frc consts  --      6.2221                 6.2592                 8.4161
 IR Inten    --     23.3418                31.2224                69.2685

 - Thermochemistry -
 -------------------
 Temperature   298.150 Kelvin.  Pressure   1.00000 Atm.
 Atom     1 has atomic number  6 and mass  12.00000

 Molecular mass:   126.06808 amu.
 Principal axes and moments of inertia in atomic units:
                           1         2         3
     Eigenvalues --   464.389331874.470942218.78248
           X            0.99997   0.00229   0.00774
           Y           -0.00234   0.99998   0.00593
           Z           -0.00773  -0.00595   0.99995
 This molecule is an asymmetric top.
 Rotational symmetry number  1.
 Warning -- assumption of classical behavior for rotation
           may cause significant error
 Rotational temperatures (Kelvin)      0.18651     0.04621     0.03904
 Rotational constants (GHZ):           3.88627     0.96280     0.81339
 Zero-point vibrational energy     419218.4 (Joules/Mol)
                                  100.19560 (Kcal/Mol)
 Warning -- explicit consideration of  11 degrees of freedom as
           vibrations may cause significant error
 Vibrational temperatures:     97.82   153.88   244.82   373.59   404.14
          (Kelvin)            497.79   546.08   568.03   644.44   681.23
                              808.27   896.65   923.55   976.07  1217.20
                             1313.23  1331.85  1347.68  1405.51  1420.99
                             1534.33  1538.91  1579.16  1614.49  1697.22
                             1725.87  1775.88  1781.11  1857.16  1901.11
                             1918.57  1945.77  1970.12  1998.56  2046.98
                             2077.13  2117.03  2149.95  2153.02  2174.15
                             3221.17  4181.60  4233.05  4246.55  4331.21
                             4372.88  4402.10  4438.03  4476.50  4484.52
                             5043.74

 Zero-point correction=                           0.159672 (Hartree/Particle)
 Thermal correction to Energy=                    0.168212
 Thermal correction to Enthalpy=                  0.169156
 Thermal correction to Gibbs Free Energy=         0.126207
 Sum of electronic and zero-point Energies=           -422.992247
 Sum of electronic and thermal Energies=              -422.983707
 Sum of electronic and thermal Enthalpies=            -422.982763
 Sum of electronic and thermal Free Energies=         -423.025711

                     E (Thermal)             CV                S
                      KCal/Mol        Cal/Mol-Kelvin    Cal/Mol-Kelvin
 Total                  105.554             32.374             90.393
 Electronic               0.000              0.000              0.000
 Translational            0.889              2.981             40.409
 Rotational               0.889              2.981             29.048
 Vibrational            103.777             26.412             20.937
 Vibration     1          0.598              1.969              4.211
 Vibration     2          0.606              1.944              3.324
 Vibration     3          0.625              1.879              2.434
 Vibration     4          0.668              1.746              1.664
 Vibration     5          0.681              1.709              1.528
 Vibration     6          0.724              1.583              1.184
 Vibration     7          0.750              1.514              1.041
 Vibration     8          0.762              1.481              0.982
 Vibration     9          0.807              1.366              0.802
 Vibration    10          0.830              1.309              0.728
 Vibration    11          0.917              1.114              0.520

 Optimization completed.
    -- Stationary point found.
 Normal termination of Gaussian 09 at Mon Jan 27 12:06:30 2020.
