 Gaussian 09, Revision D.01,
 Gaussian 09:  ES64L-G09RevD.01 24-Apr-2013

 -----------------------------
 # b3lyp 6-31G(2df,p) opt Freq
 -----------------------------

 -----
 titel
 -----
 Symbolic Z-matrix:
 Charge =  0 Multiplicity = 1

 SCF Done:  E(RB3LYP) =  -423.179969096     A.U. after   13 cycles
 Optimization completed.
    -- Stationary point found.
 Normal termination of Gaussian 09 at Tue Jan 28 00:31:27 2020.

 ----------------------------------------------------------------------
 #N Geom=AllCheck Guess=TCheck SCRF=Check GenChk RB3LYP/6-31G(2df,p) Fr
 eq
 ----------------------------------------------------------------------

 Structure from the checkpoint file:  "/scratch/puck/g09_ae2349ff-54ea-4746-9fe4-0b736380a8a6/Gau-106426.chk"
 -----
 titel
 -----
 Charge =  0 Multiplicity = 1

                         Standard orientation:
 ---------------------------------------------------------------------
 Center     Atomic      Atomic             Coordinates (Angstroms)
 Number     Number       Type             X           Y           Z
 ---------------------------------------------------------------------
      1          8           0       -2.372461   -0.086758   -0.541584
      2          6           0       -1.352316   -0.015796    0.455518
      3          6           0       -0.738461    1.367648    0.445538
      4          6           0        0.486605    1.761887    0.090297
      5          6           0        1.668975    0.944464   -0.363045
      6          6           0        1.506191   -0.565568   -0.285904
      7          6           0        0.935847   -1.104958    1.043637
      8          6           0       -0.383954   -1.174340    0.257166
      9          8           0        0.321675   -1.011358   -1.003001
     10          1           0       -1.904540   -0.039226   -1.385743
     11          1           0       -1.874807   -0.164851    1.410451
     12          1           0       -1.456486    2.140867    0.711360
     13          1           0        0.682030    2.833340    0.108820
     14          1           0        1.907462    1.221302   -1.400685
     15          1           0        2.554373    1.230548    0.224144
     16          1           0        2.402828   -1.065611   -0.667306
     17          1           0        1.326740   -2.088999    1.306078
     18          1           0        0.971787   -0.445934    1.912271
     19          1           0       -0.940424   -2.116529    0.278044
 ---------------------------------------------------------------------

 SCF Done:  E(RB3LYP) =  -423.179969096     A.U. after    1 cycles

 The electronic state is 1-A.
 Alpha  occ. eigenvalues --  -19.13412 -19.12991 -10.23918 -10.23174 -10.23124
 Alpha  occ. eigenvalues --  -10.19266 -10.18966 -10.18861 -10.18101  -1.04380
 Alpha  occ. eigenvalues --   -1.00858  -0.80556  -0.75918  -0.74423  -0.66519
 Alpha  occ. eigenvalues --   -0.64750  -0.54224  -0.53449  -0.51806  -0.48848
 Alpha  occ. eigenvalues --   -0.46610  -0.45165  -0.44685  -0.42883  -0.39594
 Alpha  occ. eigenvalues --   -0.38821  -0.37761  -0.35091  -0.33858  -0.31269
 Alpha  occ. eigenvalues --   -0.30704  -0.28003  -0.24803  -0.24639
 Alpha virt. eigenvalues --    0.01421   0.08044   0.09146   0.11335   0.11893
 Alpha virt. eigenvalues --    0.13138   0.13545   0.15192   0.15763   0.16299
 Alpha virt. eigenvalues --    0.17767   0.19233   0.20155   0.21203   0.21676

 Mulliken charges:
               1
     1  O   -0.437618
     2  C    0.092912
     3  C   -0.092586
     4  C   -0.051180
     5  C   -0.266366
     6  C    0.114859
     7  C   -0.303343
     8  C    0.080892
     9  O   -0.312334
    10  H    0.286534
    11  H    0.087426
    12  H    0.094434
    13  H    0.091123
    14  H    0.120231
    15  H    0.109168
    16  H    0.078287
    17  H    0.111184
    18  H    0.112007
    19  H    0.084369
 Sum of Mulliken charges =   0.00000

 Dipole moment (field-independent basis, Debye):
    X=              2.1707    Y=              0.4525    Z=              1.1357  Tot=              2.4913
 Quadrupole moment (field-independent basis, Debye-Ang):
   XX=            -55.4876   YY=            -51.5999   ZZ=            -52.6499
   XY=              0.1718   XZ=             -0.8893   YZ=             -2.2321

  Exact polarizability:  88.529   3.841  75.945  -5.034  -1.848  62.551
 Approx polarizability: 134.073  10.284 103.706  -8.717  -1.175 100.342

                      1                      2                      3
                      A                      A                      A
 Frequencies --    101.3656               213.8788               277.5423
 Red. masses --      3.8092                 2.9018                 3.0784
 Frc consts  --      0.0231                 0.0782                 0.1397
 IR Inten    --      1.6865                 4.4929                 0.2450

                      4                      5                      6
                      A                      A                      A
 Frequencies --    314.3218               343.7496               388.9833
 Red. masses --      3.9570                 2.2653                 3.2477
 Frc consts  --      0.2303                 0.1577                 0.2895
 IR Inten    --      2.0183                 1.3023                 4.4753

                      7                      8                      9
                      A                      A                      A
 Frequencies --    453.6104               457.2320               508.7054
 Red. masses --      1.2967                 4.2711                 2.4159
 Frc consts  --      0.1572                 0.5261                 0.3684
 IR Inten    --     83.6191                 9.0102                 6.8682

                     10                     11                     12
                      A                      A                      A
 Frequencies --    651.4600               716.2872               771.1799
 Red. masses --      3.1066                 1.9465                 2.4000
 Frc consts  --      0.7768                 0.5884                 0.8409
 IR Inten    --      5.8018                 5.7504                 7.5380

                     13                     14                     15
                      A                      A                      A
 Frequencies --    808.2179               853.6243               882.2824
 Red. masses --      2.6560                 2.7396                 2.6595
 Frc consts  --      1.0222                 1.1762                 1.2198
 IR Inten    --      6.3421                25.5567                14.9469

                     16                     17                     18
                      A                      A                      A
 Frequencies --    889.3444               900.8104               960.2554
 Red. masses --      2.5276                 4.7283                 2.2565
 Frc consts  --      1.1779                 2.2606                 1.2259
 IR Inten    --     19.6503                 9.3198                 3.3282

                     19                     20                     21
                      A                      A                      A
 Frequencies --    977.6106              1007.1184              1021.1762
 Red. masses --      3.1078                 2.0050                 1.4385
 Frc consts  --      1.7500                 1.1982                 0.8838
 IR Inten    --     62.2231                18.9515                13.9720

                     22                     23                     24
                      A                      A                      A
 Frequencies --   1034.5493              1068.6837              1093.1602
 Red. masses --      3.0448                 2.1121                 1.8750
 Frc consts  --      1.9200                 1.4212                 1.3201
 IR Inten    --     50.3000                30.7691                 4.8091

                     25                     26                     27
                      A                      A                      A
 Frequencies --   1122.2284              1148.6125              1210.5306
 Red. masses --      1.9942                 1.3631                 1.0969
 Frc consts  --      1.4797                 1.0595                 0.9470
 IR Inten    --      7.0929                 2.9137                 4.3281

                     28                     29                     30
                      A                      A                      A
 Frequencies --   1235.5244              1244.0175              1260.4089
 Red. masses --      1.1434                 1.2167                 1.5536
 Frc consts  --      1.0284                 1.1094                 1.4541
 IR Inten    --      4.3518                 5.7143                 9.5175

                     31                     32                     33
                      A                      A                      A
 Frequencies --   1276.9193              1335.4481              1343.5947
 Red. masses --      1.3101                 1.4030                 1.6541
 Frc consts  --      1.2586                 1.4742                 1.7594
 IR Inten    --      3.3535                 7.8322                 4.5862

                     34                     35                     36
                      A                      A                      A
 Frequencies --   1369.5635              1375.8737              1402.4834
 Red. masses --      1.8026                 1.5090                 1.4342
 Frc consts  --      1.9921                 1.6830                 1.6621
 IR Inten    --      8.5309                10.9466                 2.9961

                     37                     38                     39
                      A                      A                      A
 Frequencies --   1417.2890              1440.3331              1453.7243
 Red. masses --      1.3017                 1.4087                 1.0944
 Frc consts  --      1.5406                 1.7219                 1.3626
 IR Inten    --     45.9974                17.1155                 5.5632

                     40                     41                     42
                      A                      A                      A
 Frequencies --   1489.3307              1724.4916              2998.4541
 Red. masses --      1.1311                 7.0910                 1.0603
 Frc consts  --      1.4781                12.4245                 5.6166
 IR Inten    --      6.6866                 3.1631                20.5377

                     43                     44                     45
                      A                      A                      A
 Frequencies --   3019.9438              3025.0794              3049.0844
 Red. masses --      1.0832                 1.0991                 1.0862
 Frc consts  --      5.8206                 5.9261                 5.9496
 IR Inten    --     24.2582                19.8663                65.9305

                     46                     47                     48
                      A                      A                      A
 Frequencies --   3062.2440              3083.8612              3126.9067
 Red. masses --      1.0859                 1.0612                 1.0835
 Frc consts  --      5.9994                 5.9463                 6.2420
 IR Inten    --     40.9371                27.7337                10.7077

                     49                     50                     51
                      A                      A                      A
 Frequencies --   3139.5227              3154.7775              3770.7614
 Red. masses --      1.1091                 1.0931                 1.0655
 Frc consts  --      6.4409                 6.4098                 8.9261
 IR Inten    --     19.9087                27.3428                20.7078

 - Thermochemistry -
 -------------------
 Temperature   298.150 Kelvin.  Pressure   1.00000 Atm.
 Atom     1 has atomic number  8 and mass  15.99491

 Molecular mass:   126.06808 amu.
 Principal axes and moments of inertia in atomic units:
                           1         2         3
     Eigenvalues --   723.00789 999.092641333.32701
           X            0.99991   0.01149  -0.00752
           Y           -0.01174   0.99935  -0.03407
           Z            0.00712   0.03416   0.99939
 This molecule is an asymmetric top.
 Rotational symmetry number  1.
 Warning -- assumption of classical behavior for rotation
           may cause significant error
 Rotational temperatures (Kelvin)      0.11980     0.08669     0.06496
 Rotational constants (GHZ):           2.49616     1.80638     1.35356
 Zero-point vibrational energy     424531.7 (Joules/Mol)
                                  101.46551 (Kcal/Mol)
 Warning -- explicit consideration of   9 degrees of freedom as
           vibrations may cause significant error
 Vibrational temperatures:    145.84   307.72   399.32   452.24   494.58
          (Kelvin)            559.66   652.64   657.85   731.91   937.30
                             1030.58  1109.55  1162.84  1228.17  1269.41
                             1279.57  1296.06  1381.59  1406.56  1449.02
                             1469.24  1488.48  1537.60  1572.81  1614.63
                             1652.60  1741.68  1777.64  1789.86  1813.45
                             1837.20  1921.41  1933.13  1970.49  1979.57
                             2017.86  2039.16  2072.32  2091.58  2142.81
                             2481.16  4314.10  4345.02  4352.41  4386.95
                             4405.88  4436.98  4498.92  4517.07  4539.02
                             5425.28

 Zero-point correction=                           0.161696 (Hartree/Particle)
 Thermal correction to Energy=                    0.169133
 Thermal correction to Enthalpy=                  0.170077
 Thermal correction to Gibbs Free Energy=         0.130056
 Sum of electronic and zero-point Energies=           -423.018274
 Sum of electronic and thermal Energies=              -423.010836
 Sum of electronic and thermal Enthalpies=            -423.009892
 Sum of electronic and thermal Free Energies=         -423.049913

                     E (Thermal)             CV                S
                      KCal/Mol        Cal/Mol-Kelvin    Cal/Mol-Kelvin
 Total                  106.132             30.129             84.230
 Electronic               0.000              0.000              0.000
 Translational            0.889              2.981             40.409
 Rotational               0.889              2.981             28.356
 Vibrational            104.355             24.167             15.466
 Vibration     1          0.604              1.948              3.428
 Vibration     2          0.644              1.820              2.010
 Vibration     3          0.679              1.715              1.549
 Vibration     4          0.702              1.646              1.339
 Vibration     5          0.722              1.588              1.195
 Vibration     6          0.757              1.494              1.004
 Vibration     7          0.812              1.353              0.785
 Vibration     8          0.815              1.345              0.774
 Vibration     9          0.864              1.231              0.637

 Normal termination of Gaussian 09 at Tue Jan 28 01:17:57 2020.
