 Gaussian 09, Revision D.01,
 Gaussian 09:  ES64L-G09RevD.01 24-Apr-2013

 -----------------------------
 # b3lyp 6-31G(2df,p) opt Freq
 -----------------------------

 -----
 titel
 -----
 Symbolic Z-matrix:
 Charge =  0 Multiplicity = 1

 SCF Done:  E(RB3LYP) =  -423.122636561     A.U. after   14 cycles
 SCF Done:  E(RB3LYP) =  -423.122636537     A.U. after    7 cycles
 SCF Done:  E(RB3LYP) =  -423.122636544     A.U. after    7 cycles
 SCF Done:  E(RB3LYP) =  -423.122636641     A.U. after    6 cycles
 Optimization completed.
    -- Stationary point found.
 Normal termination of Gaussian 09 at Tue Jan 28 02:05:35 2020.

 ----------------------------------------------------------------------
 #N Geom=AllCheck Guess=TCheck SCRF=Check GenChk RB3LYP/6-31G(2df,p) Fr
 eq
 ----------------------------------------------------------------------

 Structure from the checkpoint file:  "/scratch/puck/g09_89f64b42-36e0-4a7f-8210-f78f31e572b5/Gau-193531.chk"
 -----
 titel
 -----
 Charge =  0 Multiplicity = 1

                         Standard orientation:
 ---------------------------------------------------------------------
 Center     Atomic      Atomic             Coordinates (Angstroms)
 Number     Number       Type             X           Y           Z
 ---------------------------------------------------------------------
      1          8           0       -1.529085    1.891336   -0.338972
      2          6           0       -1.900951    0.543344   -0.369909
      3          6           0       -2.152191   -0.096326    0.967409
      4          6           0       -0.965815   -0.534967    0.149741
      5          8           0       -1.113230   -1.818450   -0.409167
      6          6           0        0.431788   -0.177369    0.609839
      7          6           0        1.472218   -0.287855   -0.527422
      8          6           0        2.817170    0.078401   -0.105288
      9          6           0        3.916698    0.385824    0.270335
     10          1           0       -1.001398    2.079762   -1.122259
     11          1           0       -2.563723    0.253397   -1.185980
     12          1           0       -1.960596    0.516990    1.840979
     13          1           0       -2.979043   -0.791247    1.051435
     14          1           0       -0.770229   -1.799568   -1.309063
     15          1           0        0.429118    0.844221    0.997912
     16          1           0        0.729955   -0.841670    1.427984
     17          1           0        1.481023   -1.316984   -0.908391
     18          1           0        1.167689    0.351782   -1.367960
     19          1           0        4.892217    0.653919    0.592232
 ---------------------------------------------------------------------

 SCF Done:  E(RB3LYP) =  -423.122636641     A.U. after    1 cycles

 The electronic state is 1-A.
 Alpha  occ. eigenvalues --  -19.15132 -19.14791 -10.23964 -10.23680 -10.21357
 Alpha  occ. eigenvalues --  -10.18954 -10.18264 -10.18144 -10.17019  -1.04035
 Alpha  occ. eigenvalues --   -1.02627  -0.84302  -0.80063  -0.72713  -0.66115
 Alpha  occ. eigenvalues --   -0.60250  -0.58153  -0.52839  -0.52419  -0.52122
 Alpha  occ. eigenvalues --   -0.47993  -0.46300  -0.43315  -0.41407  -0.39708
 Alpha  occ. eigenvalues --   -0.38707  -0.37481  -0.36659  -0.32843  -0.31724
 Alpha  occ. eigenvalues --   -0.28196  -0.26429  -0.25825  -0.24301
 Alpha virt. eigenvalues --    0.04103   0.05241   0.06881   0.08266   0.11156
 Alpha virt. eigenvalues --    0.12468   0.12819   0.13197   0.15263   0.16114
 Alpha virt. eigenvalues --    0.16712   0.17658   0.20330   0.21372   0.23622

 Mulliken charges:
               1
     1  O   -0.410938
     2  C    0.031606
     3  C   -0.345079
     4  C    0.354469
     5  O   -0.467036
     6  C   -0.241483
     7  C   -0.378439
     8  C    0.293568
     9  C   -0.428497
    10  H    0.288087
    11  H    0.088346
    12  H    0.126913
    13  H    0.125625
    14  H    0.282273
    15  H    0.125092
    16  H    0.117667
    17  H    0.130270
    18  H    0.112954
    19  H    0.194602
 Sum of Mulliken charges =   0.00000

 Dipole moment (field-independent basis, Debye):
    X=              0.3172    Y=              0.1875    Z=             -1.7923  Tot=              1.8298
 Quadrupole moment (field-independent basis, Debye-Ang):
   XX=            -53.9464   YY=            -57.6679   ZZ=            -48.1727
   XY=              1.7666   XZ=              2.1653   YZ=             -0.0456

  Exact polarizability: 102.027   5.724  65.710   3.133   1.230  65.920
 Approx polarizability: 135.474  10.771  99.936   9.024   3.234 100.953

                      1                      2                      3
                      A                      A                      A
 Frequencies --     55.3178                71.8330               116.8004
 Red. masses --      4.4091                 2.5368                 3.3985
 Frc consts  --      0.0079                 0.0077                 0.0273
 IR Inten    --      0.6730                 0.1038                 0.4910

                      4                      5                      6
                      A                      A                      A
 Frequencies --    191.2059               236.5077               253.5178
 Red. masses --      3.6703                 2.6589                 3.4650
 Frc consts  --      0.0791                 0.0876                 0.1312
 IR Inten    --      0.2608                22.7660                 1.8717

                      7                      8                      9
                      A                      A                      A
 Frequencies --    295.2161               331.4675               350.9395
 Red. masses --      1.2252                 1.3563                 2.5194
 Frc consts  --      0.0629                 0.0878                 0.1828
 IR Inten    --      1.9215               239.4773                20.5804

                     10                     11                     12
                      A                      A                      A
 Frequencies --    385.1197               428.8636               472.3240
 Red. masses --      3.5086                 3.1297                 2.6985
 Frc consts  --      0.3066                 0.3391                 0.3547
 IR Inten    --      2.6259                 6.2490                 5.7458

                     13                     14                     15
                      A                      A                      A
 Frequencies --    499.4407               532.5623               620.9097
 Red. masses --      4.3232                 3.2037                 1.2011
 Frc consts  --      0.6354                 0.5353                 0.2728
 IR Inten    --      6.3680                 6.4699                43.2104

                     16                     17                     18
                      A                      A                      A
 Frequencies --    637.8268               760.3279               776.5959
 Red. masses --      1.2220                 1.6660                 2.3748
 Frc consts  --      0.2929                 0.5674                 0.8439
 IR Inten    --     42.0066                 1.3052                 1.1656

                     19                     20                     21
                      A                      A                      A
 Frequencies --    839.1425               913.8612               923.4336
 Red. masses --      2.0677                 1.9148                 1.7030
 Frc consts  --      0.8578                 0.9422                 0.8556
 IR Inten    --      6.0912                20.0055                 3.7734

                     22                     23                     24
                      A                      A                      A
 Frequencies --    965.1617               975.0139              1029.2303
 Red. masses --      2.4985                 3.4957                 2.8402
 Frc consts  --      1.3713                 1.9580                 1.7726
 IR Inten    --     22.4951                 0.5657                 0.9472

                     25                     26                     27
                      A                      A                      A
 Frequencies --   1047.5776              1058.2722              1111.6947
 Red. masses --      1.4008                 2.1038                 1.6635
 Frc consts  --      0.9058                 1.3882                 1.2113
 IR Inten    --      7.0799                 5.1647                43.9919

                     28                     29                     30
                      A                      A                      A
 Frequencies --   1167.9771              1190.3414              1249.7532
 Red. masses --      1.8320                 1.6106                 1.6157
 Frc consts  --      1.4725                 1.3446                 1.4868
 IR Inten    --     46.4033                17.9709                67.4753

                     31                     32                     33
                      A                      A                      A
 Frequencies --   1272.2827              1279.7552              1309.6845
 Red. masses --      1.3255                 1.3343                 1.8751
 Frc consts  --      1.2642                 1.2875                 1.8950
 IR Inten    --     36.4052                23.3645                 9.5221

                     34                     35                     36
                      A                      A                      A
 Frequencies --   1322.5307              1340.6906              1386.4977
 Red. masses --      1.2287                 1.4012                 1.6474
 Frc consts  --      1.2663                 1.4839                 1.8659
 IR Inten    --     19.0787                11.2080                11.0165

                     37                     38                     39
                      A                      A                      A
 Frequencies --   1419.6665              1472.1533              1482.8019
 Red. masses --      1.3180                 1.0827                 1.5670
 Frc consts  --      1.5651                 1.3825                 2.0299
 IR Inten    --      0.9095                 7.6026                14.8345

                     40                     41                     42
                      A                      A                      A
 Frequencies --   1485.7994              2240.3599              3003.6583
 Red. masses --      1.2273                 5.9318                 1.0619
 Frc consts  --      1.5963                17.5416                 5.6447
 IR Inten    --      1.6540                 4.1925                22.0564

                     43                     44                     45
                      A                      A                      A
 Frequencies --   3042.2260              3054.0902              3096.8813
 Red. masses --      1.0947                 1.0643                 1.0874
 Frc consts  --      5.9696                 5.8490                 6.1446
 IR Inten    --      9.3279                20.7068                32.3925

                     46                     47                     48
                      A                      A                      A
 Frequencies --   3112.4758              3142.6013              3237.6875
 Red. masses --      1.1002                 1.0547                 1.1176
 Frc consts  --      6.2798                 6.1369                 6.9026
 IR Inten    --     11.7694                 4.1276                 2.8278

                     49                     50                     51
                      A                      A                      A
 Frequencies --   3507.5391              3801.3172              3803.9841
 Red. masses --      1.1622                 1.0662                 1.0661
 Frc consts  --      8.4245                 9.0770                 9.0894
 IR Inten    --     70.1146                 8.7713                20.4235

 - Thermochemistry -
 -------------------
 Temperature   298.150 Kelvin.  Pressure   1.00000 Atm.
 Atom     1 has atomic number  8 and mass  15.99491

 Molecular mass:   126.06808 amu.
 Principal axes and moments of inertia in atomic units:
                           1         2         3
     Eigenvalues --   622.396242021.042992346.76847
           X            0.99999   0.00355  -0.00027
           Y           -0.00355   0.99997   0.00635
           Z            0.00029  -0.00635   0.99998
 This molecule is an asymmetric top.
 Rotational symmetry number  1.
 Warning -- assumption of classical behavior for rotation
           may cause significant error
 Rotational temperatures (Kelvin)      0.13916     0.04286     0.03691
 Rotational constants (GHZ):           2.89967     0.89298     0.76903
 Zero-point vibrational energy     408542.2 (Joules/Mol)
                                   97.64392 (Kcal/Mol)
 Warning -- explicit consideration of  14 degrees of freedom as
           vibrations may cause significant error
 Vibrational temperatures:     79.59   103.35   168.05   275.10   340.28
          (Kelvin)            364.76   424.75   476.91   504.92   554.10
                              617.04   679.57   718.58   766.24   893.35
                              917.69  1093.94  1117.35  1207.34  1314.84
                             1328.61  1388.65  1402.83  1480.83  1507.23
                             1522.62  1599.48  1680.46  1712.63  1798.11
                             1830.53  1841.28  1884.34  1902.82  1928.95
                             1994.86  2042.58  2118.10  2133.42  2137.73
                             3223.37  4321.59  4377.08  4394.15  4455.72
                             4478.15  4521.50  4658.30  5046.56  5469.24
                             5473.08

 Zero-point correction=                           0.155605 (Hartree/Particle)
 Thermal correction to Energy=                    0.165732
 Thermal correction to Enthalpy=                  0.166676
 Thermal correction to Gibbs Free Energy=         0.120227
 Sum of electronic and zero-point Energies=           -422.967031
 Sum of electronic and thermal Energies=              -422.956904
 Sum of electronic and thermal Enthalpies=            -422.955960
 Sum of electronic and thermal Free Energies=         -423.002410

                     E (Thermal)             CV                S
                      KCal/Mol        Cal/Mol-Kelvin    Cal/Mol-Kelvin
 Total                  103.999             37.524             97.762
 Electronic               0.000              0.000              0.000
 Translational            0.889              2.981             40.409
 Rotational               0.889              2.981             29.469
 Vibrational            102.221             31.562             27.884
 Vibration     1          0.596              1.975              4.618
 Vibration     2          0.598              1.967              4.102
 Vibration     3          0.608              1.935              3.153
 Vibration     4          0.634              1.852              2.216
 Vibration     5          0.655              1.785              1.829
 Vibration     6          0.665              1.757              1.706
 Vibration     7          0.689              1.683              1.444
 Vibration     8          0.714              1.613              1.253
 Vibration     9          0.728              1.573              1.162
 Vibration    10          0.754              1.502              1.019
 Vibration    11          0.790              1.407              0.862
 Vibration    12          0.829              1.311              0.731
 Vibration    13          0.855              1.251              0.660
 Vibration    14          0.888              1.178              0.582

 Optimization completed.
    -- Stationary point found.
 Normal termination of Gaussian 09 at Tue Jan 28 02:45:23 2020.
