 Gaussian 09, Revision D.01,
 Gaussian 09:  ES64L-G09RevD.01 24-Apr-2013

 -----------------------------
 # b3lyp 6-31G(2df,p) opt Freq
 -----------------------------

 -----
 titel
 -----
 Symbolic Z-matrix:
 Charge =  0 Multiplicity = 1

 SCF Done:  E(RB3LYP) =  -423.163544031     A.U. after   14 cycles
 Optimization completed.
    -- Stationary point found.
 Normal termination of Gaussian 09 at Tue Jan 28 03:53:40 2020.

 ----------------------------------------------------------------------
 #N Geom=AllCheck Guess=TCheck SCRF=Check GenChk RB3LYP/6-31G(2df,p) Fr
 eq
 ----------------------------------------------------------------------

 Structure from the checkpoint file:  "/scratch/puck/g09_d1710450-9a90-4c65-ab97-11885edd7ce8/Gau-90666.chk"
 -----
 titel
 -----
 Charge =  0 Multiplicity = 1

                         Standard orientation:
 ---------------------------------------------------------------------
 Center     Atomic      Atomic             Coordinates (Angstroms)
 Number     Number       Type             X           Y           Z
 ---------------------------------------------------------------------
      1          6           0        0.862045    2.027407   -0.809127
      2          6           0        0.280820    1.144311    0.281983
      3          6           0        1.254662    0.382076    1.237181
      4          6           0        0.540267   -0.956812    0.917571
      5          6           0        1.100445   -1.705513   -0.300404
      6          8           0        0.339536   -0.885765   -1.222157
      7          6           0       -0.344500   -0.210287   -0.148014
      8          6           0       -1.836251   -0.339944   -0.235990
      9          8           0       -2.606214    0.317580    0.420185
     10          1           0        0.072589    2.456961   -1.434835
     11          1           0        1.431280    2.854983   -0.372888
     12          1           0        1.528991    1.452826   -1.458279
     13          1           0       -0.475803    1.681625    0.861637
     14          1           0        2.304844    0.399740    0.930017
     15          1           0        1.196301    0.692277    2.282139
     16          1           0        0.129829   -1.537038    1.742121
     17          1           0        2.181204   -1.626576   -0.468801
     18          1           0        0.800265   -2.758477   -0.371839
     19          1           0       -2.180996   -1.118269   -0.952688
 ---------------------------------------------------------------------

 SCF Done:  E(RB3LYP) =  -423.163544031     A.U. after    1 cycles

 The electronic state is 1-A.
 Alpha  occ. eigenvalues --  -19.14769 -19.14407 -10.26991 -10.24381 -10.24248
 Alpha  occ. eigenvalues --  -10.20878 -10.19478 -10.19222 -10.17573  -1.05816
 Alpha  occ. eigenvalues --   -1.04515  -0.83907  -0.74902  -0.71385  -0.67082
 Alpha  occ. eigenvalues --   -0.60540  -0.60284  -0.52449  -0.50607  -0.48143
 Alpha  occ. eigenvalues --   -0.47789  -0.44691  -0.43809  -0.42386  -0.40961
 Alpha  occ. eigenvalues --   -0.39562  -0.38945  -0.35913  -0.34389  -0.33052
 Alpha  occ. eigenvalues --   -0.31374  -0.29708  -0.26941  -0.24375
 Alpha virt. eigenvalues --   -0.03861   0.07230   0.09455   0.09801   0.11485
 Alpha virt. eigenvalues --    0.12081   0.13022   0.15073   0.15699   0.16655
 Alpha virt. eigenvalues --    0.17264   0.18051   0.19974   0.21026   0.21385

 Mulliken charges:
               1
     1  C   -0.410121
     2  C   -0.017615
     3  C   -0.257120
     4  C   -0.128062
     5  C   -0.087948
     6  O   -0.334560
     7  C    0.332083
     8  C    0.087613
     9  O   -0.259815
    10  H    0.122467
    11  H    0.115472
    12  H    0.127669
    13  H    0.100719
    14  H    0.102204
    15  H    0.110971
    16  H    0.092841
    17  H    0.106891
    18  H    0.107988
    19  H    0.088324
 Sum of Mulliken charges =   0.00000

 Dipole moment (field-independent basis, Debye):
    X=              2.2687    Y=             -1.0145    Z=              0.7566  Tot=              2.5978
 Quadrupole moment (field-independent basis, Debye-Ang):
   XX=            -58.4742   YY=            -50.1481   ZZ=            -54.8084
   XY=              1.4640   XZ=              3.1083   YZ=             -1.4578

  Exact polarizability:  81.446  -1.536  79.006   1.409   2.751  67.014
 Approx polarizability: 118.335  -8.222 109.276  -1.622   7.094 103.349

                      1                      2                      3
                      A                      A                      A
 Frequencies --     79.9209                96.2607               176.2789
 Red. masses --      3.1675                 2.9653                 3.0655
 Frc consts  --      0.0119                 0.0162                 0.0561
 IR Inten    --      3.0198                 4.2517                 3.7074

                      4                      5                      6
                      A                      A                      A
 Frequencies --    206.6568               215.4638               249.7365
 Red. masses --      2.2390                 1.2373                 3.2737
 Frc consts  --      0.0563                 0.0338                 0.1203
 IR Inten    --      1.4005                 0.0535                10.0819

                      7                      8                      9
                      A                      A                      A
 Frequencies --    362.9054               376.2864               462.5689
 Red. masses --      2.4852                 2.2063                 3.6867
 Frc consts  --      0.1928                 0.1841                 0.4648
 IR Inten    --      5.0695                 0.4065                 0.3043

                     10                     11                     12
                      A                      A                      A
 Frequencies --    549.1311               618.3177               695.5620
 Red. masses --      4.4980                 3.6939                 3.5531
 Frc consts  --      0.7991                 0.8321                 1.0128
 IR Inten    --      3.1195                 3.6797                19.0445

                     13                     14                     15
                      A                      A                      A
 Frequencies --    787.5300               831.2387               848.0754
 Red. masses --      2.2391                 2.2713                 2.4589
 Frc consts  --      0.8182                 0.9246                 1.0420
 IR Inten    --      1.1949                 5.5984                 3.7740

                     16                     17                     18
                      A                      A                      A
 Frequencies --    891.9299               911.7244               964.8699
 Red. masses --      2.2176                 1.9303                 1.4386
 Frc consts  --      1.0394                 0.9454                 0.7891
 IR Inten    --      2.4137                 7.3914                10.1057

                     19                     20                     21
                      A                      A                      A
 Frequencies --    997.6103              1011.6738              1035.2253
 Red. masses --      1.7423                 3.8584                 2.0333
 Frc consts  --      1.0216                 2.3267                 1.2839
 IR Inten    --     37.3508                47.5910                 3.4728

                     22                     23                     24
                      A                      A                      A
 Frequencies --   1087.2345              1118.3754              1125.1781
 Red. masses --      2.6449                 2.0894                 1.6336
 Frc consts  --      1.8421                 1.5397                 1.2186
 IR Inten    --      5.8100                13.2066                 0.6594

                     25                     26                     27
                      A                      A                      A
 Frequencies --   1140.7678              1154.9763              1166.1089
 Red. masses --      2.2863                 2.2434                 1.7014
 Frc consts  --      1.7530                 1.7632                 1.3632
 IR Inten    --     19.6410                 3.0510                20.6552

                     28                     29                     30
                      A                      A                      A
 Frequencies --   1195.5690              1215.9169              1263.5032
 Red. masses --      1.6280                 1.7347                 1.5049
 Frc consts  --      1.3711                 1.5110                 1.4155
 IR Inten    --     11.0629                 4.8450                 0.7793

                     31                     32                     33
                      A                      A                      A
 Frequencies --   1293.0884              1314.9989              1347.8885
 Red. masses --      1.5107                 1.6785                 1.3824
 Frc consts  --      1.4883                 1.7101                 1.4798
 IR Inten    --      1.9661                 0.7037                 1.6701

                     34                     35                     36
                      A                      A                      A
 Frequencies --   1363.6036              1395.7693              1409.3398
 Red. masses --      1.5571                 1.2604                 1.2833
 Frc consts  --      1.7058                 1.4467                 1.5018
 IR Inten    --      2.6218                 9.0130                 3.9291

                     37                     38                     39
                      A                      A                      A
 Frequencies --   1483.2580              1489.6161              1501.3074
 Red. masses --      1.0985                 1.0431                 1.0510
 Frc consts  --      1.4239                 1.3637                 1.3957
 IR Inten    --      1.2588                 4.2175                 3.7409

                     40                     41                     42
                      A                      A                      A
 Frequencies --   1523.8887              1813.1534              2890.7573
 Red. masses --      1.1006                10.8090                 1.0841
 Frc consts  --      1.5059                20.9366                 5.3375
 IR Inten    --      0.6788               138.0388               105.7721

                     43                     44                     45
                      A                      A                      A
 Frequencies --   3013.7669              3034.6591              3055.4044
 Red. masses --      1.0557                 1.0355                 1.0645
 Frc consts  --      5.6493                 5.6184                 5.8550
 IR Inten    --     77.7279                22.7723                17.7694

                     46                     47                     48
                      A                      A                      A
 Frequencies --   3061.2852              3068.4407              3099.4459
 Red. masses --      1.1070                 1.0849                 1.1013
 Frc consts  --      6.1123                 6.0183                 6.2331
 IR Inten    --     46.7618                 1.8920                21.5715

                     49                     50                     51
                      A                      A                      A
 Frequencies --   3112.1125              3116.6405              3130.1238
 Red. masses --      1.1031                 1.1001                 1.0920
 Frc consts  --      6.2950                 6.2961                 6.3037
 IR Inten    --      2.1996                28.5808                31.7659

 - Thermochemistry -
 -------------------
 Temperature   298.150 Kelvin.  Pressure   1.00000 Atm.
 Atom     1 has atomic number  6 and mass  12.00000

 Molecular mass:   126.06808 amu.
 Principal axes and moments of inertia in atomic units:
                           1         2         3
     Eigenvalues --   870.773771079.261091368.61606
           X            0.99735   0.07061   0.01756
           Y           -0.06993   0.99686  -0.03711
           Z           -0.02012   0.03579   0.99916
 This molecule is an asymmetric top.
 Rotational symmetry number  1.
 Warning -- assumption of classical behavior for rotation
           may cause significant error
 Rotational temperatures (Kelvin)      0.09947     0.08025     0.06329
 Rotational constants (GHZ):           2.07257     1.67220     1.31866
 Zero-point vibrational energy     414835.9 (Joules/Mol)
                                   99.14816 (Kcal/Mol)
 Warning -- explicit consideration of  11 degrees of freedom as
           vibrations may cause significant error
 Vibrational temperatures:    114.99   138.50   253.63   297.33   310.00
          (Kelvin)            359.31   522.14   541.39   665.53   790.08
                              889.62  1000.76  1133.08  1195.97  1220.19
                             1283.29  1311.77  1388.23  1435.34  1455.57
                             1489.46  1564.29  1609.09  1618.88  1641.31
                             1661.75  1677.77  1720.16  1749.43  1817.90
                             1860.46  1891.99  1939.31  1961.92  2008.20
                             2027.72  2134.07  2143.22  2160.04  2192.53
                             2608.72  4159.15  4336.13  4366.19  4396.04
                             4404.50  4414.80  4459.41  4477.63  4484.14
                             4503.54

 Zero-point correction=                           0.158003 (Hartree/Particle)
 Thermal correction to Energy=                    0.166638
 Thermal correction to Enthalpy=                  0.167582
 Thermal correction to Gibbs Free Energy=         0.124492
 Sum of electronic and zero-point Energies=           -423.005541
 Sum of electronic and thermal Energies=              -422.996906
 Sum of electronic and thermal Enthalpies=            -422.995962
 Sum of electronic and thermal Free Energies=         -423.039052

                     E (Thermal)             CV                S
                      KCal/Mol        Cal/Mol-Kelvin    Cal/Mol-Kelvin
 Total                  104.567             32.048             90.691
 Electronic               0.000              0.000              0.000
 Translational            0.889              2.981             40.409
 Rotational               0.889              2.981             28.644
 Vibrational            102.789             26.086             21.638
 Vibration     1          0.600              1.963              3.893
 Vibration     2          0.603              1.952              3.529
 Vibration     3          0.628              1.872              2.367
 Vibration     4          0.641              1.830              2.073
 Vibration     5          0.645              1.817              1.997
 Vibration     6          0.663              1.763              1.732
 Vibration     7          0.737              1.549              1.110
 Vibration     8          0.747              1.521              1.054
 Vibration     9          0.820              1.333              0.759
 Vibration    10          0.904              1.142              0.546
 Vibration    11          0.978              0.993              0.419

 Normal termination of Gaussian 09 at Tue Jan 28 04:36:08 2020.
