 Gaussian 09, Revision D.01,
 Gaussian 09:  ES64L-G09RevD.01 24-Apr-2013

 -----------------------------
 # b3lyp 6-31G(2df,p) opt Freq
 -----------------------------

 -----
 titel
 -----
 Symbolic Z-matrix:
 Charge =  0 Multiplicity = 1

 SCF Done:  E(RB3LYP) =  -423.209388746     A.U. after   14 cycles
 Optimization completed.
    -- Stationary point found.
 Normal termination of Gaussian 09 at Mon Jan 27 18:45:05 2020.

 ----------------------------------------------------------------------
 #N Geom=AllCheck Guess=TCheck SCRF=Check GenChk RB3LYP/6-31G(2df,p) Fr
 eq
 ----------------------------------------------------------------------

 Structure from the checkpoint file:  "/scratch/puck/g09_0ad49190-1f04-465e-875a-167a4a634244/Gau-90617.chk"
 -----
 titel
 -----
 Charge =  0 Multiplicity = 1

                         Standard orientation:
 ---------------------------------------------------------------------
 Center     Atomic      Atomic             Coordinates (Angstroms)
 Number     Number       Type             X           Y           Z
 ---------------------------------------------------------------------
      1          6           0       -2.013200   -1.239951    0.514808
      2          6           0       -0.824247   -0.447692    0.008541
      3          6           0        0.450609   -1.250252   -0.237851
      4          6           0        1.604869   -0.270019   -0.003503
      5          8           0        2.718740   -0.367313   -0.444057
      6          6           0        1.100967    0.855932    0.914376
      7          6           0       -0.420810    0.867566    0.766845
      8          6           0       -0.961393    1.578155   -0.487481
      9          8           0       -1.168396    0.328083   -1.175906
     10          1           0       -1.773001   -1.748409    1.454811
     11          1           0       -2.871201   -0.582808    0.685004
     12          1           0       -2.307218   -1.997697   -0.218857
     13          1           0        0.553629   -2.071991    0.483635
     14          1           0        0.490144   -1.677407   -1.242118
     15          1           0        1.399396    0.597339    1.938763
     16          1           0        1.590740    1.801597    0.668028
     17          1           0       -0.951545    1.078441    1.695775
     18          1           0       -1.901606    2.125324   -0.342462
     19          1           0       -0.252863    2.227020   -1.017291
 ---------------------------------------------------------------------

 SCF Done:  E(RB3LYP) =  -423.209388746     A.U. after    1 cycles

 The electronic state is 1-A.
 Alpha  occ. eigenvalues --  -19.13505 -19.13171 -10.27096 -10.24753 -10.23447
 Alpha  occ. eigenvalues --  -10.20146 -10.19646 -10.18980 -10.18468  -1.04575
 Alpha  occ. eigenvalues --   -1.03947  -0.82574  -0.76713  -0.72503  -0.68132
 Alpha  occ. eigenvalues --   -0.63607  -0.54585  -0.53331  -0.49953  -0.48718
 Alpha  occ. eigenvalues --   -0.46485  -0.44186  -0.42743  -0.42369  -0.41565
 Alpha  occ. eigenvalues --   -0.40466  -0.39540  -0.37157  -0.36864  -0.34855
 Alpha  occ. eigenvalues --   -0.31344  -0.30093  -0.25897  -0.23933
 Alpha virt. eigenvalues --   -0.01861   0.07894   0.08271   0.10830   0.11775
 Alpha virt. eigenvalues --    0.12190   0.12777   0.14837   0.15485   0.16787
 Alpha virt. eigenvalues --    0.17536   0.18283   0.19084   0.20353   0.22769

 Mulliken charges:
               1
     1  C   -0.456143
     2  C    0.426141
     3  C   -0.362704
     4  C    0.388341
     5  O   -0.300400
     6  C   -0.341308
     7  C   -0.121756
     8  C   -0.085584
     9  O   -0.324823
    10  H    0.114588
    11  H    0.121468
    12  H    0.130685
    13  H    0.122389
    14  H    0.140977
    15  H    0.130082
    16  H    0.131491
    17  H    0.079224
    18  H    0.101529
    19  H    0.105802
 Sum of Mulliken charges =   0.00000

 Dipole moment (field-independent basis, Debye):
    X=             -2.0871    Y=              0.3934    Z=              2.5456  Tot=              3.3153
 Quadrupole moment (field-independent basis, Debye-Ang):
   XX=            -62.6947   YY=            -48.8895   ZZ=            -54.0104
   XY=              1.2131   XZ=              0.5963   YZ=             -0.2114

  Exact polarizability:  81.627   0.756  77.181  -2.287   0.677  64.595
 Approx polarizability: 114.297  -0.487 108.296  -5.228   1.340 102.007

                      1                      2                      3
                      A                      A                      A
 Frequencies --     70.7258                88.7945               226.3196
 Red. masses --      4.7845                 2.4965                 1.0881
 Frc consts  --      0.0141                 0.0116                 0.0328
 IR Inten    --      3.9125                 1.5308                 0.4064

                      4                      5                      6
                      A                      A                      A
 Frequencies --    252.2512               322.0202               350.8223
 Red. masses --      2.2991                 2.6811                 2.4519
 Frc consts  --      0.0862                 0.1638                 0.1778
 IR Inten    --      0.7107                 1.5475                 1.6531

                      7                      8                      9
                      A                      A                      A
 Frequencies --    386.4689               441.2390               477.0501
 Red. masses --      2.0296                 2.5869                 4.1294
 Frc consts  --      0.1786                 0.2967                 0.5537
 IR Inten    --      2.6226                 3.9337                 7.3111

                     10                     11                     12
                      A                      A                      A
 Frequencies --    574.9924               607.3819               679.0938
 Red. masses --      4.2415                 4.0722                 3.0310
 Frc consts  --      0.8262                 0.8851                 0.8236
 IR Inten    --      4.2296                 0.4513                 1.9359

                     13                     14                     15
                      A                      A                      A
 Frequencies --    765.0399               796.6347               844.6718
 Red. masses --      2.2026                 3.3230                 2.0300
 Frc consts  --      0.7596                 1.2425                 0.8533
 IR Inten    --      6.8188                 6.3413                 0.1033

                     16                     17                     18
                      A                      A                      A
 Frequencies --    878.2109               889.1621               929.6377
 Red. masses --      2.7891                 2.7484                 1.6731
 Frc consts  --      1.2674                 1.2802                 0.8519
 IR Inten    --     10.6697                 9.6026                 6.0210

                     19                     20                     21
                      A                      A                      A
 Frequencies --    957.7483              1014.4499              1027.6301
 Red. masses --      1.6164                 2.1049                 2.7738
 Frc consts  --      0.8736                 1.2763                 1.7259
 IR Inten    --      4.3998                18.4196                58.0661

                     22                     23                     24
                      A                      A                      A
 Frequencies --   1078.3814              1098.1022              1115.9711
 Red. masses --      1.6129                 2.5369                 2.3682
 Frc consts  --      1.1051                 1.8023                 1.7377
 IR Inten    --     13.7317                26.4069                 3.7044

                     25                     26                     27
                      A                      A                      A
 Frequencies --   1166.1622              1167.8920              1171.9887
 Red. masses --      1.1995                 1.7963                 1.8888
 Frc consts  --      0.9611                 1.4435                 1.5285
 IR Inten    --      1.4936                14.2856                22.5338

                     28                     29                     30
                      A                      A                      A
 Frequencies --   1218.2893              1232.2417              1246.0926
 Red. masses --      1.9258                 1.5170                 2.1426
 Frc consts  --      1.6840                 1.3571                 1.9602
 IR Inten    --     28.3241                 3.6460                21.3815

                     31                     32                     33
                      A                      A                      A
 Frequencies --   1285.4457              1313.9468              1343.7208
 Red. masses --      1.8712                 1.9227                 1.4627
 Frc consts  --      1.8217                 1.9558                 1.5560
 IR Inten    --      4.0332                22.3103                 2.7037

                     34                     35                     36
                      A                      A                      A
 Frequencies --   1363.8587              1407.6362              1430.6537
 Red. masses --      1.6597                 1.3084                 1.1033
 Frc consts  --      1.8189                 1.5275                 1.3305
 IR Inten    --      3.0701                 8.4707                 9.6270

                     37                     38                     39
                      A                      A                      A
 Frequencies --   1448.4747              1481.9472              1491.3065
 Red. masses --      1.0890                 1.0548                 1.0511
 Frc consts  --      1.3462                 1.3649                 1.3773
 IR Inten    --      6.9224                 1.6656                 3.1341

                     40                     41                     42
                      A                      A                      A
 Frequencies --   1528.7571              1852.4284              3009.5892
 Red. masses --      1.0982                12.5772                 1.0557
 Frc consts  --      1.5122                25.4283                 5.6338
 IR Inten    --      0.3040               224.8709                76.6242

                     43                     44                     45
                      A                      A                      A
 Frequencies --   3028.7969              3032.7922              3035.2713
 Red. masses --      1.0569                 1.0530                 1.0590
 Frc consts  --      5.7124                 5.7062                 5.7483
 IR Inten    --      3.0322                15.8468                12.4142

                     46                     47                     48
                      A                      A                      A
 Frequencies --   3051.4521              3100.1225              3102.9874
 Red. masses --      1.1102                 1.0914                 1.0980
 Frc consts  --      6.0907                 6.1803                 6.2292
 IR Inten    --     33.0739                10.0502                12.5292

                     49                     50                     51
                      A                      A                      A
 Frequencies --   3104.2289              3110.6186              3118.4446
 Red. masses --      1.0954                 1.1017                 1.0946
 Frc consts  --      6.2191                 6.2807                 6.2716
 IR Inten    --     28.3785                24.5341                 3.5412

 - Thermochemistry -
 -------------------
 Temperature   298.150 Kelvin.  Pressure   1.00000 Atm.
 Atom     1 has atomic number  6 and mass  12.00000

 Molecular mass:   126.06808 amu.
 Principal axes and moments of inertia in atomic units:
                           1         2         3
     Eigenvalues --   651.827961235.857691447.21375
           X            0.99942   0.03327  -0.00682
           Y           -0.03331   0.99943  -0.00457
           Z            0.00666   0.00480   0.99997
 This molecule is an asymmetric top.
 Rotational symmetry number  1.
 Warning -- assumption of classical behavior for rotation
           may cause significant error
 Rotational temperatures (Kelvin)      0.13288     0.07008     0.05985
 Rotational constants (GHZ):           2.76874     1.46031     1.24705
 Zero-point vibrational energy     417005.9 (Joules/Mol)
                                   99.66681 (Kcal/Mol)
 Warning -- explicit consideration of  11 degrees of freedom as
           vibrations may cause significant error
 Vibrational temperatures:    101.76   127.76   325.62   362.93   463.31
          (Kelvin)            504.75   556.04   634.84   686.37   827.28
                              873.89   977.06  1100.72  1146.18  1215.29
                             1263.55  1279.30  1337.54  1377.98  1459.57
                             1478.53  1551.55  1579.92  1605.63  1677.85
                             1680.33  1686.23  1752.84  1772.92  1792.85
                             1849.47  1890.47  1933.31  1962.29  2025.27
                             2058.39  2084.03  2132.19  2145.65  2199.54
                             2665.23  4330.12  4357.76  4363.51  4367.07
                             4390.35  4460.38  4464.50  4466.29  4475.48
                             4486.74

 Zero-point correction=                           0.158829 (Hartree/Particle)
 Thermal correction to Energy=                    0.167018
 Thermal correction to Enthalpy=                  0.167962
 Thermal correction to Gibbs Free Energy=         0.125852
 Sum of electronic and zero-point Energies=           -423.050560
 Sum of electronic and thermal Energies=              -423.042371
 Sum of electronic and thermal Enthalpies=            -423.041427
 Sum of electronic and thermal Free Energies=         -423.083537

                     E (Thermal)             CV                S
                      KCal/Mol        Cal/Mol-Kelvin    Cal/Mol-Kelvin
 Total                  104.805             31.551             88.627
 Electronic               0.000              0.000              0.000
 Translational            0.889              2.981             40.409
 Rotational               0.889              2.981             28.546
 Vibrational            103.028             25.589             19.673
 Vibration     1          0.598              1.968              4.133
 Vibration     2          0.602              1.957              3.686
 Vibration     3          0.650              1.801              1.908
 Vibration     4          0.664              1.759              1.715
 Vibration     5          0.707              1.631              1.300
 Vibration     6          0.728              1.574              1.162
 Vibration     7          0.755              1.499              1.014
 Vibration     8          0.801              1.380              0.823
 Vibration     9          0.834              1.301              0.718
 Vibration    10          0.931              1.085              0.495
 Vibration    11          0.966              1.016              0.437

 Optimization completed.
    -- Stationary point found.
 Normal termination of Gaussian 09 at Mon Jan 27 19:28:20 2020.
