 Gaussian 09, Revision D.01,
 Gaussian 09:  ES64L-G09RevD.01 24-Apr-2013

 -----------------------------
 # b3lyp 6-31G(2df,p) opt Freq
 -----------------------------

 -----
 titel
 -----
 Symbolic Z-matrix:
 Charge =  0 Multiplicity = 1

 SCF Done:  E(RB3LYP) =  -423.161014401     A.U. after   14 cycles
 Optimization completed.
    -- Stationary point found.
 Normal termination of Gaussian 09 at Mon Jan 27 17:28:21 2020.

 ----------------------------------------------------------------------
 #N Geom=AllCheck Guess=TCheck SCRF=Check GenChk RB3LYP/6-31G(2df,p) Fr
 eq
 ----------------------------------------------------------------------

 Structure from the checkpoint file:  "/scratch/puck/g09_7737db9f-6082-4e17-81e9-263295921c73/Gau-1812.chk"
 -----
 titel
 -----
 Charge =  0 Multiplicity = 1

                         Standard orientation:
 ---------------------------------------------------------------------
 Center     Atomic      Atomic             Coordinates (Angstroms)
 Number     Number       Type             X           Y           Z
 ---------------------------------------------------------------------
      1          6           0       -3.249892   -0.144842   -0.259193
      2          6           0       -1.785423    0.012916   -0.014370
      3          6           0       -0.964993    1.310721    0.096458
      4          6           0        0.291733    0.514060   -0.416046
      5          6           0        1.513062    0.457442    0.508315
      6          6           0        2.599986   -0.439611   -0.034870
      7          8           0        3.735538   -0.099359   -0.249015
      8          6           0       -0.606174   -0.738466   -0.481910
      9          8           0       -1.130916   -0.945357    0.836950
     10          1           0       -3.826879    0.199568    0.606527
     11          1           0       -3.564077    0.443501   -1.127259
     12          1           0       -3.496720   -1.194801   -0.436869
     13          1           0       -1.278833    2.089164   -0.602976
     14          1           0       -0.898892    1.728958    1.104244
     15          1           0        0.577352    0.848497   -1.418098
     16          1           0        1.932816    1.454141    0.672524
     17          1           0        1.182623    0.050860    1.473578
     18          1           0        2.272542   -1.486066   -0.241706
     19          1           0       -0.526705   -1.609410   -1.123745
 ---------------------------------------------------------------------

 SCF Done:  E(RB3LYP) =  -423.161014401     A.U. after    1 cycles

 The electronic state is 1-A.
 Alpha  occ. eigenvalues --  -19.15511 -19.13656 -10.26874 -10.24897 -10.24062
 Alpha  occ. eigenvalues --  -10.21033 -10.19644 -10.19355 -10.19189  -1.08180
 Alpha  occ. eigenvalues --   -1.04300  -0.82452  -0.76493  -0.73100  -0.66018
 Alpha  occ. eigenvalues --   -0.60772  -0.56932  -0.55040  -0.51576  -0.47631
 Alpha  occ. eigenvalues --   -0.46629  -0.44848  -0.43406  -0.42925  -0.41459
 Alpha  occ. eigenvalues --   -0.40035  -0.38943  -0.36827  -0.35630  -0.34398
 Alpha  occ. eigenvalues --   -0.32998  -0.29906  -0.25840  -0.24609
 Alpha virt. eigenvalues --   -0.02003   0.07760   0.09165   0.11010   0.11527
 Alpha virt. eigenvalues --    0.11952   0.13639   0.14138   0.14634   0.14768
 Alpha virt. eigenvalues --    0.16168   0.17496   0.18027   0.18815   0.20735

 Mulliken charges:
               1
     1  C   -0.500148
     2  C    0.425738
     3  C   -0.321995
     4  C   -0.022274
     5  C   -0.290333
     6  C    0.156309
     7  O   -0.240402
     8  C   -0.057442
     9  O   -0.284843
    10  H    0.133959
    11  H    0.126417
    12  H    0.136579
    13  H    0.109661
    14  H    0.109853
    15  H    0.089537
    16  H    0.118498
    17  H    0.135208
    18  H    0.073312
    19  H    0.102365
 Sum of Mulliken charges =   0.00000

 Dipole moment (field-independent basis, Debye):
    X=             -3.2550    Y=              0.6860    Z=             -1.0094  Tot=              3.4763
 Quadrupole moment (field-independent basis, Debye-Ang):
   XX=            -64.7904   YY=            -52.0803   ZZ=            -52.8365
   XY=             -2.0243   XZ=              3.4306   YZ=              1.8679

  Exact polarizability:  98.439  -0.568  71.707  -2.185   2.614  60.809
 Approx polarizability: 127.130  -0.005 108.585  -7.230  -0.114  98.892

                      1                      2                      3
                      A                      A                      A
 Frequencies --     54.2437                65.8252               125.3689
 Red. masses --      4.5982                 4.2470                 3.1541
 Frc consts  --      0.0080                 0.0108                 0.0292
 IR Inten    --      6.1893                 2.5381                 2.0580

                      4                      5                      6
                      A                      A                      A
 Frequencies --    181.2759               199.4943               276.3972
 Red. masses --      2.2530                 1.0939                 2.9130
 Frc consts  --      0.0436                 0.0257                 0.1311
 IR Inten    --      1.4198                 0.2388                 2.2308

                      7                      8                      9
                      A                      A                      A
 Frequencies --    307.3666               390.1800               411.2740
 Red. masses --      3.2677                 2.4512                 2.4014
 Frc consts  --      0.1819                 0.2199                 0.2393
 IR Inten    --      3.2261                 0.8446                 5.6321

                     10                     11                     12
                      A                      A                      A
 Frequencies --    493.3599               577.0061               644.3993
 Red. masses --      2.6832                 2.9509                 3.3700
 Frc consts  --      0.3848                 0.5788                 0.8245
 IR Inten    --     20.4481                 3.4378                 0.2189

                     13                     14                     15
                      A                      A                      A
 Frequencies --    719.7254               794.7693               834.9005
 Red. masses --      4.6775                 2.2313                 1.9851
 Frc consts  --      1.4276                 0.8304                 0.8153
 IR Inten    --      4.3026                 2.9560                 7.4295

                     16                     17                     18
                      A                      A                      A
 Frequencies --    872.4043               902.8416               925.5787
 Red. masses --      2.5768                 2.2947                 2.3172
 Frc consts  --      1.1555                 1.1021                 1.1696
 IR Inten    --     13.6663                 7.8826                 2.6519

                     19                     20                     21
                      A                      A                      A
 Frequencies --    946.9037               993.2322              1015.1961
 Red. masses --      2.0838                 1.7859                 1.6846
 Frc consts  --      1.1008                 1.0380                 1.0229
 IR Inten    --      3.2704                 4.8946                 5.6574

                     22                     23                     24
                      A                      A                      A
 Frequencies --   1039.6133              1060.9667              1089.4128
 Red. masses --      1.5290                 1.8731                 2.6296
 Frc consts  --      0.9736                 1.2423                 1.8388
 IR Inten    --      5.4806                 9.6880                24.7212

                     25                     26                     27
                      A                      A                      A
 Frequencies --   1133.8821              1167.4852              1199.1334
 Red. masses --      2.1595                 1.4873                 1.4293
 Frc consts  --      1.6358                 1.1944                 1.2109
 IR Inten    --      6.3873                 3.3631                 5.7467

                     28                     29                     30
                      A                      A                      A
 Frequencies --   1210.8941              1236.3636              1258.4030
 Red. masses --      1.8003                 1.4901                 1.3725
 Frc consts  --      1.5553                 1.3420                 1.2805
 IR Inten    --      8.9678                 5.7476                 2.8107

                     31                     32                     33
                      A                      A                      A
 Frequencies --   1280.0060              1308.0615              1359.0980
 Red. masses --      1.6477                 1.6253                 1.5006
 Frc consts  --      1.5906                 1.6385                 1.6331
 IR Inten    --     20.0917                 2.2955                19.6132

                     34                     35                     36
                      A                      A                      A
 Frequencies --   1404.6381              1432.3839              1455.6627
 Red. masses --      1.2875                 1.1999                 1.8527
 Frc consts  --      1.4967                 1.4505                 2.3130
 IR Inten    --      2.0046                 4.9264                 9.2032

                     37                     38                     39
                      A                      A                      A
 Frequencies --   1465.2057              1477.6520              1486.3439
 Red. masses --      1.1055                 1.1183                 1.2024
 Frc consts  --      1.3983                 1.4387                 1.5650
 IR Inten    --      6.3795                 1.1101                 8.0690

                     40                     41                     42
                      A                      A                      A
 Frequencies --   1497.6668              1833.2404              2851.8761
 Red. masses --      1.3560                 9.9770                 1.0812
 Frc consts  --      1.7920                19.7555                 5.1811
 IR Inten    --      4.5246               199.0242                99.2025

                     43                     44                     45
                      A                      A                      A
 Frequencies --   3028.7947              3034.9614              3061.2273
 Red. masses --      1.0614                 1.0364                 1.0682
 Frc consts  --      5.7368                 5.6244                 5.8977
 IR Inten    --      5.5479                21.9505                24.4556

                     46                     47                     48
                      A                      A                      A
 Frequencies --   3065.8394              3097.3523              3100.3300
 Red. masses --      1.0745                 1.0998                 1.1003
 Frc consts  --      5.9508                 6.2165                 6.2314
 IR Inten    --     16.4657                13.0838                12.5474

                     49                     50                     51
                      A                      A                      A
 Frequencies --   3121.2617              3122.9453              3175.4971
 Red. masses --      1.1063                 1.1027                 1.0938
 Frc consts  --      6.3502                 6.3361                 6.4983
 IR Inten    --     14.3884                17.9375                16.5707

 - Thermochemistry -
 -------------------
 Temperature   298.150 Kelvin.  Pressure   1.00000 Atm.
 Atom     1 has atomic number  6 and mass  12.00000

 Molecular mass:   126.06808 amu.
 Principal axes and moments of inertia in atomic units:
                           1         2         3
     Eigenvalues --   346.656612203.561262334.02546
           X            0.99995  -0.00402   0.00924
           Y            0.00331   0.99715   0.07539
           Z           -0.00951  -0.07535   0.99711
 This molecule is an asymmetric top.
 Rotational symmetry number  1.
 Rotational temperatures (Kelvin)      0.24985     0.03931     0.03711
 Rotational constants (GHZ):           5.20614     0.81901     0.77323
 Zero-point vibrational energy     411443.3 (Joules/Mol)
                                   98.33730 (Kcal/Mol)
 Warning -- explicit consideration of  11 degrees of freedom as
           vibrations may cause significant error
 Vibrational temperatures:     78.04    94.71   180.38   260.82   287.03
          (Kelvin)            397.67   442.23   561.38   591.73   709.83
                              830.18   927.15  1035.52  1143.49  1201.23
                             1255.19  1298.99  1331.70  1362.38  1429.04
                             1460.64  1495.77  1526.49  1567.42  1631.40
                             1679.75  1725.28  1742.20  1778.85  1810.56
                             1841.64  1882.01  1955.44  2020.96  2060.88
                             2094.37  2108.10  2126.01  2138.51  2154.81
                             2637.62  4103.21  4357.75  4366.63  4404.42
                             4411.05  4456.39  4460.68  4490.79  4493.22
                             4568.83

 Zero-point correction=                           0.156710 (Hartree/Particle)
 Thermal correction to Energy=                    0.165825
 Thermal correction to Enthalpy=                  0.166769
 Thermal correction to Gibbs Free Energy=         0.122003
 Sum of electronic and zero-point Energies=           -423.004304
 Sum of electronic and thermal Energies=              -422.995190
 Sum of electronic and thermal Enthalpies=            -422.994245
 Sum of electronic and thermal Free Energies=         -423.039012

                     E (Thermal)             CV                S
                      KCal/Mol        Cal/Mol-Kelvin    Cal/Mol-Kelvin
 Total                  104.057             33.101             94.219
 Electronic               0.000              0.000              0.000
 Translational            0.889              2.981             40.409
 Rotational               0.889              2.981             28.968
 Vibrational            102.279             27.139             24.842
 Vibration     1          0.596              1.976              4.656
 Vibration     2          0.597              1.971              4.274
 Vibration     3          0.610              1.928              3.016
 Vibration     4          0.630              1.865              2.315
 Vibration     5          0.638              1.841              2.138
 Vibration     6          0.678              1.717              1.556
 Vibration     7          0.697              1.660              1.376
 Vibration     8          0.758              1.491              0.999
 Vibration     9          0.775              1.446              0.922
 Vibration    10          0.849              1.265              0.675
 Vibration    11          0.933              1.081              0.491

 Optimization completed.
    -- Stationary point found.
 Normal termination of Gaussian 09 at Mon Jan 27 18:09:55 2020.
