 Gaussian 09, Revision D.01,
 Gaussian 09:  ES64L-G09RevD.01 24-Apr-2013

 -----------------------------
 # b3lyp 6-31G(2df,p) opt Freq
 -----------------------------

 -----
 titel
 -----
 Symbolic Z-matrix:
 Charge =  0 Multiplicity = 1

 SCF Done:  E(RB3LYP) =  -423.128473327     A.U. after   13 cycles
 SCF Done:  E(RB3LYP) =  -423.128473539     A.U. after    6 cycles
 Optimization completed.
    -- Stationary point found.
 Normal termination of Gaussian 09 at Tue Jan 28 02:57:36 2020.

 ----------------------------------------------------------------------
 #N Geom=AllCheck Guess=TCheck SCRF=Check GenChk RB3LYP/6-31G(2df,p) Fr
 eq
 ----------------------------------------------------------------------

 Structure from the checkpoint file:  "/scratch/puck/g09_b120467e-bc53-4179-b45e-5d9202b6c180/Gau-105043.chk"
 -----
 titel
 -----
 Charge =  0 Multiplicity = 1

                         Standard orientation:
 ---------------------------------------------------------------------
 Center     Atomic      Atomic             Coordinates (Angstroms)
 Number     Number       Type             X           Y           Z
 ---------------------------------------------------------------------
      1          6           0       -3.055323   -0.008636   -0.049596
      2          6           0       -1.597025   -0.021276   -0.459172
      3          8           0       -0.906083   -1.201517    0.058568
      4          6           0        0.000793   -0.396585    0.827601
      5          6           0       -0.638948    0.908792    0.316501
      6          8           0        0.549335    1.262868   -0.414928
      7          6           0        1.223147    0.081938    0.058361
      8          6           0        2.199022   -0.677240   -0.767255
      9          6           0        2.661154    0.100917    0.459279
     10          1           0       -3.157388   -0.011319    1.040418
     11          1           0       -3.556310    0.881239   -0.446103
     12          1           0       -3.564363   -0.894696   -0.440266
     13          1           0       -1.478287    0.060342   -1.545826
     14          1           0        0.117936   -0.740504    1.856779
     15          1           0       -1.046760    1.734303    0.902012
     16          1           0        2.172571   -1.760967   -0.728386
     17          1           0        2.445159   -0.260977   -1.738094
     18          1           0        2.958440   -0.448946    1.346771
     19          1           0        3.206074    1.023256    0.289269
 ---------------------------------------------------------------------

 SCF Done:  E(RB3LYP) =  -423.128473539     A.U. after    1 cycles

 The electronic state is 1-A.
 Alpha  occ. eigenvalues --  -19.14128 -19.13534 -10.23953 -10.23865 -10.23818
 Alpha  occ. eigenvalues --  -10.23488 -10.18746 -10.18559 -10.18156  -1.06982
 Alpha  occ. eigenvalues --   -1.01362  -0.85066  -0.75973  -0.71674  -0.65852
 Alpha  occ. eigenvalues --   -0.60766  -0.58931  -0.52073  -0.51311  -0.50769
 Alpha  occ. eigenvalues --   -0.48411  -0.45985  -0.43628  -0.40197  -0.39273
 Alpha  occ. eigenvalues --   -0.38971  -0.37310  -0.35737  -0.35488  -0.32639
 Alpha  occ. eigenvalues --   -0.30408  -0.28539  -0.25218  -0.23179
 Alpha virt. eigenvalues --    0.06376   0.08738   0.09994   0.11570   0.12039
 Alpha virt. eigenvalues --    0.13670   0.14070   0.14760   0.15417   0.16018
 Alpha virt. eigenvalues --    0.17221   0.18597   0.19321   0.21107   0.22548

 Mulliken charges:
               1
     1  C   -0.405839
     2  C    0.126124
     3  O   -0.310330
     4  C   -0.045350
     5  C    0.042153
     6  O   -0.322723
     7  C    0.448561
     8  C   -0.326946
     9  C   -0.343339
    10  H    0.120492
    11  H    0.119399
    12  H    0.132664
    13  H    0.091937
    14  H    0.088257
    15  H    0.088697
    16  H    0.126519
    17  H    0.127045
    18  H    0.116706
    19  H    0.125972
 Sum of Mulliken charges =   0.00000

 Dipole moment (field-independent basis, Debye):
    X=             -0.3587    Y=              0.3183    Z=              0.9197  Tot=              1.0372
 Quadrupole moment (field-independent basis, Debye-Ang):
   XX=            -49.2881   YY=            -56.4435   ZZ=            -51.0657
   XY=             -3.0984   XZ=              0.9326   YZ=              0.6112

  Exact polarizability:  95.580  -2.734  65.658   1.955   0.869  67.273
 Approx polarizability: 115.089  -2.649 103.658   3.138  -0.424 101.549

                      1                      2                      3
                      A                      A                      A
 Frequencies --     72.0291               160.6286               211.9801
 Red. masses --      3.7424                 3.4683                 1.4897
 Frc consts  --      0.0114                 0.0527                 0.0394
 IR Inten    --      1.5399                 1.6576                 0.9265

                      4                      5                      6
                      A                      A                      A
 Frequencies --    241.1905               254.8870               316.5354
 Red. masses --      1.4091                 2.7019                 2.6317
 Frc consts  --      0.0483                 0.1034                 0.1554
 IR Inten    --      0.4207                 0.8092                 0.3938

                      7                      8                      9
                      A                      A                      A
 Frequencies --    395.7235               417.2557               553.9871
 Red. masses --      4.5575                 3.4503                 3.8554
 Frc consts  --      0.4205                 0.3539                 0.6971
 IR Inten    --      6.3913                 0.6379                10.6174

                     10                     11                     12
                      A                      A                      A
 Frequencies --    593.6215               748.6821               773.0285
 Red. masses --      4.3448                 1.2972                 2.0399
 Frc consts  --      0.9021                 0.4284                 0.7182
 IR Inten    --      1.1894                 3.6844                 2.5988

                     13                     14                     15
                      A                      A                      A
 Frequencies --    809.3476               854.9388               877.3609
 Red. masses --      1.6789                 1.8430                 1.7980
 Frc consts  --      0.6480                 0.7937                 0.8154
 IR Inten    --      6.7636                10.9863                 9.9005

                     16                     17                     18
                      A                      A                      A
 Frequencies --    885.8392               896.2926               940.1457
 Red. masses --      1.9447                 2.1563                 3.8722
 Frc consts  --      0.8991                 1.0206                 2.0165
 IR Inten    --     10.9957                14.4619                45.8871

                     19                     20                     21
                      A                      A                      A
 Frequencies --    979.8849               988.5888              1011.2101
 Red. masses --      2.6097                 4.8695                 5.4690
 Frc consts  --      1.4763                 2.8039                 3.2949
 IR Inten    --     13.9687                25.7117                13.6815

                     22                     23                     24
                      A                      A                      A
 Frequencies --   1043.1771              1062.1760              1066.3846
 Red. masses --      1.7630                 2.6434                 1.5914
 Frc consts  --      1.1304                 1.7571                 1.0662
 IR Inten    --     12.6903               169.9677                24.0589

                     25                     26                     27
                      A                      A                      A
 Frequencies --   1073.0826              1089.6629              1131.3049
 Red. masses --      1.7833                 1.9388                 2.4740
 Frc consts  --      1.2099                 1.3564                 1.8656
 IR Inten    --      9.1115                 3.4720                 6.9405

                     28                     29                     30
                      A                      A                      A
 Frequencies --   1183.7846              1185.4883              1215.2552
 Red. masses --      1.3708                 1.4214                 2.0922
 Frc consts  --      1.1318                 1.1769                 1.8205
 IR Inten    --      3.0824                 3.8311                13.1693

                     31                     32                     33
                      A                      A                      A
 Frequencies --   1238.5024              1266.5997              1296.9840
 Red. masses --      2.0435                 1.5509                 1.3319
 Frc consts  --      1.8468                 1.4659                 1.3201
 IR Inten    --     24.0393                19.4955                18.0172

                     34                     35                     36
                      A                      A                      A
 Frequencies --   1328.6695              1374.1788              1394.9943
 Red. masses --      1.4779                 1.6416                 1.8792
 Frc consts  --      1.5372                 1.8265                 2.1546
 IR Inten    --      0.5936                 2.5870                 5.8890

                     37                     38                     39
                      A                      A                      A
 Frequencies --   1405.7955              1449.3906              1483.8553
 Red. masses --      1.3175                 1.0897                 1.0572
 Frc consts  --      1.5340                 1.3488                 1.3715
 IR Inten    --      9.4329                 1.9936                 3.9366

                     40                     41                     42
                      A                      A                      A
 Frequencies --   1493.4977              1497.9828              3034.0227
 Red. masses --      1.0545                 1.7298                 1.0352
 Frc consts  --      1.3859                 2.2870                 5.6143
 IR Inten    --      3.7050                12.9109                15.5269

                     43                     44                     45
                      A                      A                      A
 Frequencies --   3044.4125              3091.5115              3104.1668
 Red. masses --      1.0854                 1.0878                 1.0934
 Frc consts  --      5.9273                 6.1254                 6.2076
 IR Inten    --     26.2342                33.9866                36.3170

                     46                     47                     48
                      A                      A                      A
 Frequencies --   3107.3477              3114.8264              3127.3240
 Red. masses --      1.1013                 1.1015                 1.0533
 Frc consts  --      6.2652                 6.2963                 6.0694
 IR Inten    --     26.9107                21.9891                11.7527

                     49                     50                     51
                      A                      A                      A
 Frequencies --   3134.6013              3212.8151              3227.4978
 Red. masses --      1.0550                 1.1180                 1.1154
 Frc consts  --      6.1077                 6.7994                 6.8457
 IR Inten    --      5.1136                 0.8161                 7.1006

 - Thermochemistry -
 -------------------
 Temperature   298.150 Kelvin.  Pressure   1.00000 Atm.
 Atom     1 has atomic number  6 and mass  12.00000

 Molecular mass:   126.06808 amu.
 Principal axes and moments of inertia in atomic units:
                           1         2         3
     Eigenvalues --   406.329641547.712731682.31940
           X            0.99991  -0.01370   0.00091
           Y            0.01366   0.99912   0.03956
           Z           -0.00145  -0.03954   0.99922
 This molecule is an asymmetric top.
 Rotational symmetry number  1.
 Rotational temperatures (Kelvin)      0.21316     0.05596     0.05148
 Rotational constants (GHZ):           4.44157     1.16607     1.07277
 Zero-point vibrational energy     415477.7 (Joules/Mol)
                                   99.30156 (Kcal/Mol)
 Warning -- explicit consideration of  10 degrees of freedom as
           vibrations may cause significant error
 Vibrational temperatures:    103.63   231.11   304.99   347.02   366.73
          (Kelvin)            455.42   569.36   600.34   797.06   854.09
                             1077.19  1112.21  1164.47  1230.06  1262.33
                             1274.52  1289.56  1352.66  1409.83  1422.36
                             1454.90  1500.90  1528.23  1534.29  1543.92
                             1567.78  1627.69  1703.20  1705.65  1748.48
                             1781.93  1822.35  1866.07  1911.66  1977.13
                             2007.08  2022.62  2085.35  2134.93  2148.81
                             2155.26  4365.28  4380.23  4447.99  4466.20
                             4470.77  4481.53  4499.52  4509.99  4622.52
                             4643.64

 Zero-point correction=                           0.158247 (Hartree/Particle)
 Thermal correction to Energy=                    0.166332
 Thermal correction to Enthalpy=                  0.167276
 Thermal correction to Gibbs Free Energy=         0.125614
 Sum of electronic and zero-point Energies=           -422.970226
 Sum of electronic and thermal Energies=              -422.962142
 Sum of electronic and thermal Enthalpies=            -422.961197
 Sum of electronic and thermal Free Energies=         -423.002859

                     E (Thermal)             CV                S
                      KCal/Mol        Cal/Mol-Kelvin    Cal/Mol-Kelvin
 Total                  104.375             31.406             87.685
 Electronic               0.000              0.000              0.000
 Translational            0.889              2.981             40.409
 Rotational               0.889              2.981             28.450
 Vibrational            102.597             25.445             18.827
 Vibration     1          0.598              1.967              4.097
 Vibration     2          0.622              1.891              2.542
 Vibration     3          0.643              1.823              2.027
 Vibration     4          0.658              1.777              1.794
 Vibration     5          0.665              1.755              1.697
 Vibration     6          0.703              1.642              1.328
 Vibration     7          0.762              1.479              0.979
 Vibration     8          0.780              1.433              0.901
 Vibration     9          0.909              1.131              0.536
 Vibration    10          0.951              1.045              0.461

 Normal termination of Gaussian 09 at Tue Jan 28 03:47:58 2020.
