 Gaussian 09, Revision D.01,
 Gaussian 09:  ES64L-G09RevD.01 24-Apr-2013

 -----------------------------
 # b3lyp 6-31G(2df,p) opt Freq
 -----------------------------

 -----
 titel
 -----
 Symbolic Z-matrix:
 Charge =  0 Multiplicity = 1

 SCF Done:  E(RB3LYP) =  -423.120969361     A.U. after   14 cycles
 Optimization completed.
    -- Stationary point found.
 Normal termination of Gaussian 09 at Mon Jan 27 23:03:58 2020.

 ----------------------------------------------------------------------
 #N Geom=AllCheck Guess=TCheck SCRF=Check GenChk RB3LYP/6-31G(2df,p) Fr
 eq
 ----------------------------------------------------------------------

 Structure from the checkpoint file:  "/scratch/puck/g09_ebcad522-f6a7-44df-94bd-4df1065e5685/Gau-179067.chk"
 -----
 titel
 -----
 Charge =  0 Multiplicity = 1

                         Standard orientation:
 ---------------------------------------------------------------------
 Center     Atomic      Atomic             Coordinates (Angstroms)
 Number     Number       Type             X           Y           Z
 ---------------------------------------------------------------------
      1          6           0       -2.689200    0.670634    0.045890
      2          6           0       -1.175228    0.629793    0.132874
      3          6           0       -0.385941   -0.236236   -0.893802
      4          8           0       -0.930349   -1.453172   -0.230192
      5          6           0       -0.501896   -0.563032    0.864155
      6          6           0        0.837159   -0.302525    0.066945
      7          6           0        1.791163   -1.488248   -0.060821
      8          6           0        1.629064    0.948383    0.355392
      9          8           0        1.628998    1.952005   -0.313882
     10          1           0       -3.094532   -0.320498   -0.164828
     11          1           0       -3.119601    1.032394    0.985958
     12          1           0       -3.009865    1.356845   -0.744976
     13          1           0       -0.746556    1.613196    0.330643
     14          1           0       -0.399123   -0.210906   -1.983566
     15          1           0       -0.624742   -0.927494    1.885800
     16          1           0        2.469497   -1.353834   -0.910146
     17          1           0        2.406120   -1.594971    0.839733
     18          1           0        1.219414   -2.404800   -0.208343
     19          1           0        2.279465    0.866790    1.258511
 ---------------------------------------------------------------------

 SCF Done:  E(RB3LYP) =  -423.120969361     A.U. after    1 cycles

 The electronic state is 1-A.
 Alpha  occ. eigenvalues --  -19.14657 -19.14229 -10.27605 -10.25920 -10.25372
 Alpha  occ. eigenvalues --  -10.21639 -10.20279 -10.18724 -10.17605  -1.06700
 Alpha  occ. eigenvalues --   -1.05134  -0.81623  -0.77059  -0.70512  -0.66143
 Alpha  occ. eigenvalues --   -0.64034  -0.58533  -0.53011  -0.51761  -0.48728
 Alpha  occ. eigenvalues --   -0.45874  -0.44056  -0.42434  -0.41853  -0.40660
 Alpha  occ. eigenvalues --   -0.39537  -0.37948  -0.37633  -0.34992  -0.33341
 Alpha  occ. eigenvalues --   -0.31624  -0.31556  -0.26284  -0.24324
 Alpha virt. eigenvalues --   -0.03265   0.08384   0.09901   0.11010   0.11696
 Alpha virt. eigenvalues --    0.12695   0.12939   0.13315   0.14225   0.16539
 Alpha virt. eigenvalues --    0.17096   0.17292   0.18259   0.19319   0.19707

 Mulliken charges:
               1
     1  C   -0.441057
     2  C    0.027257
     3  C   -0.000812
     4  O   -0.311978
     5  C   -0.018979
     6  C    0.257721
     7  C   -0.486303
     8  C    0.080807
     9  O   -0.255002
    10  H    0.138652
    11  H    0.116532
    12  H    0.120832
    13  H    0.098301
    14  H    0.100373
    15  H    0.094460
    16  H    0.129202
    17  H    0.120458
    18  H    0.153577
    19  H    0.075957
 Sum of Mulliken charges =   0.00000

 Dipole moment (field-independent basis, Debye):
    X=              0.0913    Y=             -0.7036    Z=              1.2410  Tot=              1.4295
 Quadrupole moment (field-independent basis, Debye-Ang):
   XX=            -53.5872   YY=            -60.8743   ZZ=            -49.8835
   XY=             -6.0652   XZ=              1.1310   YZ=              0.7604

  Exact polarizability:  86.373  -3.273  74.817   1.819  -2.419  68.627
 Approx polarizability: 110.926   2.944 119.517   1.700  -8.087 111.462

                      1                      2                      3
                      A                      A                      A
 Frequencies --     84.6206               161.9734               200.9128
 Red. masses --      4.2702                 3.2537                 1.9984
 Frc consts  --      0.0180                 0.0503                 0.0475
 IR Inten    --      7.8909                 5.8101                 0.9795

                      4                      5                      6
                      A                      A                      A
 Frequencies --    213.0540               225.2059               231.7038
 Red. masses --      1.1796                 2.0954                 1.3113
 Frc consts  --      0.0315                 0.0626                 0.0415
 IR Inten    --      0.0784                 0.5565                 0.5392

                      7                      8                      9
                      A                      A                      A
 Frequencies --    306.6973               352.5087               378.1993
 Red. masses --      2.8175                 2.5950                 2.9663
 Frc consts  --      0.1561                 0.1900                 0.2500
 IR Inten    --      1.2573                 4.1417                 3.8068

                     10                     11                     12
                      A                      A                      A
 Frequencies --    479.6549               541.9499               675.3767
 Red. masses --      5.0811                 4.0193                 4.1493
 Frc consts  --      0.6888                 0.6955                 1.1151
 IR Inten    --      2.5111                 1.3433                25.2573

                     13                     14                     15
                      A                      A                      A
 Frequencies --    731.2377               748.7942               794.0853
 Red. masses --      3.0039                 5.6041                 3.1026
 Frc consts  --      0.9464                 1.8513                 1.1527
 IR Inten    --      2.9962                 5.1994                 1.7679

                     16                     17                     18
                      A                      A                      A
 Frequencies --    808.5194               859.9402               899.8651
 Red. masses --      2.1530                 2.9239                 3.2291
 Frc consts  --      0.8292                 1.2739                 1.5406
 IR Inten    --      2.2829                23.5612                41.5395

                     19                     20                     21
                      A                      A                      A
 Frequencies --    929.5589               987.4536              1026.4676
 Red. masses --      1.5992                 1.7371                 1.2189
 Frc consts  --      0.8142                 0.9980                 0.7567
 IR Inten    --     17.2914                 2.3413                 5.4903

                     22                     23                     24
                      A                      A                      A
 Frequencies --   1055.9149              1077.2911              1095.0039
 Red. masses --      2.1251                 2.3151                 1.4834
 Frc consts  --      1.3960                 1.5830                 1.0479
 IR Inten    --      5.3698                 0.4948                 1.7232

                     25                     26                     27
                      A                      A                      A
 Frequencies --   1122.0050              1145.4971              1155.0885
 Red. masses --      2.6203                 1.3874                 1.7509
 Frc consts  --      1.9435                 1.0726                 1.3764
 IR Inten    --      7.5442                 3.9819                 5.5641

                     28                     29                     30
                      A                      A                      A
 Frequencies --   1188.0066              1207.7130              1235.4881
 Red. masses --      2.4713                 1.5978                 2.1365
 Frc consts  --      2.0550                 1.3731                 1.9215
 IR Inten    --      0.8235                 1.3632                 6.0569

                     31                     32                     33
                      A                      A                      A
 Frequencies --   1267.8205              1299.0473              1390.8034
 Red. masses --      1.7840                 2.7649                 1.2331
 Frc consts  --      1.6895                 2.7490                 1.4053
 IR Inten    --      1.1701                 7.0197                 6.4194

                     34                     35                     36
                      A                      A                      A
 Frequencies --   1398.8444              1421.8050              1427.6184
 Red. masses --      1.2344                 1.5280                 1.2197
 Frc consts  --      1.4232                 1.8200                 1.4646
 IR Inten    --      2.8598                 1.9992                 4.0958

                     37                     38                     39
                      A                      A                      A
 Frequencies --   1488.7784              1495.0362              1504.1761
 Red. masses --      1.0574                 1.0574                 1.0483
 Frc consts  --      1.3809                 1.3925                 1.3975
 IR Inten    --      4.0270                 6.6557                 1.7921

                     40                     41                     42
                      A                      A                      A
 Frequencies --   1506.8027              1815.2803              2849.9947
 Red. masses --      1.0485                10.8151                 1.0815
 Frc consts  --      1.4026                20.9974                 5.1755
 IR Inten    --      7.7201               141.5239               122.6469

                     43                     44                     45
                      A                      A                      A
 Frequencies --   3036.0660              3038.9517              3093.9609
 Red. masses --      1.0380                 1.0379                 1.1007
 Frc consts  --      5.6372                 5.6472                 6.2078
 IR Inten    --     31.6921                25.5531                17.1368

                     46                     47                     48
                      A                      A                      A
 Frequencies --   3095.4836              3101.4158              3108.5625
 Red. masses --      1.1005                 1.0889                 1.0866
 Frc consts  --      6.2130                 6.1711                 6.1865
 IR Inten    --     18.0792                43.9690                23.9850

                     49                     50                     51
                      A                      A                      A
 Frequencies --   3122.3852              3140.9686              3148.5209
 Red. masses --      1.0941                 1.0985                 1.0978
 Frc consts  --      6.2847                 6.3853                 6.4119
 IR Inten    --     18.9770                13.9064                 2.1370

 - Thermochemistry -
 -------------------
 Temperature   298.150 Kelvin.  Pressure   1.00000 Atm.
 Atom     1 has atomic number  6 and mass  12.00000

 Molecular mass:   126.06808 amu.
 Principal axes and moments of inertia in atomic units:
                           1         2         3
     Eigenvalues --   710.125371173.132741631.78404
           X            0.99335  -0.11505   0.00514
           Y            0.11503   0.99335   0.00495
           Z           -0.00568  -0.00433   0.99997
 This molecule is an asymmetric top.
 Rotational symmetry number  1.
 Warning -- assumption of classical behavior for rotation
           may cause significant error
 Rotational temperatures (Kelvin)      0.12197     0.07383     0.05308
 Rotational constants (GHZ):           2.54144     1.53839     1.10599
 Zero-point vibrational energy     410750.4 (Joules/Mol)
                                   98.17171 (Kcal/Mol)
 Warning -- explicit consideration of  11 degrees of freedom as
           vibrations may cause significant error
 Vibrational temperatures:    121.75   233.04   289.07   306.54   324.02
          (Kelvin)            333.37   441.27   507.18   544.14   690.12
                              779.74   971.72  1052.09  1077.35  1142.51
                             1163.28  1237.26  1294.70  1337.43  1420.72
                             1476.86  1519.22  1549.98  1575.46  1614.31
                             1648.11  1661.91  1709.27  1737.63  1777.59
                             1824.11  1869.04  2001.05  2012.62  2045.66
                             2054.02  2142.02  2151.02  2164.17  2167.95
                             2611.78  4100.50  4368.22  4372.37  4451.51
                             4453.70  4462.24  4472.52  4492.41  4519.15
                             4530.01

 Zero-point correction=                           0.156447 (Hartree/Particle)
 Thermal correction to Energy=                    0.165317
 Thermal correction to Enthalpy=                  0.166261
 Thermal correction to Gibbs Free Energy=         0.123148
 Sum of electronic and zero-point Energies=           -422.964523
 Sum of electronic and thermal Energies=              -422.955653
 Sum of electronic and thermal Enthalpies=            -422.954708
 Sum of electronic and thermal Free Energies=         -422.997821

                     E (Thermal)             CV                S
                      KCal/Mol        Cal/Mol-Kelvin    Cal/Mol-Kelvin
 Total                  103.738             33.498             90.739
 Electronic               0.000              0.000              0.000
 Translational            0.889              2.981             40.409
 Rotational               0.889              2.981             28.699
 Vibrational            101.960             27.537             21.632
 Vibration     1          0.601              1.960              3.781
 Vibration     2          0.622              1.889              2.527
 Vibration     3          0.638              1.839              2.125
 Vibration     4          0.644              1.821              2.017
 Vibration     5          0.650              1.803              1.917
 Vibration     6          0.653              1.792              1.866
 Vibration     7          0.697              1.661              1.380
 Vibration     8          0.729              1.570              1.155
 Vibration     9          0.748              1.517              1.046
 Vibration    10          0.836              1.295              0.711
 Vibration    11          0.897              1.157              0.561

 Optimization completed.
    -- Stationary point found.
 Normal termination of Gaussian 09 at Mon Jan 27 23:49:51 2020.
