 Gaussian 09, Revision D.01,
 Gaussian 09:  ES64L-G09RevD.01 24-Apr-2013

 -----------------------------
 # b3lyp 6-31G(2df,p) opt Freq
 -----------------------------

 -----
 titel
 -----
 Symbolic Z-matrix:
 Charge =  0 Multiplicity = 1

 SCF Done:  E(RB3LYP) =  -423.209394659     A.U. after   14 cycles
 Optimization completed.
    -- Stationary point found.
 Normal termination of Gaussian 09 at Tue Jan 28 14:14:32 2020.

 ----------------------------------------------------------------------
 #N Geom=AllCheck Guess=TCheck SCRF=Check GenChk RB3LYP/6-31G(2df,p) Fr
 eq
 ----------------------------------------------------------------------

 Structure from the checkpoint file:  "/scratch/puck/g09_e0999d51-dbe9-482a-9d8e-9ecaaa1c09cd/Gau-111770.chk"
 -----
 titel
 -----
 Charge =  0 Multiplicity = 1

                         Standard orientation:
 ---------------------------------------------------------------------
 Center     Atomic      Atomic             Coordinates (Angstroms)
 Number     Number       Type             X           Y           Z
 ---------------------------------------------------------------------
      1          8           0       -3.386666   -0.246068   -0.425675
      2          6           0       -2.218788    0.175585    0.265764
      3          6           0       -1.072302   -0.715354   -0.200372
      4          6           0        0.260710   -0.440592    0.525542
      5          6           0        1.347297   -1.445763    0.236735
      6          6           0        2.466286   -0.892521   -0.232907
      7          6           0        2.364029    0.603669   -0.344216
      8          6           0        0.922920    0.889816    0.107815
      9          8           0        0.396157    1.973170    0.119107
     10          1           0       -4.083230    0.392838   -0.250463
     11          1           0       -1.980940    1.227114    0.064137
     12          1           0       -2.343549    0.069230    1.357252
     13          1           0       -1.358237   -1.760674   -0.032588
     14          1           0       -0.942176   -0.597853   -1.282229
     15          1           0        0.053638   -0.385155    1.606221
     16          1           0        1.198887   -2.508002    0.397770
     17          1           0        3.362328   -1.438481   -0.504604
     18          1           0        3.067753    1.142840    0.304081
     19          1           0        2.528681    0.992279   -1.357191
 ---------------------------------------------------------------------

 SCF Done:  E(RB3LYP) =  -423.209394659     A.U. after    1 cycles

 The electronic state is 1-A.
 Alpha  occ. eigenvalues --  -19.13481 -19.12811 -10.27133 -10.21966 -10.20036
 Alpha  occ. eigenvalues --  -10.19688 -10.19306 -10.19064 -10.18575  -1.04494
 Alpha  occ. eigenvalues --   -1.00873  -0.85164  -0.77449  -0.70607  -0.67907
 Alpha  occ. eigenvalues --   -0.60194  -0.55419  -0.53915  -0.50089  -0.48460
 Alpha  occ. eigenvalues --   -0.46822  -0.45339  -0.41841  -0.41428  -0.40439
 Alpha  occ. eigenvalues --   -0.38862  -0.38104  -0.36008  -0.35553  -0.35014
 Alpha  occ. eigenvalues --   -0.32136  -0.26335  -0.25526  -0.23997
 Alpha virt. eigenvalues --   -0.02008   0.01054   0.08280   0.10147   0.12347
 Alpha virt. eigenvalues --    0.12843   0.13662   0.15327   0.16071   0.17231
 Alpha virt. eigenvalues --    0.17873   0.18260   0.21026   0.21982   0.23553

 Mulliken charges:
               1
     1  O   -0.424445
     2  C   -0.084843
     3  C   -0.177777
     4  C   -0.160755
     5  C   -0.076574
     6  C   -0.082830
     7  C   -0.362772
     8  C    0.391170
     9  O   -0.309425
    10  H    0.286097
    11  H    0.120489
    12  H    0.078200
    13  H    0.107850
    14  H    0.109357
    15  H    0.105569
    16  H    0.102240
    17  H    0.102649
    18  H    0.137738
    19  H    0.138063
 Sum of Mulliken charges =   0.00000

 Dipole moment (field-independent basis, Debye):
    X=              1.1378    Y=             -1.0064    Z=              0.6708  Tot=              1.6606
 Quadrupole moment (field-independent basis, Debye-Ang):
   XX=            -46.7823   YY=            -57.3669   ZZ=            -52.8838
   XY=             -4.5545   XZ=             -3.1847   YZ=             -1.1866

  Exact polarizability:  97.587   0.330  76.588  -6.589  -1.893  58.008
 Approx polarizability: 129.068   3.505 118.382 -11.217  -4.214  92.583

                      1                      2                      3
                      A                      A                      A
 Frequencies --     45.6984                86.5264               110.1322
 Red. masses --      3.4838                 2.5592                 2.9526
 Frc consts  --      0.0043                 0.0113                 0.0211
 IR Inten    --      2.8553                 7.1952                 5.6265

                      4                      5                      6
                      A                      A                      A
 Frequencies --    156.5005               231.3294               244.0383
 Red. masses --      3.2589                 3.5000                 1.1127
 Frc consts  --      0.0470                 0.1104                 0.0390
 IR Inten    --      3.7884                 2.1268                96.3553

                      7                      8                      9
                      A                      A                      A
 Frequencies --    301.3728               370.9956               445.8111
 Red. masses --      3.1234                 5.2192                 2.4096
 Frc consts  --      0.1671                 0.4232                 0.2822
 IR Inten    --      1.2322                 6.4290                 0.5922

                     10                     11                     12
                      A                      A                      A
 Frequencies --    491.8990               605.7908               630.8863
 Red. masses --      3.4132                 2.9728                 4.7293
 Frc consts  --      0.4866                 0.6428                 1.1090
 IR Inten    --     11.7184                 5.9218                 3.1824

                     13                     14                     15
                      A                      A                      A
 Frequencies --    717.1462               736.6868               775.0775
 Red. masses --      1.3857                 2.1608                 5.2410
 Frc consts  --      0.4199                 0.6909                 1.8550
 IR Inten    --     41.2534                 3.5848                12.7901

                     16                     17                     18
                      A                      A                      A
 Frequencies --    817.5203               938.4834               972.6535
 Red. masses --      1.3273                 1.8514                 1.9064
 Frc consts  --      0.5227                 0.9607                 1.0626
 IR Inten    --      3.0037                 1.4560                 7.4549

                     19                     20                     21
                      A                      A                      A
 Frequencies --    981.1272               992.4627              1013.3028
 Red. masses --      1.5143                 2.2318                 2.6373
 Frc consts  --      0.8588                 1.2952                 1.5955
 IR Inten    --      1.1367                 2.8573                 5.2370

                     22                     23                     24
                      A                      A                      A
 Frequencies --   1043.7071              1079.6887              1090.1294
 Red. masses --      1.9630                 4.2347                 1.6940
 Frc consts  --      1.2599                 2.9085                 1.1861
 IR Inten    --     31.2392                89.2907                 1.1451

                     25                     26                     27
                      A                      A                      A
 Frequencies --   1133.1598              1143.9569              1161.5572
 Red. masses --      1.3614                 2.4182                 1.3710
 Frc consts  --      1.0300                 1.8645                 1.0898
 IR Inten    --     12.1993                35.7607                 1.5497

                     28                     29                     30
                      A                      A                      A
 Frequencies --   1206.2167              1227.8163              1275.8685
 Red. masses --      1.2566                 1.2217                 1.5473
 Frc consts  --      1.0772                 1.0852                 1.4840
 IR Inten    --      6.2068                13.1998                10.7895

                     31                     32                     33
                      A                      A                      A
 Frequencies --   1287.1156              1298.1082              1323.4191
 Red. masses --      1.6708                 1.2655                 1.1763
 Frc consts  --      1.6308                 1.2564                 1.2138
 IR Inten    --      7.5969                23.2199                 2.5619

                     34                     35                     36
                      A                      A                      A
 Frequencies --   1346.7669              1382.1665              1441.7584
 Red. masses --      1.4705                 1.7589                 1.0910
 Frc consts  --      1.5715                 1.9798                 1.3361
 IR Inten    --      4.7029                 2.8947                 5.7724

                     37                     38                     39
                      A                      A                      A
 Frequencies --   1459.5341              1492.7358              1532.4734
 Red. masses --      1.4532                 1.0867                 1.0854
 Frc consts  --      1.8239                 1.4267                 1.5018
 IR Inten    --      3.5769                 1.3605                 2.5416

                     40                     41                     42
                      A                      A                      A
 Frequencies --   1682.2754              1839.9130              2953.6610
 Red. masses --      6.4613                12.6827                 1.0701
 Frc consts  --     10.7737                25.2963                 5.5005
 IR Inten    --      0.1383               169.6333                57.9759

                     43                     44                     45
                      A                      A                      A
 Frequencies --   2982.4347              3025.4441              3032.9050
 Red. masses --      1.0799                 1.0611                 1.0625
 Frc consts  --      5.6595                 5.7227                 5.7582
 IR Inten    --     17.0201                13.9160                16.1038

                     46                     47                     48
                      A                      A                      A
 Frequencies --   3048.5605              3054.0405              3079.7298
 Red. masses --      1.0864                 1.0988                 1.1043
 Frc consts  --      5.9489                 6.0385                 6.1712
 IR Inten    --     17.7101                 6.9413                33.7214

                     49                     50                     51
                      A                      A                      A
 Frequencies --   3183.7305              3208.0910              3834.0772
 Red. masses --      1.0853                 1.1028                 1.0664
 Frc consts  --      6.4816                 6.6871                 9.2362
 IR Inten    --      4.0860                18.4802                22.7553

 - Thermochemistry -
 -------------------
 Temperature   298.150 Kelvin.  Pressure   1.00000 Atm.
 Atom     1 has atomic number  8 and mass  15.99491

 Molecular mass:   126.06808 amu.
 Principal axes and moments of inertia in atomic units:
                           1         2         3
     Eigenvalues --   556.049481816.782212236.07827
           X            0.99991  -0.00874  -0.00977
           Y            0.00866   0.99993  -0.00816
           Z            0.00984   0.00808   0.99992
 This molecule is an asymmetric top.
 Rotational symmetry number  1.
 Warning -- assumption of classical behavior for rotation
           may cause significant error
 Rotational temperatures (Kelvin)      0.15577     0.04767     0.03873
 Rotational constants (GHZ):           3.24565     0.99337     0.80710
 Zero-point vibrational energy     415800.9 (Joules/Mol)
                                   99.37880 (Kcal/Mol)
 Warning -- explicit consideration of  11 degrees of freedom as
           vibrations may cause significant error
 Vibrational temperatures:     65.75   124.49   158.46   225.17   332.83
          (Kelvin)            351.12   433.61   533.78   641.42   707.73
                              871.60   907.70  1031.81  1059.93  1115.16
                             1176.23  1350.27  1399.43  1411.62  1427.93
                             1457.91  1501.66  1553.43  1568.45  1630.36
                             1645.90  1671.22  1735.47  1766.55  1835.69
                             1851.87  1867.69  1904.10  1937.69  1988.63
                             2074.37  2099.94  2147.71  2204.88  2420.42
                             2647.22  4249.65  4291.05  4352.93  4363.67
                             4386.19  4394.08  4431.04  4580.67  4615.72
                             5516.38

 Zero-point correction=                           0.158370 (Hartree/Particle)
 Thermal correction to Energy=                    0.167548
 Thermal correction to Enthalpy=                  0.168492
 Thermal correction to Gibbs Free Energy=         0.123452
 Sum of electronic and zero-point Energies=           -423.051024
 Sum of electronic and thermal Energies=              -423.041847
 Sum of electronic and thermal Enthalpies=            -423.040902
 Sum of electronic and thermal Free Energies=         -423.085943

                     E (Thermal)             CV                S
                      KCal/Mol        Cal/Mol-Kelvin    Cal/Mol-Kelvin
 Total                  105.138             33.265             94.796
 Electronic               0.000              0.000              0.000
 Translational            0.889              2.981             40.409
 Rotational               0.889              2.981             29.203
 Vibrational            103.361             27.303             25.184
 Vibration     1          0.595              1.979              4.995
 Vibration     2          0.601              1.959              3.737
 Vibration     3          0.606              1.941              3.267
 Vibration     4          0.620              1.895              2.592
 Vibration     5          0.653              1.793              1.869
 Vibration     6          0.659              1.773              1.773
 Vibration     7          0.693              1.671              1.409
 Vibration     8          0.743              1.532              1.076
 Vibration     9          0.805              1.370              0.809
 Vibration    10          0.848              1.268              0.679
 Vibration    11          0.964              1.020              0.440

 Normal termination of Gaussian 09 at Tue Jan 28 14:52:43 2020.
