 Gaussian 09, Revision D.01,
 Gaussian 09:  ES64L-G09RevD.01 24-Apr-2013

 -----------------------------
 # b3lyp 6-31G(2df,p) opt Freq
 -----------------------------

 -----
 titel
 -----
 Symbolic Z-matrix:
 Charge =  0 Multiplicity = 1

 SCF Done:  E(RB3LYP) =  -423.204637576     A.U. after   14 cycles
 Optimization completed.
    -- Stationary point found.
 Normal termination of Gaussian 09 at Mon Jan 27 15:56:44 2020.

 ----------------------------------------------------------------------
 #N Geom=AllCheck Guess=TCheck SCRF=Check GenChk RB3LYP/6-31G(2df,p) Fr
 eq
 ----------------------------------------------------------------------

 Structure from the checkpoint file:  "/scratch/puck/g09_7bf1fcd9-cf9b-4cf6-97fd-e4c57d18f617/Gau-62168.chk"
 -----
 titel
 -----
 Charge =  0 Multiplicity = 1

                         Standard orientation:
 ---------------------------------------------------------------------
 Center     Atomic      Atomic             Coordinates (Angstroms)
 Number     Number       Type             X           Y           Z
 ---------------------------------------------------------------------
      1          6           0       -0.737183    1.392788   -1.270822
      2          6           0       -0.455262    0.591796   -0.000001
      3          6           0       -0.737179    1.392779    1.270829
      4          6           0       -1.102568   -0.804896    0.000010
      5          8           0       -2.198107   -1.267249   -0.000013
      6          8           0        0.095000   -1.480362    0.000010
      7          6           0        0.838596   -0.234183    0.000002
      8          6           0        2.106947   -0.108842   -0.763468
      9          6           0        2.106956   -0.108834    0.763454
     10          1           0       -0.123314    2.299634   -1.297211
     11          1           0       -0.522985    0.809149   -2.170346
     12          1           0       -1.788295    1.694423   -1.301824
     13          1           0       -0.123315    2.299627    1.297221
     14          1           0       -1.788293    1.694407    1.301841
     15          1           0       -0.522972    0.809133    2.170346
     16          1           0        2.477487   -0.997354   -1.262643
     17          1           0        2.308596    0.822779   -1.282075
     18          1           0        2.477501   -0.997340    1.262635
     19          1           0        2.308611    0.822792    1.282049
 ---------------------------------------------------------------------

 SCF Done:  E(RB3LYP) =  -423.204637576     A.U. after    1 cycles

 The electronic state is 1-A.
 Alpha  occ. eigenvalues --  -19.17981 -19.13193 -10.30194 -10.25791 -10.21984
 Alpha  occ. eigenvalues --  -10.20183 -10.20161 -10.19327 -10.19326  -1.10528
 Alpha  occ. eigenvalues --   -1.03127  -0.86878  -0.81408  -0.70548  -0.66240
 Alpha  occ. eigenvalues --   -0.62165  -0.60106  -0.52866  -0.50364  -0.49209
 Alpha  occ. eigenvalues --   -0.47353  -0.45733  -0.44152  -0.42377  -0.40698
 Alpha  occ. eigenvalues --   -0.39869  -0.38388  -0.38256  -0.36224  -0.35065
 Alpha  occ. eigenvalues --   -0.33841  -0.30827  -0.27197  -0.26641
 Alpha virt. eigenvalues --    0.01436   0.07156   0.07670   0.10992   0.11148
 Alpha virt. eigenvalues --    0.12414   0.13220   0.13762   0.16913   0.17230
 Alpha virt. eigenvalues --    0.17455   0.17553   0.18799   0.20790   0.21861

 Mulliken charges:
               1
     1  C   -0.443118
     2  C   -0.038025
     3  C   -0.443116
     4  C    0.462378
     5  O   -0.339305
     6  O   -0.283947
     7  C    0.463797
     8  C   -0.337883
     9  C   -0.337883
    10  H    0.119627
    11  H    0.131689
    12  H    0.138066
    13  H    0.119626
    14  H    0.138065
    15  H    0.131688
    16  H    0.135626
    17  H    0.123545
    18  H    0.135626
    19  H    0.123545
 Sum of Mulliken charges =   0.00000

 Dipole moment (field-independent basis, Debye):
    X=              2.6642    Y=              2.9956    Z=              0.0000  Tot=              4.0090
 Quadrupole moment (field-independent basis, Debye-Ang):
   XX=            -57.5234   YY=            -55.5026   ZZ=            -51.1602
   XY=             -4.6005   XZ=             -0.0001   YZ=              0.0000

  Exact polarizability:  86.656   0.229  71.126   0.000   0.000  68.380
 Approx polarizability: 126.333   5.100 104.586   0.000   0.000  98.298

                      1                      2                      3
                      A                      A                      A
 Frequencies --     93.2309               174.1235               190.7005
 Red. masses --      4.6632                 2.7948                 2.8281
 Frc consts  --      0.0239                 0.0499                 0.0606
 IR Inten    --      0.0519                 1.1207                 1.3754

                      4                      5                      6
                      A                      A                      A
 Frequencies --    196.7330               200.5348               238.6181
 Red. masses --      1.6660                 1.0424                 1.8472
 Frc consts  --      0.0380                 0.0247                 0.0620
 IR Inten    --      0.1518                 0.0374                 1.3449

                      7                      8                      9
                      A                      A                      A
 Frequencies --    275.5691               320.7028               350.6730
 Red. masses --      2.2054                 2.6348                 2.4168
 Frc consts  --      0.0987                 0.1597                 0.1751
 IR Inten    --      1.5029                 2.4616                 0.1084

                     10                     11                     12
                      A                      A                      A
 Frequencies --    521.4659               523.8838               581.6859
 Red. masses --      5.5073                 3.6525                 2.9465
 Frc consts  --      0.8823                 0.5906                 0.5874
 IR Inten    --      6.6603                 1.2713                 1.0961

                     13                     14                     15
                      A                      A                      A
 Frequencies --    676.9648               741.2036               760.6751
 Red. masses --      4.1042                 6.3332                 1.0662
 Frc consts  --      1.1082                 2.0500                 0.3635
 IR Inten    --      0.4501                 1.7643                 0.7341

                     16                     17                     18
                      A                      A                      A
 Frequencies --    792.9099               864.5339               890.8944
 Red. masses --      3.1136                 4.0489                 1.2685
 Frc consts  --      1.1534                 1.7830                 0.5932
 IR Inten    --      5.0401                60.8946                 0.1559

                     19                     20                     21
                      A                      A                      A
 Frequencies --    963.2868               963.4316               994.5182
 Red. masses --      2.9338                 1.3929                 2.6731
 Frc consts  --      1.6040                 0.7618                 1.5577
 IR Inten    --      9.2652                 1.7314                14.7854

                     22                     23                     24
                      A                      A                      A
 Frequencies --    995.9831              1036.9967              1050.0076
 Red. masses --      1.8980                 1.6828                 1.4073
 Frc consts  --      1.1093                 1.0662                 0.9142
 IR Inten    --      2.1794                 3.8227                19.8762

                     25                     26                     27
                      A                      A                      A
 Frequencies --   1071.2983              1077.9700              1183.0970
 Red. masses --      3.2799                 1.5445                 1.2698
 Frc consts  --      2.2179                 1.0574                 1.0472
 IR Inten    --    116.1811                 0.0861                 0.0639

                     28                     29                     30
                      A                      A                      A
 Frequencies --   1193.8550              1212.2158              1229.0859
 Red. masses --      2.2604                 4.2829                 2.9310
 Frc consts  --      1.8982                 3.7081                 2.6088
 IR Inten    --     36.1275                 0.0000                63.0383

                     31                     32                     33
                      A                      A                      A
 Frequencies --   1305.4050              1386.4671              1401.1651
 Red. masses --      3.6508                 2.1201                 1.2293
 Frc consts  --      3.6655                 2.4012                 1.4220
 IR Inten    --     23.5740                12.3781                 2.9238

                     34                     35                     36
                      A                      A                      A
 Frequencies --   1424.0537              1450.7104              1481.6853
 Red. masses --      1.2373                 1.0896                 1.0441
 Frc consts  --      1.4783                 1.3511                 1.3506
 IR Inten    --      6.2359                 3.0421                 0.0003

                     37                     38                     39
                      A                      A                      A
 Frequencies --   1483.9253              1497.9973              1503.1014
 Red. masses --      1.0473                 1.2978                 1.0701
 Frc consts  --      1.3588                 1.7159                 1.4245
 IR Inten    --      3.5387                 3.4290                 5.6059

                     40                     41                     42
                      A                      A                      A
 Frequencies --   1510.7668              1935.7131              3034.5717
 Red. masses --      1.3753                12.8539                 1.0354
 Frc consts  --      1.8495                28.3771                 5.6175
 IR Inten    --     33.5713               417.8767                14.8039

                     43                     44                     45
                      A                      A                      A
 Frequencies --   3037.8819              3104.0027              3107.1659
 Red. masses --      1.0359                 1.1008                 1.1002
 Frc consts  --      5.6326                 6.2487                 6.2581
 IR Inten    --     17.3563                 3.3233                26.4049

                     46                     47                     48
                      A                      A                      A
 Frequencies --   3117.9616              3120.1307              3131.6223
 Red. masses --      1.1024                 1.1022                 1.0510
 Frc consts  --      6.3141                 6.3220                 6.0727
 IR Inten    --      8.0240                22.9015                 9.7917

                     49                     50                     51
                      A                      A                      A
 Frequencies --   3133.3923              3215.1974              3228.1502
 Red. masses --      1.0583                 1.1181                 1.1152
 Frc consts  --      6.1222                 6.8098                 6.8472
 IR Inten    --      3.9936                 0.1539                 5.4407

 - Thermochemistry -
 -------------------
 Temperature   298.150 Kelvin.  Pressure   1.00000 Atm.
 Atom     1 has atomic number  6 and mass  12.00000

 Molecular mass:   126.06808 amu.
 Principal axes and moments of inertia in atomic units:
                           1         2         3
     Eigenvalues --   770.147361173.706591404.06677
           X            0.99735  -0.07273   0.00000
           Y            0.07273   0.99735   0.00000
           Z            0.00000   0.00000   1.00000
 This molecule is an asymmetric top.
 Rotational symmetry number  1.
 Warning -- assumption of classical behavior for rotation
           may cause significant error
 Rotational temperatures (Kelvin)      0.11246     0.07380     0.06169
 Rotational constants (GHZ):           2.34337     1.53764     1.28537
 Zero-point vibrational energy     412579.6 (Joules/Mol)
                                   98.60888 (Kcal/Mol)
 Warning -- explicit consideration of  12 degrees of freedom as
           vibrations may cause significant error
 Vibrational temperatures:    134.14   250.52   274.38   283.05   288.52
          (Kelvin)            343.32   396.48   461.42   504.54   750.27
                              753.75   836.92   974.00  1066.43  1094.44
                             1140.82  1243.87  1281.80  1385.95  1386.16
                             1430.89  1433.00  1492.01  1510.72  1541.36
                             1550.96  1702.21  1717.69  1744.11  1768.38
                             1878.18  1994.81  2015.96  2048.89  2087.25
                             2131.81  2135.03  2155.28  2162.62  2173.65
                             2785.06  4366.07  4370.83  4465.96  4470.51
                             4486.05  4489.17  4505.70  4508.25  4625.95
                             4644.58

 Zero-point correction=                           0.157143 (Hartree/Particle)
 Thermal correction to Energy=                    0.166239
 Thermal correction to Enthalpy=                  0.167183
 Thermal correction to Gibbs Free Energy=         0.123735
 Sum of electronic and zero-point Energies=           -423.047494
 Sum of electronic and thermal Energies=              -423.038399
 Sum of electronic and thermal Enthalpies=            -423.037454
 Sum of electronic and thermal Free Energies=         -423.080903

                     E (Thermal)             CV                S
                      KCal/Mol        Cal/Mol-Kelvin    Cal/Mol-Kelvin
 Total                  104.317             34.200             91.445
 Electronic               0.000              0.000              0.000
 Translational            0.889              2.981             40.409
 Rotational               0.889              2.981             28.630
 Vibrational            102.539             28.238             22.406
 Vibration     1          0.602              1.954              3.591
 Vibration     2          0.627              1.874              2.391
 Vibration     3          0.634              1.853              2.221
 Vibration     4          0.636              1.844              2.163
 Vibration     5          0.638              1.839              2.128
 Vibration     6          0.657              1.781              1.813
 Vibration     7          0.677              1.719              1.561
 Vibration     8          0.706              1.634              1.307
 Vibration     9          0.728              1.574              1.163
 Vibration    10          0.876              1.202              0.607
 Vibration    11          0.879              1.197              0.601
 Vibration    12          0.938              1.071              0.482

 Optimization completed.
    -- Stationary point found.
 Normal termination of Gaussian 09 at Mon Jan 27 16:43:13 2020.
