 Gaussian 09, Revision D.01,
 Gaussian 09:  ES64L-G09RevD.01 24-Apr-2013

 -----------------------------
 # b3lyp 6-31G(2df,p) opt Freq
 -----------------------------

 -----
 titel
 -----
 Symbolic Z-matrix:
 Charge =  0 Multiplicity = 1

 SCF Done:  E(RB3LYP) =  -423.181312404     A.U. after   14 cycles
 Optimization completed.
    -- Stationary point found.
 Normal termination of Gaussian 09 at Tue Jan 28 01:52:03 2020.

 ----------------------------------------------------------------------
 #N Geom=AllCheck Guess=TCheck SCRF=Check GenChk RB3LYP/6-31G(2df,p) Fr
 eq
 ----------------------------------------------------------------------

 Structure from the checkpoint file:  "/scratch/puck/g09_0f1c5c15-9a01-4ce1-9cdb-502ad55ec6e6/Gau-110867.chk"
 -----
 titel
 -----
 Charge =  0 Multiplicity = 1

                         Standard orientation:
 ---------------------------------------------------------------------
 Center     Atomic      Atomic             Coordinates (Angstroms)
 Number     Number       Type             X           Y           Z
 ---------------------------------------------------------------------
      1          6           0       -2.542115   -0.121674   -0.773356
      2          6           0       -1.439036   -0.875636   -0.065817
      3          6           0       -0.984126   -0.465236    1.294843
      4          6           0       -0.079864   -0.223661    0.098496
      5          6           0        0.433317    1.133022   -0.396532
      6          8           0        0.197921    2.171706    0.528503
      7          6           0        1.882381    0.535260   -0.455159
      8          6           0        1.271237   -0.835759   -0.092910
      9          8           0        1.700152   -1.954617   -0.021933
     10          1           0       -2.460414   -0.219879   -1.861206
     11          1           0       -3.524617   -0.503786   -0.476427
     12          1           0       -2.509432    0.943981   -0.525662
     13          1           0       -1.383355   -1.939948   -0.282421
     14          1           0       -1.414074    0.427781    1.736182
     15          1           0       -0.663027   -1.226609    1.997495
     16          1           0        0.050622    1.397102   -1.391672
     17          1           0        0.533064    2.992446    0.153783
     18          1           0        2.418650    0.588202   -1.406133
     19          1           0        2.517237    0.926107    0.346109
 ---------------------------------------------------------------------

 SCF Done:  E(RB3LYP) =  -423.181312404     A.U. after    1 cycles

 The electronic state is 1-A.
 Alpha  occ. eigenvalues --  -19.14807 -19.12593 -10.26101 -10.24466 -10.20448
 Alpha  occ. eigenvalues --  -10.19603 -10.19573 -10.18695 -10.18518  -1.03611
 Alpha  occ. eigenvalues --   -1.02929  -0.88032  -0.80727  -0.71582  -0.64041
 Alpha  occ. eigenvalues --   -0.61451  -0.58350  -0.52231  -0.51411  -0.47717
 Alpha  occ. eigenvalues --   -0.46740  -0.43937  -0.42123  -0.41623  -0.40033
 Alpha  occ. eigenvalues --   -0.39643  -0.37494  -0.36671  -0.35856  -0.33810
 Alpha  occ. eigenvalues --   -0.30274  -0.28928  -0.26846  -0.23347
 Alpha virt. eigenvalues --   -0.01685   0.06605   0.09851   0.11487   0.11891
 Alpha virt. eigenvalues --    0.13053   0.14565   0.15132   0.15737   0.16891
 Alpha virt. eigenvalues --    0.17619   0.18290   0.19631   0.20716   0.23141

 Mulliken charges:
               1
     1  C   -0.413036
     2  C   -0.064551
     3  C   -0.325054
     4  C    0.230846
     5  C    0.005800
     6  O   -0.431873
     7  C   -0.391701
     8  C    0.342414
     9  O   -0.320915
    10  H    0.120823
    11  H    0.125268
    12  H    0.129493
    13  H    0.105545
    14  H    0.137050
    15  H    0.131253
    16  H    0.074299
    17  H    0.287503
    18  H    0.122384
    19  H    0.134451
 Sum of Mulliken charges =   0.00000

 Dipole moment (field-independent basis, Debye):
    X=             -1.1814    Y=              2.8543    Z=             -1.0763  Tot=              3.2713
 Quadrupole moment (field-independent basis, Debye-Ang):
   XX=            -53.7229   YY=            -54.0417   ZZ=            -51.9546
   XY=              7.4764   XZ=             -0.3511   YZ=             -2.5624

  Exact polarizability:  89.160   1.606  78.353  -2.724  -2.050  66.607
 Approx polarizability: 119.903  -2.759 118.895  -5.665  -1.086 101.371

                      1                      2                      3
                      A                      A                      A
 Frequencies --     61.5487               110.5760               147.3841
 Red. masses --      3.3568                 3.8305                 3.2351
 Frc consts  --      0.0075                 0.0276                 0.0414
 IR Inten    --      3.2655                 2.1054                 1.3257

                      4                      5                      6
                      A                      A                      A
 Frequencies --    176.9553               229.1966               272.3730
 Red. masses --      2.2888                 1.2588                 2.8737
 Frc consts  --      0.0422                 0.0390                 0.1256
 IR Inten    --      1.0996                 0.7156                12.7634

                      7                      8                      9
                      A                      A                      A
 Frequencies --    285.6302               366.5353               397.8138
 Red. masses --      1.2932                 2.4969                 2.7924
 Frc consts  --      0.0622                 0.1976                 0.2604
 IR Inten    --     87.6588                 5.1579                 5.2022

                     10                     11                     12
                      A                      A                      A
 Frequencies --    491.2441               508.0935               558.7853
 Red. masses --      3.8757                 1.9691                 3.1424
 Frc consts  --      0.5511                 0.2995                 0.5781
 IR Inten    --      3.3641                 0.6553                 2.3797

                     13                     14                     15
                      A                      A                      A
 Frequencies --    606.8703               697.8609               758.7997
 Red. masses --      3.9987                 3.4354                 3.0428
 Frc consts  --      0.8677                 0.9858                 1.0322
 IR Inten    --      0.4862                 3.2730                 4.5446

                     16                     17                     18
                      A                      A                      A
 Frequencies --    809.8303               890.3549               906.7085
 Red. masses --      1.9728                 1.6348                 2.1614
 Frc consts  --      0.7623                 0.7636                 1.0469
 IR Inten    --      1.3511                 6.9077                 7.7095

                     19                     20                     21
                      A                      A                      A
 Frequencies --    922.4673               981.8254              1002.5218
 Red. masses --      2.0763                 1.8507                 2.1145
 Frc consts  --      1.0410                 1.0511                 1.2521
 IR Inten    --     19.9668                13.4456                17.9125

                     22                     23                     24
                      A                      A                      A
 Frequencies --   1032.8357              1061.7829              1092.6538
 Red. masses --      2.4548                 1.3922                 2.0088
 Frc consts  --      1.5429                 0.9248                 1.4130
 IR Inten    --     15.9774                14.2784                26.3959

                     25                     26                     27
                      A                      A                      A
 Frequencies --   1109.2126              1126.7622              1151.9060
 Red. masses --      2.4281                 1.7714                 2.0242
 Frc consts  --      1.7601                 1.3251                 1.5824
 IR Inten    --     87.8445                 4.2201                41.6752

                     28                     29                     30
                      A                      A                      A
 Frequencies --   1173.8757              1190.0602              1212.0802
 Red. masses --      1.5235                 1.5919                 1.2398
 Frc consts  --      1.2369                 1.3283                 1.0731
 IR Inten    --      5.1493                 0.8069                45.8912

                     31                     32                     33
                      A                      A                      A
 Frequencies --   1243.0751              1277.7722              1336.6488
 Red. masses --      2.1523                 1.5063                 1.5502
 Frc consts  --      1.9595                 1.4490                 1.6318
 IR Inten    --     26.9903                32.7172                41.1248

                     34                     35                     36
                      A                      A                      A
 Frequencies --   1403.3912              1415.1930              1423.7560
 Red. masses --      1.3600                 1.2420                 1.3980
 Frc consts  --      1.5781                 1.4655                 1.6697
 IR Inten    --     14.9304                18.5068                16.1229

                     37                     38                     39
                      A                      A                      A
 Frequencies --   1442.5429              1480.7713              1495.3486
 Red. masses --      1.4488                 1.3578                 1.0516
 Frc consts  --      1.7762                 1.7542                 1.3854
 IR Inten    --     12.6006                10.8895                 3.1509

                     40                     41                     42
                      A                      A                      A
 Frequencies --   1503.3608              1875.9801              3006.0665
 Red. masses --      1.1590                12.6521                 1.0845
 Frc consts  --      1.5434                26.2342                 5.7740
 IR Inten    --      9.5959               279.3046                42.0318

                     43                     44                     45
                      A                      A                      A
 Frequencies --   3031.3005              3058.6044              3094.3912
 Red. masses --      1.0353                 1.0584                 1.1013
 Frc consts  --      5.6048                 5.8335                 6.2131
 IR Inten    --     30.5578                 7.3669                21.0241

                     46                     47                     48
                      A                      A                      A
 Frequencies --   3104.1175              3120.3850              3133.2229
 Red. masses --      1.0999                 1.1063                 1.0531
 Frc consts  --      6.2442                 6.3468                 6.0913
 IR Inten    --     12.5578                10.3459                 7.8954

                     49                     50                     51
                      A                      A                      A
 Frequencies --   3141.6357              3226.2246              3818.2305
 Red. masses --      1.0889                 1.1175                 1.0662
 Frc consts  --      6.3321                 6.8532                 9.1579
 IR Inten    --     14.9666                 2.6160                25.5155

 - Thermochemistry -
 -------------------
 Temperature   298.150 Kelvin.  Pressure   1.00000 Atm.
 Atom     1 has atomic number  6 and mass  12.00000

 Molecular mass:   126.06808 amu.
 Principal axes and moments of inertia in atomic units:
                           1         2         3
     Eigenvalues --   878.032491139.802501649.68573
           X            0.99386   0.11042   0.00734
           Y           -0.11025   0.99369  -0.02056
           Z           -0.00956   0.01963   0.99976
 This molecule is an asymmetric top.
 Rotational symmetry number  1.
 Warning -- assumption of classical behavior for rotation
           may cause significant error
 Rotational temperatures (Kelvin)      0.09865     0.07599     0.05250
 Rotational constants (GHZ):           2.05544     1.58338     1.09399
 Zero-point vibrational energy     412511.7 (Joules/Mol)
                                   98.59265 (Kcal/Mol)
 Warning -- explicit consideration of  13 degrees of freedom as
           vibrations may cause significant error
 Vibrational temperatures:     88.55   159.09   212.05   254.60   329.76
          (Kelvin)            391.88   410.96   527.36   572.36   706.79
                              731.03   803.97   873.15  1004.06  1091.74
                             1165.16  1281.02  1304.55  1327.22  1412.63
                             1442.40  1486.02  1527.67  1572.08  1595.91
                             1621.16  1657.33  1688.94  1712.23  1743.91
                             1788.51  1838.43  1923.14  2019.16  2036.14
                             2048.46  2075.49  2130.50  2151.47  2163.00
                             2699.11  4325.05  4361.36  4400.64  4452.13
                             4466.13  4489.53  4508.00  4520.11  4641.81
                             5493.58

 Zero-point correction=                           0.157117 (Hartree/Particle)
 Thermal correction to Energy=                    0.166376
 Thermal correction to Enthalpy=                  0.167320
 Thermal correction to Gibbs Free Energy=         0.122940
 Sum of electronic and zero-point Energies=           -423.024195
 Sum of electronic and thermal Energies=              -423.014937
 Sum of electronic and thermal Enthalpies=            -423.013993
 Sum of electronic and thermal Free Energies=         -423.058373

                     E (Thermal)             CV                S
                      KCal/Mol        Cal/Mol-Kelvin    Cal/Mol-Kelvin
 Total                  104.402             34.419             93.406
 Electronic               0.000              0.000              0.000
 Translational            0.889              2.981             40.409
 Rotational               0.889              2.981             28.892
 Vibrational            102.625             28.458             24.106
 Vibration     1          0.597              1.973              4.407
 Vibration     2          0.606              1.941              3.259
 Vibration     3          0.617              1.906              2.706
 Vibration     4          0.628              1.871              2.360
 Vibration     5          0.652              1.796              1.885
 Vibration     6          0.675              1.724              1.581
 Vibration     7          0.683              1.700              1.500
 Vibration     8          0.739              1.541              1.094
 Vibration     9          0.764              1.475              0.971
 Vibration    10          0.847              1.269              0.680
 Vibration    11          0.863              1.232              0.638
 Vibration    12          0.914              1.121              0.526
 Vibration    13          0.966              1.017              0.438

 Normal termination of Gaussian 09 at Tue Jan 28 02:32:29 2020.
