 Gaussian 09, Revision D.01,
 Gaussian 09:  ES64L-G09RevD.01 24-Apr-2013

 -----------------------------
 # b3lyp 6-31G(2df,p) opt Freq
 -----------------------------

 -----
 titel
 -----
 Symbolic Z-matrix:
 Charge =  0 Multiplicity = 1

 SCF Done:  E(RB3LYP) =  -423.154797994     A.U. after   13 cycles
 Optimization completed.
    -- Stationary point found.
 Normal termination of Gaussian 09 at Mon Jan 27 18:25:45 2020.

 ----------------------------------------------------------------------
 #N Geom=AllCheck Guess=TCheck SCRF=Check GenChk RB3LYP/6-31G(2df,p) Fr
 eq
 ----------------------------------------------------------------------

 Structure from the checkpoint file:  "/scratch/puck/g09_17617919-7608-480b-b760-32f553d92780/Gau-4470.chk"
 -----
 titel
 -----
 Charge =  0 Multiplicity = 1

                         Standard orientation:
 ---------------------------------------------------------------------
 Center     Atomic      Atomic             Coordinates (Angstroms)
 Number     Number       Type             X           Y           Z
 ---------------------------------------------------------------------
      1          8           0        2.614242    0.254258   -0.242538
      2          6           0        1.251595    0.026825   -0.143274
      3          6           0        0.537247   -1.141130   -0.819623
      4          6           0       -0.413437   -1.217532    0.431374
      5          8           0       -1.763293   -0.834427    0.256081
      6          6           0       -1.928981    0.319268   -0.554732
      7          6           0       -1.057356    1.510415   -0.118710
      8          6           0        0.317620    1.099471    0.385550
      9          6           0        0.478694   -0.189964    1.151636
     10          1           0        2.771318    0.837018   -0.993476
     11          1           0        0.100154   -1.001093   -1.811984
     12          1           0        1.189525   -2.017931   -0.843980
     13          1           0       -0.444190   -2.203363    0.895817
     14          1           0       -1.726654    0.070693   -1.606246
     15          1           0       -2.988693    0.579750   -0.485651
     16          1           0       -0.985121    2.221240   -0.951301
     17          1           0       -1.557140    2.038399    0.703148
     18          1           0        0.895907    1.914087    0.815974
     19          1           0        0.825015   -0.241561    2.176028
 ---------------------------------------------------------------------

 SCF Done:  E(RB3LYP) =  -423.154797994     A.U. after    1 cycles

 The electronic state is 1-A.
 Alpha  occ. eigenvalues --  -19.14738 -19.13356 -10.24008 -10.23246 -10.22414
 Alpha  occ. eigenvalues --  -10.19251 -10.18474 -10.18070 -10.17997  -1.03575
 Alpha  occ. eigenvalues --   -1.02666  -0.88209  -0.77465  -0.70731  -0.66400
 Alpha  occ. eigenvalues --   -0.61942  -0.56666  -0.53023  -0.52624  -0.48213
 Alpha  occ. eigenvalues --   -0.46520  -0.44518  -0.43579  -0.40799  -0.40574
 Alpha  occ. eigenvalues --   -0.38965  -0.38190  -0.35655  -0.33922  -0.31997
 Alpha  occ. eigenvalues --   -0.30103  -0.25348  -0.24750  -0.24081
 Alpha virt. eigenvalues --    0.07634   0.08942   0.10042   0.11434   0.12828
 Alpha virt. eigenvalues --    0.14207   0.14721   0.15114   0.16213   0.17794
 Alpha virt. eigenvalues --    0.19000   0.20643   0.21273   0.21616   0.22898

 Mulliken charges:
               1
     1  O   -0.459064
     2  C    0.371654
     3  C   -0.349319
     4  C    0.107907
     5  O   -0.262405
     6  C   -0.076333
     7  C   -0.245302
     8  C   -0.100122
     9  C   -0.143578
    10  H    0.284889
    11  H    0.093540
    12  H    0.110481
    13  H    0.088594
    14  H    0.092746
    15  H    0.106062
    16  H    0.094588
    17  H    0.107716
    18  H    0.088847
    19  H    0.089099
 Sum of Mulliken charges =   0.00000

 Dipole moment (field-independent basis, Debye):
    X=              0.3161    Y=              1.4105    Z=             -1.2532  Tot=              1.9131
 Quadrupole moment (field-independent basis, Debye-Ang):
   XX=            -57.5312   YY=            -50.8033   ZZ=            -50.5658
   XY=             -0.6688   XZ=             -1.1969   YZ=             -1.4101

  Exact polarizability:  78.710  -2.849  74.704   0.142  -0.614  68.039
 Approx polarizability: 110.044  -2.092 107.927  -3.063  -3.632 106.451

                      1                      2                      3
                      A                      A                      A
 Frequencies --    161.3114               209.0567               279.8359
 Red. masses --      2.5843                 1.5615                 1.5520
 Frc consts  --      0.0396                 0.0402                 0.0716
 IR Inten    --      1.6420                35.9798                60.6164

                      4                      5                      6
                      A                      A                      A
 Frequencies --    316.1679               336.7530               418.9245
 Red. masses --      2.9764                 4.6710                 3.5469
 Frc consts  --      0.1753                 0.3121                 0.3668
 IR Inten    --      2.4868                 9.2013                 5.0724

                      7                      8                      9
                      A                      A                      A
 Frequencies --    438.9044               515.1684               533.4154
 Red. masses --      3.3957                 3.4742                 2.9651
 Frc consts  --      0.3854                 0.5433                 0.4971
 IR Inten    --      0.8732                 0.9193                 4.1023

                     10                     11                     12
                      A                      A                      A
 Frequencies --    631.1877               672.5889               726.1837
 Red. masses --      3.2675                 2.1383                 3.4055
 Frc consts  --      0.7670                 0.5699                 1.0581
 IR Inten    --      1.8126                 1.3395                 4.1063

                     13                     14                     15
                      A                      A                      A
 Frequencies --    799.0718               831.2159               882.3670
 Red. masses --      2.8005                 2.5340                 2.7561
 Frc consts  --      1.0536                 1.0315                 1.2643
 IR Inten    --     14.0429                 9.6244                 6.6294

                     16                     17                     18
                      A                      A                      A
 Frequencies --    918.1805               931.8467               945.4386
 Red. masses --      2.1777                 1.9123                 1.9114
 Frc consts  --      1.0817                 0.9783                 1.0066
 IR Inten    --     12.7382                12.2607                 8.8263

                     19                     20                     21
                      A                      A                      A
 Frequencies --    978.3662               999.2208              1015.1585
 Red. masses --      2.3800                 1.9156                 1.6001
 Frc consts  --      1.3423                 1.1269                 0.9715
 IR Inten    --     10.8910                27.5925                 5.0477

                     22                     23                     24
                      A                      A                      A
 Frequencies --   1048.0559              1085.8871              1114.7171
 Red. masses --      1.7347                 1.8220                 2.6378
 Frc consts  --      1.1226                 1.2658                 1.9311
 IR Inten    --     19.3216                 9.2213                20.7494

                     25                     26                     27
                      A                      A                      A
 Frequencies --   1133.1038              1171.0809              1207.4169
 Red. masses --      1.8589                 2.5765                 1.8029
 Frc consts  --      1.4062                 2.0819                 1.5486
 IR Inten    --      5.3294                80.2422                54.0318

                     28                     29                     30
                      A                      A                      A
 Frequencies --   1213.5127              1223.0415              1260.0758
 Red. masses --      1.5201                 1.8332                 1.2550
 Frc consts  --      1.3189                 1.6157                 1.1740
 IR Inten    --      0.2116                26.8375                10.3584

                     31                     32                     33
                      A                      A                      A
 Frequencies --   1285.3186              1306.3978              1309.3267
 Red. masses --      1.3477                 1.7377                 1.6671
 Frc consts  --      1.3118                 1.7474                 1.6839
 IR Inten    --      2.3530               105.3232                18.4229

                     34                     35                     36
                      A                      A                      A
 Frequencies --   1328.9446              1372.8466              1375.6655
 Red. masses --      1.6101                 1.2965                 1.4619
 Frc consts  --      1.6754                 1.4397                 1.6300
 IR Inten    --     10.6264                 7.4061                 6.7932

                     37                     38                     39
                      A                      A                      A
 Frequencies --   1420.0553              1460.0307              1486.8338
 Red. masses --      1.3379                 1.8369                 1.0952
 Frc consts  --      1.5896                 2.3071                 1.4265
 IR Inten    --      5.2700                15.1069                 1.4997

                     40                     41                     42
                      A                      A                      A
 Frequencies --   1498.9190              1524.7678              2999.6709
 Red. masses --      1.3450                 1.1030                 1.0710
 Frc consts  --      1.7805                 1.5109                 5.6781
 IR Inten    --      4.8329                 1.3945                32.3545

                     43                     44                     45
                      A                      A                      A
 Frequencies --   3019.1025              3054.5883              3059.3778
 Red. masses --      1.0593                 1.0947                 1.0632
 Frc consts  --      5.6890                 6.0177                 5.8632
 IR Inten    --     39.0783                15.2265                62.6360

                     46                     47                     48
                      A                      A                      A
 Frequencies --   3086.0766              3102.3305              3112.8487
 Red. masses --      1.0948                 1.0989                 1.0968
 Frc consts  --      6.1431                 6.2313                 6.2617
 IR Inten    --     47.0685                13.9657                40.8531

                     49                     50                     51
                      A                      A                      A
 Frequencies --   3136.4135              3193.6009              3796.0468
 Red. masses --      1.0865                 1.0943                 1.0661
 Frc consts  --      6.2974                 6.5756                 9.0515
 IR Inten    --     14.2487                12.2494                21.8613

 - Thermochemistry -
 -------------------
 Temperature   298.150 Kelvin.  Pressure   1.00000 Atm.
 Atom     1 has atomic number  8 and mass  15.99491

 Molecular mass:   126.06808 amu.
 Principal axes and moments of inertia in atomic units:
                           1         2         3
     Eigenvalues --   580.182411147.667811373.95627
           X            0.99947  -0.03090   0.01000
           Y            0.03081   0.99948   0.00915
           Z           -0.01027  -0.00884   0.99991
 This molecule is an asymmetric top.
 Rotational symmetry number  1.
 Warning -- assumption of classical behavior for rotation
           may cause significant error
 Rotational temperatures (Kelvin)      0.14929     0.07547     0.06304
 Rotational constants (GHZ):           3.11064     1.57253     1.31354
 Zero-point vibrational energy     424234.2 (Joules/Mol)
                                  101.39440 (Kcal/Mol)
 Warning -- explicit consideration of   9 degrees of freedom as
           vibrations may cause significant error
 Vibrational temperatures:    232.09   300.79   402.62   454.89   484.51
          (Kelvin)            602.74   631.48   741.21   767.46   908.14
                              967.70  1044.82  1149.68  1195.93  1269.53
                             1321.06  1340.72  1360.27  1407.65  1437.65
                             1460.58  1507.92  1562.35  1603.83  1630.28
                             1684.92  1737.20  1745.97  1759.68  1812.97
                             1849.28  1879.61  1883.83  1912.05  1975.22
                             1979.27  2043.14  2100.66  2139.22  2156.61
                             2193.80  4315.85  4343.81  4394.87  4401.76
                             4440.17  4463.56  4478.69  4512.59  4594.87
                             5461.66

 Zero-point correction=                           0.161582 (Hartree/Particle)
 Thermal correction to Energy=                    0.168887
 Thermal correction to Enthalpy=                  0.169832
 Thermal correction to Gibbs Free Energy=         0.130304
 Sum of electronic and zero-point Energies=           -422.993216
 Sum of electronic and thermal Energies=              -422.985911
 Sum of electronic and thermal Enthalpies=            -422.984966
 Sum of electronic and thermal Free Energies=         -423.024494

                     E (Thermal)             CV                S
                      KCal/Mol        Cal/Mol-Kelvin    Cal/Mol-Kelvin
 Total                  105.978             30.101             83.192
 Electronic               0.000              0.000              0.000
 Translational            0.889              2.981             40.409
 Rotational               0.889              2.981             28.305
 Vibrational            104.201             24.139             14.478
 Vibration     1          0.622              1.890              2.534
 Vibration     2          0.642              1.827              2.052
 Vibration     3          0.680              1.711              1.535
 Vibration     4          0.703              1.643              1.330
 Vibration     5          0.717              1.602              1.227
 Vibration     6          0.782              1.429              0.896
 Vibration     7          0.799              1.385              0.830
 Vibration     8          0.870              1.216              0.621
 Vibration     9          0.888              1.176              0.580

 Optimization completed.
    -- Stationary point found.
 Normal termination of Gaussian 09 at Mon Jan 27 19:15:01 2020.
