 Gaussian 09, Revision D.01,
 Gaussian 09:  ES64L-G09RevD.01 24-Apr-2013

 -----------------------------
 # b3lyp 6-31G(2df,p) opt Freq
 -----------------------------

 -----
 titel
 -----
 Symbolic Z-matrix:
 Charge =  0 Multiplicity = 1

 SCF Done:  E(RB3LYP) =  -423.208481368     A.U. after   14 cycles
 Optimization completed.
    -- Stationary point found.
 Normal termination of Gaussian 09 at Tue Jan 28 00:36:49 2020.

 ----------------------------------------------------------------------
 #N Geom=AllCheck Guess=TCheck SCRF=Check GenChk RB3LYP/6-31G(2df,p) Fr
 eq
 ----------------------------------------------------------------------

 Structure from the checkpoint file:  "/scratch/puck/g09_50551e9c-02f4-4f56-bc01-5cca728cf3f2/Gau-166923.chk"
 -----
 titel
 -----
 Charge =  0 Multiplicity = 1

                         Standard orientation:
 ---------------------------------------------------------------------
 Center     Atomic      Atomic             Coordinates (Angstroms)
 Number     Number       Type             X           Y           Z
 ---------------------------------------------------------------------
      1          8           0        2.889525   -0.356017   -0.137009
      2          6           0        1.577708   -0.176219    0.361931
      3          6           0        1.053870    1.203118   -0.047878
      4          6           0       -0.466648    1.053823   -0.046086
      5          8           0       -1.278093    1.947610   -0.010039
      6          6           0       -0.783296   -0.415399   -0.080847
      7          6           0       -2.102557   -0.860307   -0.670792
      8          6           0       -1.928925   -0.880662    0.811743
      9          6           0        0.533413   -1.160989   -0.220458
     10          1           0        3.211480   -1.211811    0.164203
     11          1           0        1.568579   -0.253089    1.460887
     12          1           0        1.387321    2.033501    0.576537
     13          1           0        1.379261    1.406730   -1.077423
     14          1           0       -2.721022   -0.075771   -1.093589
     15          1           0       -2.109149   -1.803057   -1.207202
     16          1           0       -2.430336   -0.112845    1.390465
     17          1           0       -1.803000   -1.836391    1.309558
     18          1           0        0.542298   -2.132671    0.283512
     19          1           0        0.781717   -1.327532   -1.276242
 ---------------------------------------------------------------------

 SCF Done:  E(RB3LYP) =  -423.208481368     A.U. after    1 cycles

 The electronic state is 1-A.
 Alpha  occ. eigenvalues --  -19.14364 -19.12367 -10.26277 -10.24250 -10.20369
 Alpha  occ. eigenvalues --  -10.19886 -10.19591 -10.19109 -10.18661  -1.03504
 Alpha  occ. eigenvalues --   -1.02647  -0.87700  -0.80740  -0.70597  -0.65045
 Alpha  occ. eigenvalues --   -0.61036  -0.58728  -0.53136  -0.51702  -0.48514
 Alpha  occ. eigenvalues --   -0.47215  -0.44984  -0.42421  -0.41276  -0.40574
 Alpha  occ. eigenvalues --   -0.39359  -0.37781  -0.37475  -0.34772  -0.32720
 Alpha  occ. eigenvalues --   -0.31652  -0.28582  -0.27039  -0.23924
 Alpha virt. eigenvalues --   -0.01513   0.06844   0.09007   0.11359   0.11678
 Alpha virt. eigenvalues --    0.11903   0.14567   0.14972   0.15861   0.18191
 Alpha virt. eigenvalues --    0.18824   0.19021   0.20215   0.22645   0.23064

 Mulliken charges:
               1
     1  O   -0.429805
     2  C    0.115213
     3  C   -0.328123
     4  C    0.346402
     5  O   -0.341874
     6  C    0.251481
     7  C   -0.306244
     8  C   -0.293419
     9  C   -0.357387
    10  H    0.283532
    11  H    0.075797
    12  H    0.128929
    13  H    0.140463
    14  H    0.137386
    15  H    0.117645
    16  H    0.136566
    17  H    0.116553
    18  H    0.094941
    19  H    0.111944
 Sum of Mulliken charges =   0.00000

 Dipole moment (field-independent basis, Debye):
    X=              0.9670    Y=             -3.2858    Z=              0.6784  Tot=              3.4916
 Quadrupole moment (field-independent basis, Debye-Ang):
   XX=            -56.2015   YY=            -54.4356   ZZ=            -51.4548
   XY=              0.8692   XZ=              2.2041   YZ=             -0.7183

  Exact polarizability:  87.639   1.202  78.318  -0.510  -0.394  63.081
 Approx polarizability: 117.470  -3.199 117.420  -2.653  -1.320  98.541

                      1                      2                      3
                      A                      A                      A
 Frequencies --     80.0049               117.0283               234.7830
 Red. masses --      3.0715                 3.4706                 2.5696
 Frc consts  --      0.0116                 0.0280                 0.0835
 IR Inten    --      0.3393                 2.4512                 5.1217

                      4                      5                      6
                      A                      A                      A
 Frequencies --    236.4016               287.9572               320.8246
 Red. masses --      2.9625                 1.2141                 4.0802
 Frc consts  --      0.0975                 0.0593                 0.2474
 IR Inten    --      2.3498                77.7992                33.4951

                      7                      8                      9
                      A                      A                      A
 Frequencies --    341.3607               437.8361               467.9808
 Red. masses --      2.5570                 3.2944                 2.3852
 Frc consts  --      0.1756                 0.3721                 0.3078
 IR Inten    --      0.8232                18.0329                 1.4383

                     10                     11                     12
                      A                      A                      A
 Frequencies --    501.0052               577.3695               634.1202
 Red. masses --      3.3487                 3.4847                 3.2347
 Frc consts  --      0.4952                 0.6844                 0.7664
 IR Inten    --      1.8133                 5.0556                 3.9571

                     13                     14                     15
                      A                      A                      A
 Frequencies --    702.7152               791.5756               820.9126
 Red. masses --      3.5325                 1.0689                 3.0470
 Frc consts  --      1.0277                 0.3946                 1.2098
 IR Inten    --      3.6825                 0.0311                 6.6968

                     16                     17                     18
                      A                      A                      A
 Frequencies --    866.8562               893.2790               920.9997
 Red. masses --      2.8381                 2.2606                 1.8775
 Frc consts  --      1.2565                 1.0628                 0.9383
 IR Inten    --     11.6032                 3.1142                 0.7478

                     19                     20                     21
                      A                      A                      A
 Frequencies --    934.4192               990.1462              1031.4722
 Red. masses --      1.2611                 2.1053                 1.9545
 Frc consts  --      0.6488                 1.2161                 1.2252
 IR Inten    --      0.4296                 4.5080                11.5280

                     22                     23                     24
                      A                      A                      A
 Frequencies --   1046.6441              1065.2416              1088.6158
 Red. masses --      2.6990                 1.3290                 1.3305
 Frc consts  --      1.7420                 0.8885                 0.9290
 IR Inten    --     31.5300                 2.0819                 3.3327

                     25                     26                     27
                      A                      A                      A
 Frequencies --   1102.9611              1121.0800              1153.0959
 Red. masses --      3.4302                 2.6485                 1.5790
 Frc consts  --      2.4586                 1.9612                 1.2370
 IR Inten    --     77.4853                49.1428                20.5792

                     28                     29                     30
                      A                      A                      A
 Frequencies --   1197.1533              1203.8492              1253.5838
 Red. masses --      1.3636                 1.3007                 1.3997
 Frc consts  --      1.1514                 1.1107                 1.2959
 IR Inten    --     20.1566                 3.1032                 4.6316

                     31                     32                     33
                      A                      A                      A
 Frequencies --   1265.1904              1283.1169              1301.3363
 Red. masses --      1.7538                 1.2147                 2.4138
 Frc consts  --      1.6541                 1.1783                 2.4084
 IR Inten    --     22.7939                62.0775                10.3315

                     34                     35                     36
                      A                      A                      A
 Frequencies --   1356.8485              1371.7975              1433.8020
 Red. masses --      2.0689                 1.6407                 1.4079
 Frc consts  --      2.2442                 1.8191                 1.7053
 IR Inten    --      6.7358                75.8715                 5.7470

                     37                     38                     39
                      A                      A                      A
 Frequencies --   1452.4037              1453.8111              1485.0899
 Red. masses --      1.0894                 1.1611                 1.3886
 Frc consts  --      1.3540                 1.4459                 1.8044
 IR Inten    --      2.5152                12.8921                 4.3618

                     40                     41                     42
                      A                      A                      A
 Frequencies --   1499.9356              1828.0966              2972.5801
 Red. masses --      1.0976                12.2453                 1.0833
 Frc consts  --      1.4549                24.1111                 5.6401
 IR Inten    --      2.6030               179.4448                40.9075

                     43                     44                     45
                      A                      A                      A
 Frequencies --   3028.2660              3034.0873              3079.5803
 Red. masses --      1.0615                 1.0667                 1.1033
 Frc consts  --      5.7351                 5.7855                 6.1647
 IR Inten    --     25.1080                 7.3597                26.2346

                     46                     47                     48
                      A                      A                      A
 Frequencies --   3123.0244              3130.9115              3132.7022
 Red. masses --      1.0949                 1.0497                 1.0569
 Frc consts  --      6.2916                 6.0625                 6.1113
 IR Inten    --      9.9650                14.0131                10.5317

                     49                     50                     51
                      A                      A                      A
 Frequencies --   3217.6799              3232.0997              3813.9378
 Red. masses --      1.1188                 1.1169                 1.0661
 Frc consts  --      6.8245                 6.8747                 9.1372
 IR Inten    --      0.0991                 5.7751                17.8397

 - Thermochemistry -
 -------------------
 Temperature   298.150 Kelvin.  Pressure   1.00000 Atm.
 Atom     1 has atomic number  8 and mass  15.99491

 Molecular mass:   126.06808 amu.
 Principal axes and moments of inertia in atomic units:
                           1         2         3
     Eigenvalues --   636.438141359.128561798.11692
           X            0.99958   0.02876   0.00324
           Y           -0.02876   0.99959  -0.00103
           Z           -0.00327   0.00093   0.99999
 This molecule is an asymmetric top.
 Rotational symmetry number  1.
 Warning -- assumption of classical behavior for rotation
           may cause significant error
 Rotational temperatures (Kelvin)      0.13609     0.06373     0.04817
 Rotational constants (GHZ):           2.83569     1.32787     1.00368
 Zero-point vibrational energy     418199.9 (Joules/Mol)
                                   99.95218 (Kcal/Mol)
 Warning -- explicit consideration of  11 degrees of freedom as
           vibrations may cause significant error
 Vibrational temperatures:    115.11   168.38   337.80   340.13   414.31
          (Kelvin)            461.59   491.14   629.95   673.32   720.83
                              830.70   912.36  1011.05  1138.90  1181.11
                             1247.21  1285.23  1325.11  1344.42  1424.60
                             1484.06  1505.89  1532.64  1566.27  1586.91
                             1612.98  1659.05  1722.43  1732.07  1803.63
                             1820.32  1846.12  1872.33  1952.20  1973.71
                             2062.92  2089.68  2091.71  2136.71  2158.07
                             2630.22  4276.87  4356.99  4365.37  4430.82
                             4493.33  4504.68  4507.25  4629.52  4650.26
                             5487.40

 Zero-point correction=                           0.159284 (Hartree/Particle)
 Thermal correction to Energy=                    0.167702
 Thermal correction to Enthalpy=                  0.168647
 Thermal correction to Gibbs Free Energy=         0.126261
 Sum of electronic and zero-point Energies=           -423.049197
 Sum of electronic and thermal Energies=              -423.040779
 Sum of electronic and thermal Enthalpies=            -423.039835
 Sum of electronic and thermal Free Energies=         -423.082221

                     E (Thermal)             CV                S
                      KCal/Mol        Cal/Mol-Kelvin    Cal/Mol-Kelvin
 Total                  105.235             32.619             89.209
 Electronic               0.000              0.000              0.000
 Translational            0.889              2.981             40.409
 Rotational               0.889              2.981             28.833
 Vibrational            103.457             26.657             19.967
 Vibration     1          0.600              1.963              3.891
 Vibration     2          0.608              1.935              3.149
 Vibration     3          0.655              1.788              1.842
 Vibration     4          0.655              1.785              1.830
 Vibration     5          0.685              1.696              1.486
 Vibration     6          0.706              1.634              1.306
 Vibration     7          0.721              1.593              1.206
 Vibration     8          0.798              1.388              0.833
 Vibration     9          0.825              1.321              0.743
 Vibration    10          0.856              1.248              0.656
 Vibration    11          0.934              1.080              0.490

 Optimization completed.
    -- Stationary point found.
 Normal termination of Gaussian 09 at Tue Jan 28 01:11:53 2020.
