 Gaussian 09, Revision D.01,
 Gaussian 09:  ES64L-G09RevD.01 24-Apr-2013

 -----------------------------
 # b3lyp 6-31G(2df,p) opt Freq
 -----------------------------

 -----
 titel
 -----
 Symbolic Z-matrix:
 Charge =  0 Multiplicity = 1

 SCF Done:  E(RB3LYP) =  -423.164551526     A.U. after   14 cycles
 Optimization completed.
    -- Stationary point found.
 Normal termination of Gaussian 09 at Mon Jan 27 23:07:16 2020.

 ----------------------------------------------------------------------
 #N Geom=AllCheck Guess=TCheck SCRF=Check GenChk RB3LYP/6-31G(2df,p) Fr
 eq
 ----------------------------------------------------------------------

 Structure from the checkpoint file:  "/scratch/puck/g09_56a0755a-06b7-45e4-8f1a-2b31c230f037/Gau-18430.chk"
 -----
 titel
 -----
 Charge =  0 Multiplicity = 1

                         Standard orientation:
 ---------------------------------------------------------------------
 Center     Atomic      Atomic             Coordinates (Angstroms)
 Number     Number       Type             X           Y           Z
 ---------------------------------------------------------------------
      1          6           0       -0.931572    2.127960   -0.387400
      2          6           0       -0.759129    0.639988   -0.647611
      3          6           0       -1.777888   -0.284637    0.046889
      4          6           0       -1.445308   -1.717288   -0.232549
      5          6           0       -0.662252   -0.977028    0.823279
      6          6           0        0.399123   -0.033464    0.223029
      7          8           0        0.943398    0.819619    1.187165
      8          6           0        1.519282   -0.665810   -0.568139
      9          8           0        2.674988   -0.345371   -0.406610
     10          1           0       -0.085597    2.699263   -0.780622
     11          1           0       -1.841946    2.486943   -0.879774
     12          1           0       -1.004745    2.336750    0.681760
     13          1           0       -0.675237    0.457176   -1.726857
     14          1           0       -2.754893    0.030068    0.393445
     15          1           0       -2.140244   -2.451413    0.162702
     16          1           0       -1.001809   -2.006958   -1.181720
     17          1           0       -0.627618   -1.297275    1.857259
     18          1           0        1.896351    0.843446    1.000727
     19          1           0        1.235117   -1.430312   -1.316342
 ---------------------------------------------------------------------

 SCF Done:  E(RB3LYP) =  -423.164551526     A.U. after    1 cycles

 The electronic state is 1-A.
 Alpha  occ. eigenvalues --  -19.15782 -19.13702 -10.27833 -10.24829 -10.20127
 Alpha  occ. eigenvalues --  -10.20119 -10.19882 -10.19838 -10.17550  -1.06965
 Alpha  occ. eigenvalues --   -1.02090  -0.90046  -0.76278  -0.71349  -0.63996
 Alpha  occ. eigenvalues --   -0.62036  -0.57283  -0.54114  -0.52573  -0.50709
 Alpha  occ. eigenvalues --   -0.47527  -0.45609  -0.44636  -0.40902  -0.40268
 Alpha  occ. eigenvalues --   -0.39128  -0.37444  -0.35767  -0.34696  -0.33007
 Alpha  occ. eigenvalues --   -0.30596  -0.29319  -0.26911  -0.24733
 Alpha virt. eigenvalues --   -0.03808   0.08161   0.09412   0.10594   0.10966
 Alpha virt. eigenvalues --    0.13108   0.14590   0.15318   0.16313   0.17268
 Alpha virt. eigenvalues --    0.17646   0.18212   0.20278   0.20693   0.21954

 Mulliken charges:
               1
     1  C   -0.396834
     2  C   -0.065522
     3  C   -0.037321
     4  C   -0.314748
     5  C   -0.090288
     6  C    0.308283
     7  O   -0.476004
     8  C    0.113989
     9  O   -0.281233
    10  H    0.118888
    11  H    0.110582
    12  H    0.137579
    13  H    0.065938
    14  H    0.090121
    15  H    0.120790
    16  H    0.107625
    17  H    0.100592
    18  H    0.292182
    19  H    0.095383
 Sum of Mulliken charges =   0.00000

 Dipole moment (field-independent basis, Debye):
    X=             -1.9958    Y=             -0.8799    Z=             -0.8817  Tot=              2.3527
 Quadrupole moment (field-independent basis, Debye-Ang):
   XX=            -57.5721   YY=            -51.8666   ZZ=            -53.4790
   XY=              1.1481   XZ=             -0.0546   YZ=             -1.1368

  Exact polarizability:  85.313   1.948  77.647   0.674   1.567  65.245
 Approx polarizability: 128.147   3.090 106.853   3.726   4.387 102.543

                      1                      2                      3
                      A                      A                      A
 Frequencies --     85.7705               137.3042               211.4843
 Red. masses --      5.9486                 2.5929                 1.2261
 Frc consts  --      0.0258                 0.0288                 0.0323
 IR Inten    --      0.1225                 0.8381                 0.6041

                      4                      5                      6
                      A                      A                      A
 Frequencies --    238.1452               261.7893               276.1213
 Red. masses --      2.7950                 2.5402                 2.3372
 Frc consts  --      0.0934                 0.1026                 0.1050
 IR Inten    --      3.0496                 2.3014                 1.4769

                      7                      8                      9
                      A                      A                      A
 Frequencies --    340.5798               384.5222               462.1007
 Red. masses --      5.0291                 3.0161                 2.0365
 Frc consts  --      0.3437                 0.2627                 0.2562
 IR Inten    --     18.0165                12.5119                13.4118

                     10                     11                     12
                      A                      A                      A
 Frequencies --    481.7260               495.3254               539.9241
 Red. masses --      4.3343                 2.0343                 2.0982
 Frc consts  --      0.5926                 0.2941                 0.3604
 IR Inten    --      2.6206                32.1759                10.0274

                     13                     14                     15
                      A                      A                      A
 Frequencies --    736.6039               779.5944               809.4150
 Red. masses --      2.6949                 1.8758                 1.8215
 Frc consts  --      0.8615                 0.6717                 0.7031
 IR Inten    --      7.2422                 6.5664                 8.6482

                     16                     17                     18
                      A                      A                      A
 Frequencies --    824.8350               874.8882               942.9434
 Red. masses --      3.6270                 2.1485                 2.2779
 Frc consts  --      1.4539                 0.9689                 1.1933
 IR Inten    --     15.3666                20.0532                 5.6781

                     19                     20                     21
                      A                      A                      A
 Frequencies --    947.8009               983.6764               993.9955
 Red. masses --      2.3982                 1.5433                 1.3522
 Frc consts  --      1.2693                 0.8799                 0.7871
 IR Inten    --      3.5479                16.4169                 2.1349

                     22                     23                     24
                      A                      A                      A
 Frequencies --   1040.1370              1041.4911              1069.4748
 Red. masses --      1.4581                 2.0136                 1.3093
 Frc consts  --      0.9295                 1.2869                 0.8823
 IR Inten    --      4.6837                23.0564                 1.9559

                     25                     26                     27
                      A                      A                      A
 Frequencies --   1083.6912              1105.9764              1107.6930
 Red. masses --      1.4125                 2.2110                 1.7675
 Frc consts  --      0.9773                 1.5934                 1.2778
 IR Inten    --      2.7031                15.8527                18.8135

                     28                     29                     30
                      A                      A                      A
 Frequencies --   1144.3600              1196.9037              1222.2051
 Red. masses --      2.4544                 2.0493                 2.5782
 Frc consts  --      1.8937                 1.7297                 2.2691
 IR Inten    --      8.0046                 4.9030                21.2484

                     31                     32                     33
                      A                      A                      A
 Frequencies --   1267.8008              1286.1835              1338.3694
 Red. masses --      1.6253                 1.7112                 2.0782
 Frc consts  --      1.5391                 1.6679                 2.1932
 IR Inten    --      8.1861                15.3053                 2.4899

                     34                     35                     36
                      A                      A                      A
 Frequencies --   1361.0628              1391.5231              1409.3899
 Red. masses --      1.8196                 1.2314                 1.2498
 Frc consts  --      1.9860                 1.4048                 1.4627
 IR Inten    --     12.5379                69.0477                 0.5849

                     37                     38                     39
                      A                      A                      A
 Frequencies --   1445.7900              1487.8897              1493.0380
 Red. masses --      1.4248                 1.0538                 1.0482
 Frc consts  --      1.7547                 1.3746                 1.3767
 IR Inten    --     31.4789                 3.6033                 4.6375

                     40                     41                     42
                      A                      A                      A
 Frequencies --   1496.8881              1796.8982              2951.5454
 Red. masses --      1.1923                10.2777                 1.0857
 Frc consts  --      1.5740                19.5520                 5.5727
 IR Inten    --      2.0338               172.1497                53.3740

                     43                     44                     45
                      A                      A                      A
 Frequencies --   3012.7045              3040.2203              3104.4581
 Red. masses --      1.0834                 1.0380                 1.1001
 Frc consts  --      5.7938                 5.6529                 6.2469
 IR Inten    --     35.9458                27.2271                19.2364

                     46                     47                     48
                      A                      A                      A
 Frequencies --   3113.6624              3133.7667              3181.1195
 Red. masses --      1.0565                 1.1000                 1.0902
 Frc consts  --      6.0349                 6.3649                 6.4998
 IR Inten    --     20.7902                14.4882                14.1284

                     49                     50                     51
                      A                      A                      A
 Frequencies --   3190.6603              3202.4668              3672.0366
 Red. masses --      1.1027                 1.1062                 1.0647
 Frc consts  --      6.6140                 6.6844                 8.4586
 IR Inten    --      1.4966                19.1568                88.3591

 - Thermochemistry -
 -------------------
 Temperature   298.150 Kelvin.  Pressure   1.00000 Atm.
 Atom     1 has atomic number  6 and mass  12.00000

 Molecular mass:   126.06808 amu.
 Principal axes and moments of inertia in atomic units:
                           1         2         3
     Eigenvalues --   774.471641161.303421521.92458
           X            0.99998   0.00251   0.00532
           Y           -0.00244   0.99993  -0.01185
           Z           -0.00535   0.01183   0.99992
 This molecule is an asymmetric top.
 Rotational symmetry number  1.
 Warning -- assumption of classical behavior for rotation
           may cause significant error
 Rotational temperatures (Kelvin)      0.11184     0.07458     0.05691
 Rotational constants (GHZ):           2.33029     1.55407     1.18583
 Zero-point vibrational energy     413895.7 (Joules/Mol)
                                   98.92344 (Kcal/Mol)
 Warning -- explicit consideration of  12 degrees of freedom as
           vibrations may cause significant error
 Vibrational temperatures:    123.40   197.55   304.28   342.64   376.66
          (Kelvin)            397.28   490.02   553.24   664.86   693.10
                              712.66   776.83  1059.81  1121.66  1164.57
                             1186.75  1258.77  1356.68  1363.67  1415.29
                             1430.14  1496.52  1498.47  1538.73  1559.19
                             1591.25  1593.72  1646.48  1722.08  1758.48
                             1824.08  1850.53  1925.61  1958.26  2002.09
                             2027.80  2080.17  2140.74  2148.15  2153.69
                             2585.33  4246.61  4334.60  4374.19  4466.62
                             4479.86  4508.79  4576.92  4590.64  4607.63
                             5283.23

 Zero-point correction=                           0.157645 (Hartree/Particle)
 Thermal correction to Energy=                    0.166342
 Thermal correction to Enthalpy=                  0.167286
 Thermal correction to Gibbs Free Energy=         0.124571
 Sum of electronic and zero-point Energies=           -423.006907
 Sum of electronic and thermal Energies=              -422.998210
 Sum of electronic and thermal Enthalpies=            -422.997265
 Sum of electronic and thermal Free Energies=         -423.039980

                     E (Thermal)             CV                S
                      KCal/Mol        Cal/Mol-Kelvin    Cal/Mol-Kelvin
 Total                  104.381             33.526             89.901
 Electronic               0.000              0.000              0.000
 Translational            0.889              2.981             40.409
 Rotational               0.889              2.981             28.706
 Vibrational            102.604             27.565             20.787
 Vibration     1          0.601              1.959              3.754
 Vibration     2          0.614              1.916              2.841
 Vibration     3          0.643              1.823              2.031
 Vibration     4          0.656              1.782              1.817
 Vibration     5          0.669              1.743              1.650
 Vibration     6          0.678              1.718              1.558
 Vibration     7          0.720              1.594              1.209
 Vibration     8          0.753              1.503              1.021
 Vibration     9          0.820              1.334              0.760
 Vibration    10          0.838              1.291              0.705
 Vibration    11          0.851              1.260              0.670
 Vibration    12          0.895              1.162              0.565

 Normal termination of Gaussian 09 at Mon Jan 27 23:54:38 2020.
