 Gaussian 09, Revision D.01,
 Gaussian 09:  ES64L-G09RevD.01 24-Apr-2013

 -----------------------------
 # b3lyp 6-31G(2df,p) opt Freq
 -----------------------------

 -----
 titel
 -----
 Symbolic Z-matrix:
 Charge =  0 Multiplicity = 1

 SCF Done:  E(RB3LYP) =  -423.113826005     A.U. after   13 cycles
 Optimization completed.
    -- Stationary point found.
 Normal termination of Gaussian 09 at Mon Jan 27 22:55:27 2020.

 ----------------------------------------------------------------------
 #N Geom=AllCheck Guess=TCheck SCRF=Check GenChk RB3LYP/6-31G(2df,p) Fr
 eq
 ----------------------------------------------------------------------

 Structure from the checkpoint file:  "/scratch/puck/g09_d18dabe6-d75e-414d-b296-7604e1f84fe4/Gau-101368.chk"
 -----
 titel
 -----
 Charge =  0 Multiplicity = 1

                         Standard orientation:
 ---------------------------------------------------------------------
 Center     Atomic      Atomic             Coordinates (Angstroms)
 Number     Number       Type             X           Y           Z
 ---------------------------------------------------------------------
      1          6           0        0.917591    1.583385   -1.282150
      2          6           0        0.572888    0.679412   -0.133154
      3          6           0        0.671361    0.942751    1.403691
      4          6           0        0.106795   -0.507543    1.320499
      5          6           0        1.174170   -0.741699    0.194713
      6          8           0        1.056809   -1.792137   -0.712089
      7          6           0       -0.787338    0.034963    0.200284
      8          6           0       -2.186890    0.392735    0.038206
      9          8           0       -1.597162   -0.720081   -0.685796
     10          1           0        1.970530    1.881409   -1.246409
     11          1           0        0.746470    1.070067   -2.234250
     12          1           0        0.309455    2.494657   -1.274230
     13          1           0        1.682407    1.037944    1.806931
     14          1           0        0.001096    1.702339    1.810543
     15          1           0       -0.164818   -1.168548    2.142079
     16          1           0        2.213028   -0.729458    0.536805
     17          1           0        0.142519   -1.840341   -1.017126
     18          1           0       -2.918501    0.107131    0.792117
     19          1           0       -2.470816    1.238515   -0.585912
 ---------------------------------------------------------------------

 SCF Done:  E(RB3LYP) =  -423.113826005     A.U. after    1 cycles

 The electronic state is 1-A.
 Alpha  occ. eigenvalues --  -19.15712 -19.13202 -10.24925 -10.23982 -10.23849
 Alpha  occ. eigenvalues --  -10.20552 -10.20049 -10.19669 -10.18114  -1.07712
 Alpha  occ. eigenvalues --   -1.02046  -0.90647  -0.73403  -0.67924  -0.65258
 Alpha  occ. eigenvalues --   -0.64143  -0.60683  -0.55110  -0.49563  -0.48780
 Alpha  occ. eigenvalues --   -0.46952  -0.45914  -0.42208  -0.41589  -0.41036
 Alpha  occ. eigenvalues --   -0.38894  -0.36717  -0.34532  -0.34078  -0.33261
 Alpha  occ. eigenvalues --   -0.31965  -0.28591  -0.26438  -0.25007
 Alpha virt. eigenvalues --    0.07755   0.09692   0.11351   0.11861   0.13324
 Alpha virt. eigenvalues --    0.13635   0.14519   0.14575   0.15505   0.15838
 Alpha virt. eigenvalues --    0.16247   0.17002   0.18191   0.20774   0.22184

 Mulliken charges:
               1
     1  C   -0.521725
     2  C    0.168382
     3  C   -0.270725
     4  C   -0.212394
     5  C    0.159745
     6  O   -0.457401
     7  C    0.486812
     8  C   -0.318142
     9  O   -0.326449
    10  H    0.125250
    11  H    0.134400
    12  H    0.118581
    13  H    0.099335
    14  H    0.099610
    15  H    0.083315
    16  H    0.079865
    17  H    0.304547
    18  H    0.124257
    19  H    0.122736
 Sum of Mulliken charges =   0.00000

 Dipole moment (field-independent basis, Debye):
    X=             -0.7881    Y=              2.2313    Z=              1.2407  Tot=              2.6719
 Quadrupole moment (field-independent basis, Debye-Ang):
   XX=            -52.1046   YY=            -55.5024   ZZ=            -52.9639
   XY=              0.7427   XZ=             -0.1559   YZ=             -2.0264

  Exact polarizability:  82.853  -1.430  72.197   0.796  -1.097  72.031
 Approx polarizability: 117.490  -2.894 109.206   2.365   4.405 107.243

                      1                      2                      3
                      A                      A                      A
 Frequencies --    157.5289               176.5055               187.0484
 Red. masses --      1.2660                 3.8850                 2.2192
 Frc consts  --      0.0185                 0.0713                 0.0457
 IR Inten    --      0.5830                 1.2715                 0.2398

                      4                      5                      6
                      A                      A                      A
 Frequencies --    205.1495               241.2238               345.8285
 Red. masses --      3.2941                 3.1368                 3.1404
 Frc consts  --      0.0817                 0.1075                 0.2213
 IR Inten    --      0.3935                 8.2875                 5.2392

                      7                      8                      9
                      A                      A                      A
 Frequencies --    392.5101               414.7939               462.9045
 Red. masses --      1.2752                 2.3001                 2.6202
 Frc consts  --      0.1158                 0.2332                 0.3308
 IR Inten    --     43.4136                 9.1372                26.9293

                     10                     11                     12
                      A                      A                      A
 Frequencies --    503.2405               603.1815               671.6633
 Red. masses --      4.5158                 3.3831                 3.4639
 Frc consts  --      0.6738                 0.7252                 0.9207
 IR Inten    --      9.8726                 0.0327                 6.0708

                     13                     14                     15
                      A                      A                      A
 Frequencies --    675.7108               750.7939               787.9856
 Red. masses --      3.8814                 3.3050                 2.3190
 Frc consts  --      1.0441                 1.0976                 0.8484
 IR Inten    --      9.1180                 2.2419                 0.1006

                     16                     17                     18
                      A                      A                      A
 Frequencies --    860.1577               877.3893               900.6907
 Red. masses --      3.3680                 2.5754                 2.3806
 Frc consts  --      1.4682                 1.1681                 1.1379
 IR Inten    --     14.5838                17.9123                 8.1622

                     19                     20                     21
                      A                      A                      A
 Frequencies --    942.0059               994.3712              1011.2958
 Red. masses --      1.9372                 3.2073                 1.1551
 Frc consts  --      1.0128                 1.8685                 0.6960
 IR Inten    --      2.9606                37.6192                 6.0322

                     22                     23                     24
                      A                      A                      A
 Frequencies --   1032.7251              1072.1719              1092.7811
 Red. masses --      1.7348                 1.5153                 1.4278
 Frc consts  --      1.0901                 1.0263                 1.0046
 IR Inten    --     57.2162                 2.2105                 1.1441

                     25                     26                     27
                      A                      A                      A
 Frequencies --   1109.3188              1128.2523              1151.5846
 Red. masses --      1.2537                 1.9152                 2.2049
 Frc consts  --      0.9090                 1.4364                 1.7228
 IR Inten    --      0.8737                 9.8144                57.8526

                     28                     29                     30
                      A                      A                      A
 Frequencies --   1163.1331              1178.9541              1198.4625
 Red. masses --      1.5927                 1.6076                 1.6964
 Frc consts  --      1.2695                 1.3165                 1.4356
 IR Inten    --     29.2728                 1.8229                 3.7858

                     31                     32                     33
                      A                      A                      A
 Frequencies --   1229.6023              1235.3756              1323.2607
 Red. masses --      2.1399                 2.1865                 1.4241
 Frc consts  --      1.9062                 1.9661                 1.4692
 IR Inten    --     49.6991                18.3313                11.5016

                     34                     35                     36
                      A                      A                      A
 Frequencies --   1343.8033              1411.0433              1445.1242
 Red. masses --      2.9822                 1.4303                 1.4921
 Frc consts  --      3.1730                 1.6779                 1.8360
 IR Inten    --      8.4042                 3.6645                39.0757

                     37                     38                     39
                      A                      A                      A
 Frequencies --   1463.0063              1487.9467              1490.0363
 Red. masses --      1.2846                 1.0478                 1.0565
 Frc consts  --      1.6200                 1.3668                 1.3821
 IR Inten    --     52.0112                 7.5119                 7.8756

                     40                     41                     42
                      A                      A                      A
 Frequencies --   1515.6695              1556.3527              3029.7385
 Red. masses --      1.1536                 2.2894                 1.0353
 Frc consts  --      1.5614                 3.2673                 5.5991
 IR Inten    --     10.9963                30.8577                24.7904

                     43                     44                     45
                      A                      A                      A
 Frequencies --   3063.1459              3076.9081              3088.0400
 Red. masses --      1.0557                 1.0847                 1.0513
 Frc consts  --      5.8359                 6.0504                 5.9068
 IR Inten    --     27.4334                51.7235                16.5795

                     46                     47                     48
                      A                      A                      A
 Frequencies --   3095.4852              3102.3749              3130.8206
 Red. masses --      1.1005                 1.1008                 1.1109
 Frc consts  --      6.2128                 6.2426                 6.4156
 IR Inten    --     19.2960                14.7376                29.7499

                     49                     50                     51
                      A                      A                      A
 Frequencies --   3133.1573              3174.4839              3788.1231
 Red. masses --      1.0935                 1.1189                 1.0652
 Frc consts  --      6.3246                 6.6432                 9.0060
 IR Inten    --     35.6833                16.6670                46.7244

 - Thermochemistry -
 -------------------
 Temperature   298.150 Kelvin.  Pressure   1.00000 Atm.
 Atom     1 has atomic number  6 and mass  12.00000

 Molecular mass:   126.06808 amu.
 Principal axes and moments of inertia in atomic units:
                           1         2         3
     Eigenvalues --   863.769481032.453311165.91649
           X            0.99903   0.03818  -0.02205
           Y           -0.04061   0.99153  -0.12340
           Z            0.01715   0.12418   0.99211
 This molecule is an asymmetric top.
 Rotational symmetry number  1.
 Warning -- assumption of classical behavior for rotation
           may cause significant error
 Rotational temperatures (Kelvin)      0.10027     0.08389     0.07429
 Rotational constants (GHZ):           2.08938     1.74801     1.54792
 Zero-point vibrational energy     415540.0 (Joules/Mol)
                                   99.31644 (Kcal/Mol)
 Warning -- explicit consideration of  11 degrees of freedom as
           vibrations may cause significant error
 Vibrational temperatures:    226.65   253.95   269.12   295.16   347.07
          (Kelvin)            497.57   564.73   596.80   666.02   724.05
                              867.84   966.37   972.20  1080.22  1133.73
                             1237.57  1262.37  1295.89  1355.33  1430.68
                             1455.03  1485.86  1542.61  1572.27  1596.06
                             1623.30  1656.87  1673.49  1696.25  1724.32
                             1769.12  1777.43  1903.87  1933.43  2030.17
                             2079.21  2104.94  2140.82  2143.83  2180.71
                             2239.24  4359.11  4407.18  4426.98  4443.00
                             4453.71  4463.62  4504.55  4507.91  4567.37
                             5450.26

 Zero-point correction=                           0.158271 (Hartree/Particle)
 Thermal correction to Energy=                    0.166587
 Thermal correction to Enthalpy=                  0.167532
 Thermal correction to Gibbs Free Energy=         0.125961
 Sum of electronic and zero-point Energies=           -422.955555
 Sum of electronic and thermal Energies=              -422.947239
 Sum of electronic and thermal Enthalpies=            -422.946294
 Sum of electronic and thermal Free Energies=         -422.987865

                     E (Thermal)             CV                S
                      KCal/Mol        Cal/Mol-Kelvin    Cal/Mol-Kelvin
 Total                  104.535             32.808             87.492
 Electronic               0.000              0.000              0.000
 Translational            0.889              2.981             40.409
 Rotational               0.889              2.981             28.432
 Vibrational            102.758             26.847             18.652
 Vibration     1          0.621              1.894              2.579
 Vibration     2          0.628              1.871              2.365
 Vibration     3          0.632              1.858              2.257
 Vibration     4          0.640              1.833              2.086
 Vibration     5          0.658              1.777              1.794
 Vibration     6          0.724              1.584              1.185
 Vibration     7          0.760              1.486              0.991
 Vibration     8          0.778              1.438              0.910
 Vibration     9          0.821              1.332              0.758
 Vibration    10          0.859              1.243              0.650
 Vibration    11          0.962              1.025              0.444

 Normal termination of Gaussian 09 at Mon Jan 27 23:41:26 2020.
