 Gaussian 09, Revision D.01,
 Gaussian 09:  ES64L-G09RevD.01 24-Apr-2013

 -----------------------------
 # b3lyp 6-31G(2df,p) opt Freq
 -----------------------------

 -----
 titel
 -----
 Symbolic Z-matrix:
 Charge =  0 Multiplicity = 1

 SCF Done:  E(RB3LYP) =  -423.117534146     A.U. after   13 cycles
 Optimization completed.
    -- Stationary point found.
 Normal termination of Gaussian 09 at Tue Jan 28 10:03:02 2020.

 ----------------------------------------------------------------------
 #N Geom=AllCheck Guess=TCheck SCRF=Check GenChk RB3LYP/6-31G(2df,p) Fr
 eq
 ----------------------------------------------------------------------

 Structure from the checkpoint file:  "/scratch/puck/g09_c7ec256a-43bc-45a4-9275-aa60e163af1b/Gau-190777.chk"
 -----
 titel
 -----
 Charge =  0 Multiplicity = 1

                         Standard orientation:
 ---------------------------------------------------------------------
 Center     Atomic      Atomic             Coordinates (Angstroms)
 Number     Number       Type             X           Y           Z
 ---------------------------------------------------------------------
      1          6           0       -2.953911   -0.402779   -0.372319
      2          6           0       -1.962903   -0.027490    0.736456
      3          6           0       -0.550945    0.056042    0.236640
      4          6           0        0.254915   -1.155324   -0.324547
      5          6           0        1.479067   -0.287472   -0.029944
      6          8           0        2.803762   -0.657984    0.036690
      7          6           0        1.006673    1.154819   -0.314328
      8          8           0       -0.335196    1.092577   -0.786345
      9          6           0        0.740482    0.527738    1.015361
     10          1           0       -3.978438   -0.415270    0.010139
     11          1           0       -2.902634    0.318521   -1.192376
     12          1           0       -2.735658   -1.394647   -0.781103
     13          1           0       -2.234313    0.942245    1.169632
     14          1           0       -1.999722   -0.762433    1.549864
     15          1           0        0.211955   -2.015396    0.349120
     16          1           0        0.038364   -1.452277   -1.355902
     17          1           0        3.165626   -0.658746   -0.856825
     18          1           0        1.653150    1.967900   -0.618874
     19          1           0        0.952888    0.800158    2.039642
 ---------------------------------------------------------------------

 SCF Done:  E(RB3LYP) =  -423.117534146     A.U. after    1 cycles

 The electronic state is 1-A.
 Alpha  occ. eigenvalues --  -19.15451 -19.13040 -10.24565 -10.24156 -10.23396
 Alpha  occ. eigenvalues --  -10.18714 -10.18609 -10.18183 -10.17445  -1.06076
 Alpha  occ. eigenvalues --   -1.03337  -0.84831  -0.78368  -0.71320  -0.65777
 Alpha  occ. eigenvalues --   -0.60092  -0.58111  -0.54341  -0.50814  -0.47968
 Alpha  occ. eigenvalues --   -0.45549  -0.44557  -0.43223  -0.41492  -0.40151
 Alpha  occ. eigenvalues --   -0.38710  -0.37505  -0.34683  -0.34434  -0.33058
 Alpha  occ. eigenvalues --   -0.30540  -0.28119  -0.25692  -0.21659
 Alpha virt. eigenvalues --    0.07293   0.08078   0.10289   0.12670   0.13462
 Alpha virt. eigenvalues --    0.14011   0.14151   0.15155   0.15813   0.16742
 Alpha virt. eigenvalues --    0.17227   0.18702   0.19643   0.20593   0.21802

 Mulliken charges:
               1
     1  C   -0.383623
     2  C   -0.305550
     3  C    0.443209
     4  C   -0.338239
     5  C    0.331452
     6  O   -0.456407
     7  C    0.018996
     8  O   -0.333485
     9  C   -0.263843
    10  H    0.113084
    11  H    0.141074
    12  H    0.119536
    13  H    0.110864
    14  H    0.102987
    15  H    0.105916
    16  H    0.094127
    17  H    0.289349
    18  H    0.107297
    19  H    0.103257
 Sum of Mulliken charges =   0.00000

 Dipole moment (field-independent basis, Debye):
    X=              0.1916    Y=             -0.4969    Z=             -0.0176  Tot=              0.5329
 Quadrupole moment (field-independent basis, Debye-Ang):
   XX=            -51.2000   YY=            -53.7004   ZZ=            -51.7953
   XY=              2.7853   XZ=             -5.8702   YZ=              2.0470

  Exact polarizability:  87.595   2.272  69.354  -2.297   1.378  66.857
 Approx polarizability: 113.136  -0.358 105.995  -2.488  -1.483 106.282

                      1                      2                      3
                      A                      A                      A
 Frequencies --     80.0642               148.2743               194.3361
 Red. masses --      2.6570                 3.1806                 1.2813
 Frc consts  --      0.0100                 0.0412                 0.0285
 IR Inten    --      0.1222                 0.5194                 1.3522

                      4                      5                      6
                      A                      A                      A
 Frequencies --    253.7545               312.4157               316.4456
 Red. masses --      1.7731                 2.8097                 1.3015
 Frc consts  --      0.0673                 0.1616                 0.0768
 IR Inten    --     18.0034                 2.2377                74.3629

                      7                      8                      9
                      A                      A                      A
 Frequencies --    378.8384               395.0272               459.1946
 Red. masses --      3.5127                 3.0483                 2.0109
 Frc consts  --      0.2970                 0.2803                 0.2498
 IR Inten    --      5.0227                17.0812                 3.8997

                     10                     11                     12
                      A                      A                      A
 Frequencies --    535.1249               591.9971               658.2762
 Red. masses --      4.3590                 3.9499                 3.0275
 Frc consts  --      0.7354                 0.8156                 0.7730
 IR Inten    --      1.2453                 4.6917                 4.0466

                     13                     14                     15
                      A                      A                      A
 Frequencies --    752.3625               774.0145               797.6150
 Red. masses --      1.7555                 3.0725                 1.9660
 Frc consts  --      0.5855                 1.0845                 0.7369
 IR Inten    --      0.5424                12.9149                 0.6670

                     16                     17                     18
                      A                      A                      A
 Frequencies --    828.9664               863.7204               918.5064
 Red. masses --      1.6537                 2.5879                 2.1846
 Frc consts  --      0.6695                 1.1375                 1.0859
 IR Inten    --      7.4073                39.3131                13.0608

                     19                     20                     21
                      A                      A                      A
 Frequencies --    928.1960               956.2423               986.3415
 Red. masses --      2.4490                 1.8522                 2.0260
 Frc consts  --      1.2432                 0.9978                 1.1613
 IR Inten    --      1.6214                 7.7753                16.2952

                     22                     23                     24
                      A                      A                      A
 Frequencies --   1007.1552              1025.1950              1037.7304
 Red. masses --      2.0915                 2.7488                 2.0730
 Frc consts  --      1.2500                 1.7022                 1.3153
 IR Inten    --     10.0754                 4.0759                28.1225

                     25                     26                     27
                      A                      A                      A
 Frequencies --   1078.7332              1111.7641              1129.2087
 Red. masses --      1.9011                 1.9241                 2.0242
 Frc consts  --      1.3034                 1.4012                 1.5208
 IR Inten    --     29.9651                 4.0101                 7.3486

                     28                     29                     30
                      A                      A                      A
 Frequencies --   1153.0966              1185.2064              1224.1915
 Red. masses --      1.5600                 1.5127                 2.1156
 Frc consts  --      1.2221                 1.2520                 1.8681
 IR Inten    --      2.7132                 6.6341                27.6175

                     31                     32                     33
                      A                      A                      A
 Frequencies --   1290.8521              1293.6822              1307.4507
 Red. masses --      1.4551                 2.8400                 1.5284
 Frc consts  --      1.4285                 2.8004                 1.5393
 IR Inten    --     24.6439               123.4407                39.9683

                     34                     35                     36
                      A                      A                      A
 Frequencies --   1324.1569              1390.1018              1407.9172
 Red. masses --      1.6927                 2.5246                 1.2444
 Frc consts  --      1.7486                 2.8743                 1.4533
 IR Inten    --      1.2385                15.5203                 2.7921

                     37                     38                     39
                      A                      A                      A
 Frequencies --   1430.5222              1474.2726              1494.2198
 Red. masses --      2.4183                 1.0802                 1.2743
 Frc consts  --      2.9157                 1.3833                 1.6763
 IR Inten    --     19.3009                 1.3225                 6.3931

                     40                     41                     42
                      A                      A                      A
 Frequencies --   1498.1629              1508.6088              3031.5641
 Red. masses --      1.0802                 1.0813                 1.0594
 Frc consts  --      1.4285                 1.4500                 5.7366
 IR Inten    --      6.5844                 3.7174                21.0783

                     43                     44                     45
                      A                      A                      A
 Frequencies --   3041.7394              3044.6250              3068.3907
 Red. masses --      1.0401                 1.0526                 1.1016
 Frc consts  --      5.6699                 5.7491                 6.1108
 IR Inten    --      7.4295                46.8472                10.3944

                     46                     47                     48
                      A                      A                      A
 Frequencies --   3109.9295              3111.4969              3123.2875
 Red. masses --      1.1024                 1.1063                 1.1020
 Frc consts  --      6.2821                 6.3104                 6.3338
 IR Inten    --     31.5846                22.5971                21.5405

                     49                     50                     51
                      A                      A                      A
 Frequencies --   3200.7099              3216.5860              3789.3508
 Red. masses --      1.0906                 1.1022                 1.0660
 Frc consts  --      6.5829                 6.7188                 9.0186
 IR Inten    --     14.8207                 7.3509                26.3505

 - Thermochemistry -
 -------------------
 Temperature   298.150 Kelvin.  Pressure   1.00000 Atm.
 Atom     1 has atomic number  6 and mass  12.00000

 Molecular mass:   126.06808 amu.
 Principal axes and moments of inertia in atomic units:
                           1         2         3
     Eigenvalues --   449.414111531.508481648.98048
           X            0.99982   0.01869  -0.00431
           Y           -0.01826   0.99617   0.08555
           Z            0.00589  -0.08546   0.99632
 This molecule is an asymmetric top.
 Rotational symmetry number  1.
 Warning -- assumption of classical behavior for rotation
           may cause significant error
 Rotational temperatures (Kelvin)      0.19273     0.05655     0.05253
 Rotational constants (GHZ):           4.01576     1.17841     1.09446
 Zero-point vibrational energy     414144.9 (Joules/Mol)
                                   98.98301 (Kcal/Mol)
 Warning -- explicit consideration of  11 degrees of freedom as
           vibrations may cause significant error
 Vibrational temperatures:    115.19   213.33   279.61   365.10   449.50
          (Kelvin)            455.29   545.06   568.36   660.68   769.92
                              851.75   947.11  1082.48  1113.63  1147.59
                             1192.70  1242.70  1321.52  1335.47  1375.82
                             1419.12  1449.07  1475.03  1493.06  1552.05
                             1599.58  1624.68  1659.05  1705.25  1761.34
                             1857.25  1861.32  1881.13  1905.16  2000.04
                             2025.68  2058.20  2121.15  2149.85  2155.52
                             2170.55  4361.74  4376.38  4380.53  4414.72
                             4474.49  4476.74  4493.71  4605.10  4627.94
                             5452.02

 Zero-point correction=                           0.157739 (Hartree/Particle)
 Thermal correction to Energy=                    0.166128
 Thermal correction to Enthalpy=                  0.167073
 Thermal correction to Gibbs Free Energy=         0.125000
 Sum of electronic and zero-point Energies=           -422.959795
 Sum of electronic and thermal Energies=              -422.951406
 Sum of electronic and thermal Enthalpies=            -422.950462
 Sum of electronic and thermal Free Energies=         -422.992534

                     E (Thermal)             CV                S
                      KCal/Mol        Cal/Mol-Kelvin    Cal/Mol-Kelvin
 Total                  104.247             32.914             88.550
 Electronic               0.000              0.000              0.000
 Translational            0.889              2.981             40.409
 Rotational               0.889              2.981             28.519
 Vibrational            102.470             26.952             19.622
 Vibration     1          0.600              1.963              3.889
 Vibration     2          0.618              1.905              2.694
 Vibration     3          0.635              1.848              2.186
 Vibration     4          0.665              1.756              1.704
 Vibration     5          0.701              1.650              1.350
 Vibration     6          0.703              1.642              1.328
 Vibration     7          0.749              1.515              1.044
 Vibration     8          0.762              1.481              0.981
 Vibration     9          0.817              1.341              0.768
 Vibration    10          0.890              1.172              0.576
 Vibration    11          0.949              1.049              0.464

 Optimization completed.
    -- Stationary point found.
 Normal termination of Gaussian 09 at Tue Jan 28 10:38:00 2020.
