 Gaussian 09, Revision D.01,
 Gaussian 09:  ES64L-G09RevD.01 24-Apr-2013

 -----------------------------
 # b3lyp 6-31G(2df,p) opt Freq
 -----------------------------

 -----
 titel
 -----
 Symbolic Z-matrix:
 Charge =  0 Multiplicity = 1

 SCF Done:  E(RB3LYP) =  -423.216669194     A.U. after   14 cycles
 Optimization completed.
    -- Stationary point found.
 Normal termination of Gaussian 09 at Mon Jan 27 10:18:23 2020.

 ----------------------------------------------------------------------
 #N Geom=AllCheck Guess=TCheck SCRF=Check GenChk RB3LYP/6-31G(2df,p) Fr
 eq
 ----------------------------------------------------------------------

 Structure from the checkpoint file:  "/scratch/puck/g09_490f5e49-8000-4af4-9f44-9401eba4fc01/Gau-91829.chk"
 -----
 titel
 -----
 Charge =  0 Multiplicity = 1

                         Standard orientation:
 ---------------------------------------------------------------------
 Center     Atomic      Atomic             Coordinates (Angstroms)
 Number     Number       Type             X           Y           Z
 ---------------------------------------------------------------------
      1          6           0       -2.448226   -1.233905    0.581210
      2          6           0       -1.318228   -1.068677   -0.450779
      3          6           0       -0.463181    0.127393   -0.202973
      4          6           0        0.834362    0.296107    0.197735
      5          6           0        1.844885   -0.773639    0.505453
      6          8           0        1.860274   -1.839749   -0.440406
      7          6           0        1.047087    1.716851    0.267113
      8          6           0       -0.124669    2.298056   -0.088673
      9          8           0       -1.051704    1.347438   -0.382086
     10          1           0       -3.100926   -0.356355    0.588605
     11          1           0       -3.058578   -2.111297    0.346782
     12          1           0       -2.042837   -1.360320    1.589772
     13          1           0       -0.663642   -1.943736   -0.450576
     14          1           0       -1.757110   -0.996770   -1.454588
     15          1           0        2.839861   -0.311214    0.595749
     16          1           0        1.634374   -1.255224    1.467293
     17          1           0        1.939997   -1.441283   -1.313794
     18          1           0        1.959585    2.221861    0.546020
     19          1           0       -0.451470    3.319711   -0.189845
 ---------------------------------------------------------------------

 SCF Done:  E(RB3LYP) =  -423.216669194     A.U. after    1 cycles

 The electronic state is 1-A.
 Alpha  occ. eigenvalues --  -19.19753 -19.13715 -10.23271 -10.22638 -10.22383
 Alpha  occ. eigenvalues --  -10.18722 -10.17854 -10.17744 -10.17485  -1.10043
 Alpha  occ. eigenvalues --   -1.01647  -0.80306  -0.78661  -0.72086  -0.68181
 Alpha  occ. eigenvalues --   -0.62582  -0.58695  -0.54548  -0.51445  -0.47937
 Alpha  occ. eigenvalues --   -0.45850  -0.43906  -0.43242  -0.42237  -0.41751
 Alpha  occ. eigenvalues --   -0.40180  -0.37537  -0.36365  -0.35032  -0.34491
 Alpha  occ. eigenvalues --   -0.32656  -0.27969  -0.26244  -0.21288
 Alpha virt. eigenvalues --    0.01426   0.06058   0.09732   0.11243   0.12781
 Alpha virt. eigenvalues --    0.13570   0.14435   0.15285   0.16592   0.16993
 Alpha virt. eigenvalues --    0.17418   0.18461   0.19984   0.21661   0.23126

 Mulliken charges:
               1
     1  C   -0.371888
     2  C   -0.300231
     3  C    0.285453
     4  C    0.103688
     5  C   -0.176574
     6  O   -0.405627
     7  C   -0.276211
     8  C   -0.022510
     9  O   -0.181664
    10  H    0.127895
    11  H    0.113300
    12  H    0.119834
    13  H    0.135043
    14  H    0.111447
    15  H    0.095418
    16  H    0.120964
    17  H    0.280748
    18  H    0.108722
    19  H    0.132192
 Sum of Mulliken charges =   0.00000

 Dipole moment (field-independent basis, Debye):
    X=              0.2848    Y=              1.0024    Z=             -0.2891  Tot=              1.0814
 Quadrupole moment (field-independent basis, Debye-Ang):
   XX=            -52.1526   YY=            -53.7772   ZZ=            -51.7621
   XY=              3.8828   XZ=             -0.2510   YZ=              0.5494

  Exact polarizability:  88.412   4.544  90.629   6.122   0.590  57.094
 Approx polarizability: 131.308   1.459 132.208  14.328   0.930  88.386

                      1                      2                      3
                      A                      A                      A
 Frequencies --     59.7142                65.1286               149.9349
 Red. masses --      2.4432                 3.0608                 3.4394
 Frc consts  --      0.0051                 0.0076                 0.0456
 IR Inten    --      1.3016                 1.8354                 0.9478

                      4                      5                      6
                      A                      A                      A
 Frequencies --    167.6878               204.7733               250.0291
 Red. masses --      3.0937                 1.4005                 1.9652
 Frc consts  --      0.0513                 0.0346                 0.0724
 IR Inten    --      0.3493                 1.5504                 4.2506

                      7                      8                      9
                      A                      A                      A
 Frequencies --    331.7831               351.8744               414.4383
 Red. masses --      2.1987                 1.3503                 4.3453
 Frc consts  --      0.1426                 0.0985                 0.4397
 IR Inten    --     19.1233                98.7393                 3.3051

                     10                     11                     12
                      A                      A                      A
 Frequencies --    437.7617               619.8680               664.5413
 Red. masses --      3.0230                 4.2112                 4.0157
 Frc consts  --      0.3413                 0.9534                 1.0449
 IR Inten    --     23.1411                 4.7716                 0.2471

                     13                     14                     15
                      A                      A                      A
 Frequencies --    674.8568               733.1462               761.4883
 Red. masses --      3.8254                 1.4557                 3.1054
 Frc consts  --      1.0265                 0.4610                 1.0610
 IR Inten    --     12.8756                33.6650                 8.7772

                     16                     17                     18
                      A                      A                      A
 Frequencies --    794.6797               822.2519               909.4461
 Red. masses --      1.2248                 1.2532                 5.7536
 Frc consts  --      0.4557                 0.4992                 2.8038
 IR Inten    --      0.0942                 6.8385                13.5478

                     19                     20                     21
                      A                      A                      A
 Frequencies --    966.9622               973.6976              1027.6497
 Red. masses --      2.0420                 1.9136                 1.8496
 Frc consts  --      1.1249                 1.0689                 1.1508
 IR Inten    --     18.9541                16.1917                10.4549

                     22                     23                     24
                      A                      A                      A
 Frequencies --   1046.5955              1075.6212              1083.6533
 Red. masses --      3.9865                 1.9970                 1.7718
 Frc consts  --      2.5728                 1.3613                 1.2259
 IR Inten    --     54.4414                17.1995                 4.0572

                     25                     26                     27
                      A                      A                      A
 Frequencies --   1154.0585              1176.4040              1214.5806
 Red. masses --      2.0144                 2.2162                 1.3254
 Frc consts  --      1.5807                 1.8070                 1.1520
 IR Inten    --      4.2821                11.1243                20.1733

                     28                     29                     30
                      A                      A                      A
 Frequencies --   1233.9433              1270.2575              1307.6334
 Red. masses --      3.0922                 1.7836                 1.3250
 Frc consts  --      2.7741                 1.6957                 1.3348
 IR Inten    --     11.5372                 4.4296                 6.0552

                     31                     32                     33
                      A                      A                      A
 Frequencies --   1350.5421              1373.7031              1405.5605
 Red. masses --      1.4481                 1.3434                 1.2676
 Frc consts  --      1.5562                 1.4936                 1.4755
 IR Inten    --      5.8182                 3.5557                 3.0255

                     34                     35                     36
                      A                      A                      A
 Frequencies --   1417.7132              1448.0562              1485.9938
 Red. masses --      1.3275                 2.7191                 1.0671
 Frc consts  --      1.5720                 3.3593                 1.3883
 IR Inten    --     39.2578                16.9388                 0.7335

                     37                     38                     39
                      A                      A                      A
 Frequencies --   1496.4369              1507.5859              1509.5002
 Red. masses --      1.0419                 1.0778                 1.0836
 Frc consts  --      1.3746                 1.4432                 1.4547
 IR Inten    --      5.5392                 2.2602                 0.4232

                     40                     41                     42
                      A                      A                      A
 Frequencies --   1545.5430              1646.7972              2985.9148
 Red. masses --      4.6386                 7.3516                 1.0702
 Frc consts  --      6.5282                11.7466                 5.6217
 IR Inten    --     19.2262                12.5054                67.5730

                     43                     44                     45
                      A                      A                      A
 Frequencies --   3023.7846              3040.0274              3053.5345
 Red. masses --      1.0689                 1.0346                 1.0918
 Frc consts  --      5.7583                 5.6332                 5.9977
 IR Inten    --     22.8839                28.4259                25.5869

                     46                     47                     48
                      A                      A                      A
 Frequencies --   3100.8676              3111.1558              3122.9015
 Red. masses --      1.0943                 1.1024                 1.1000
 Frc consts  --      6.1996                 6.2866                 6.3208
 IR Inten    --      1.5723                33.8753                21.5065

                     49                     50                     51
                      A                      A                      A
 Frequencies --   3246.0345              3283.1316              3806.3976
 Red. masses --      1.0912                 1.1041                 1.0660
 Frc consts  --      6.7742                 7.0118                 9.1000
 IR Inten    --      2.6549                 1.4261                15.9818

 - Thermochemistry -
 -------------------
 Temperature   298.150 Kelvin.  Pressure   1.00000 Atm.
 Atom     1 has atomic number  6 and mass  12.00000

 Molecular mass:   126.06808 amu.
 Principal axes and moments of inertia in atomic units:
                           1         2         3
     Eigenvalues --   986.092221097.543061891.92342
           X            0.93286   0.36024  -0.00254
           Y           -0.36024   0.93286  -0.00181
           Z            0.00172   0.00260   1.00000
 This molecule is an asymmetric top.
 Rotational symmetry number  1.
 Warning -- assumption of classical behavior for rotation
           may cause significant error
 Rotational temperatures (Kelvin)      0.08784     0.07892     0.04578
 Rotational constants (GHZ):           1.83020     1.64435     0.95392
 Zero-point vibrational energy     418128.6 (Joules/Mol)
                                   99.93513 (Kcal/Mol)
 Warning -- explicit consideration of  11 degrees of freedom as
           vibrations may cause significant error
 Vibrational temperatures:     85.92    93.71   215.72   241.27   294.62
          (Kelvin)            359.74   477.36   506.27   596.28   629.84
                              891.85   956.13   970.97  1054.83  1095.61
                             1143.37  1183.04  1308.49  1391.24  1400.93
                             1478.56  1505.82  1547.58  1559.13  1660.43
                             1692.58  1747.51  1775.37  1827.61  1881.39
                             1943.13  1976.45  2022.29  2039.77  2083.43
                             2138.01  2153.04  2169.08  2171.83  2223.69
                             2369.37  4296.06  4350.55  4373.92  4393.35
                             4461.45  4476.25  4493.15  4670.31  4723.69
                             5476.55

 Zero-point correction=                           0.159257 (Hartree/Particle)
 Thermal correction to Energy=                    0.168467
 Thermal correction to Enthalpy=                  0.169411
 Thermal correction to Gibbs Free Energy=         0.124546
 Sum of electronic and zero-point Energies=           -423.057412
 Sum of electronic and thermal Energies=              -423.048202
 Sum of electronic and thermal Enthalpies=            -423.047258
 Sum of electronic and thermal Free Energies=         -423.092123

                     E (Thermal)             CV                S
                      KCal/Mol        Cal/Mol-Kelvin    Cal/Mol-Kelvin
 Total                  105.715             33.491             94.426
 Electronic               0.000              0.000              0.000
 Translational            0.889              2.981             40.409
 Rotational               0.889              2.981             29.106
 Vibrational            103.937             27.529             24.911
 Vibration     1          0.597              1.974              4.467
 Vibration     2          0.597              1.971              4.295
 Vibration     3          0.618              1.903              2.673
 Vibration     4          0.624              1.882              2.461
 Vibration     5          0.640              1.833              2.090
 Vibration     6          0.663              1.763              1.730
 Vibration     7          0.714              1.612              1.251
 Vibration     8          0.728              1.571              1.158
 Vibration     9          0.778              1.439              0.911
 Vibration    10          0.798              1.388              0.834
 Vibration    11          0.980              0.990              0.417

 Normal termination of Gaussian 09 at Mon Jan 27 10:57:53 2020.
