 Gaussian 09, Revision D.01,
 Gaussian 09:  ES64L-G09RevD.01 24-Apr-2013

 -----------------------------
 # b3lyp 6-31G(2df,p) opt Freq
 -----------------------------

 -----
 titel
 -----
 Symbolic Z-matrix:
 Charge =  0 Multiplicity = 1

 SCF Done:  E(RB3LYP) =  -423.085884152     A.U. after   13 cycles
 Optimization completed.
    -- Stationary point found.
 Normal termination of Gaussian 09 at Mon Jan 27 23:06:28 2020.

 ----------------------------------------------------------------------
 #N Geom=AllCheck Guess=TCheck SCRF=Check GenChk RB3LYP/6-31G(2df,p) Fr
 eq
 ----------------------------------------------------------------------

 Structure from the checkpoint file:  "/scratch/puck/g09_06e9c9ee-5627-4f8b-b838-6457a990dea7/Gau-81801.chk"
 -----
 titel
 -----
 Charge =  0 Multiplicity = 1

                         Standard orientation:
 ---------------------------------------------------------------------
 Center     Atomic      Atomic             Coordinates (Angstroms)
 Number     Number       Type             X           Y           Z
 ---------------------------------------------------------------------
      1          8           0        0.650469    1.992313   -0.120157
      2          6           0        1.398921    0.840711    0.082921
      3          6           0        0.932151   -0.402624    0.916070
      4          8           0        2.021288   -1.146832    0.255202
      5          6           0        1.351438   -0.417018   -0.841807
      6          6           0       -0.012634   -0.867337   -0.237429
      7          6           0       -1.338074   -0.211168   -0.579086
      8          6           0       -2.602715   -0.716664    0.067257
      9          6           0       -2.102928    0.658884    0.411196
     10          1           0       -0.265129    1.744716   -0.290307
     11          1           0        2.419485    1.139999    0.325438
     12          1           0        0.824215   -0.530517    1.994534
     13          1           0        1.735771   -0.566827   -1.852159
     14          1           0       -0.089336   -1.958563   -0.257600
     15          1           0       -1.440902    0.069282   -1.624889
     16          1           0       -3.494717   -0.804826   -0.542425
     17          1           0       -2.498765   -1.489242    0.822451
     18          1           0       -2.652275    1.516175    0.035435
     19          1           0       -1.669356    0.807248    1.394430
 ---------------------------------------------------------------------

 SCF Done:  E(RB3LYP) =  -423.085884152     A.U. after    1 cycles

 The electronic state is 1-A.
 Alpha  occ. eigenvalues --  -19.14023 -19.13743 -10.24432 -10.24240 -10.23901
 Alpha  occ. eigenvalues --  -10.20939 -10.20333 -10.20317 -10.19865  -1.06427
 Alpha  occ. eigenvalues --   -1.02205  -0.87260  -0.77368  -0.68771  -0.65409
 Alpha  occ. eigenvalues --   -0.62053  -0.60366  -0.56014  -0.52072  -0.50910
 Alpha  occ. eigenvalues --   -0.48976  -0.45899  -0.41726  -0.41158  -0.38590
 Alpha  occ. eigenvalues --   -0.37910  -0.37568  -0.36437  -0.34366  -0.32113
 Alpha  occ. eigenvalues --   -0.30155  -0.29164  -0.26161  -0.24088
 Alpha virt. eigenvalues --    0.06499   0.08074   0.09156   0.10036   0.11892
 Alpha virt. eigenvalues --    0.12220   0.13330   0.15183   0.15963   0.16212
 Alpha virt. eigenvalues --    0.16843   0.17757   0.18417   0.20934   0.22228

 Mulliken charges:
               1
     1  O   -0.432825
     2  C    0.154107
     3  C   -0.039601
     4  O   -0.296463
     5  C   -0.038484
     6  C    0.016024
     7  C   -0.085696
     8  C   -0.280606
     9  C   -0.273402
    10  H    0.299510
    11  H    0.104582
    12  H    0.090423
    13  H    0.090371
    14  H    0.090477
    15  H    0.102388
    16  H    0.119334
    17  H    0.121039
    18  H    0.125102
    19  H    0.133720
 Sum of Mulliken charges =   0.00000

 Dipole moment (field-independent basis, Debye):
    X=             -2.6228    Y=             -0.2829    Z=             -0.4494  Tot=              2.6760
 Quadrupole moment (field-independent basis, Debye-Ang):
   XX=            -54.8212   YY=            -59.0162   ZZ=            -49.9438
   XY=              0.8346   XZ=             -0.0993   YZ=              0.1312

  Exact polarizability:  85.256   1.178  71.466  -0.661   0.425  67.605
 Approx polarizability: 114.466  -1.571 110.608  -1.245  -0.164 107.592

                      1                      2                      3
                      A                      A                      A
 Frequencies --     66.2357               157.1322               179.4024
 Red. masses --      2.4948                 3.2276                 4.1260
 Frc consts  --      0.0064                 0.0470                 0.0782
 IR Inten    --      1.2219                 0.1950                 0.8821

                      4                      5                      6
                      A                      A                      A
 Frequencies --    275.3985               328.9539               395.3507
 Red. masses --      4.0824                 3.0078                 3.3750
 Frc consts  --      0.1824                 0.1918                 0.3108
 IR Inten    --      0.7341                 0.4553                 0.6102

                      7                      8                      9
                      A                      A                      A
 Frequencies --    430.8120               455.7495               564.7070
 Red. masses --      1.6889                 1.9747                 4.1468
 Frc consts  --      0.1847                 0.2417                 0.7791
 IR Inten    --     35.4871                34.5588                 4.5473

                     10                     11                     12
                      A                      A                      A
 Frequencies --    622.3137               739.6606               791.8617
 Red. masses --      4.6210                 4.1378                 1.1434
 Frc consts  --      1.0544                 1.3338                 0.4224
 IR Inten    --      0.3461                17.8092                 0.5204

                     13                     14                     15
                      A                      A                      A
 Frequencies --    817.7430               833.7786               862.0416
 Red. masses --      1.2539                 2.8921                 2.8411
 Frc consts  --      0.4940                 1.1846                 1.2439
 IR Inten    --      5.9434                 5.5432                24.4798

                     16                     17                     18
                      A                      A                      A
 Frequencies --    878.0844               891.6284               897.2598
 Red. masses --      2.8120                 2.4268                 3.3706
 Frc consts  --      1.2774                 1.1367                 1.5988
 IR Inten    --      2.0561                11.4028                 6.0715

                     19                     20                     21
                      A                      A                      A
 Frequencies --    913.1446               975.9874              1024.0493
 Red. masses --      4.0761                 3.2813                 1.2097
 Frc consts  --      2.0025                 1.8416                 0.7474
 IR Inten    --      4.1535                 5.6909                 1.0369

                     22                     23                     24
                      A                      A                      A
 Frequencies --   1044.0799              1063.6283              1090.7016
 Red. masses --      2.0327                 1.3959                 1.3479
 Frc consts  --      1.3055                 0.9304                 0.9447
 IR Inten    --     14.2821                 4.4505                 1.6115

                     25                     26                     27
                      A                      A                      A
 Frequencies --   1116.8336              1129.5514              1143.1396
 Red. masses --      3.3980                 1.3294                 1.1453
 Frc consts  --      2.4972                 0.9993                 0.8818
 IR Inten    --     49.2106                13.1191                 1.3404

                     28                     29                     30
                      A                      A                      A
 Frequencies --   1152.1885              1184.5451              1203.0315
 Red. masses --      1.6068                 2.4843                 1.3796
 Frc consts  --      1.2568                 2.0538                 1.1764
 IR Inten    --     19.7027                66.8642                 0.8999

                     31                     32                     33
                      A                      A                      A
 Frequencies --   1204.6196              1224.1218              1236.0103
 Red. masses --      1.4274                 1.6772                 1.7580
 Frc consts  --      1.2204                 1.4807                 1.5824
 IR Inten    --      4.7871                 5.0366                20.1542

                     34                     35                     36
                      A                      A                      A
 Frequencies --   1249.5578              1288.4267              1295.3873
 Red. masses --      1.3562                 1.9260                 1.4152
 Frc consts  --      1.2476                 1.8838                 1.3992
 IR Inten    --      5.5469                 9.1980                15.9419

                     37                     38                     39
                      A                      A                      A
 Frequencies --   1364.1573              1395.5170              1446.5512
 Red. masses --      1.3596                 1.9380                 1.2823
 Frc consts  --      1.4907                 2.2237                 1.5809
 IR Inten    --     19.5065                 3.0538                65.2995

                     40                     41                     42
                      A                      A                      A
 Frequencies --   1470.4983              1502.8375              3066.6477
 Red. masses --      1.0862                 1.3135                 1.0843
 Frc consts  --      1.3839                 1.7479                 6.0078
 IR Inten    --      1.7939                 1.6916                22.0770

                     43                     44                     45
                      A                      A                      A
 Frequencies --   3101.4188              3105.7669              3121.0140
 Red. masses --      1.0895                 1.0907                 1.0920
 Frc consts  --      6.1746                 6.1985                 6.2668
 IR Inten    --     78.4214                14.6570                34.4254

                     46                     47                     48
                      A                      A                      A
 Frequencies --   3128.6031              3130.0881              3134.5702
 Red. masses --      1.0566                 1.0722                 1.0675
 Frc consts  --      6.0933                 6.1890                 6.1797
 IR Inten    --     13.9592                11.8788                 4.6055

                     49                     50                     51
                      A                      A                      A
 Frequencies --   3209.1613              3224.5663              3794.8825
 Red. masses --      1.1177                 1.1156                 1.0647
 Frc consts  --      6.7821                 6.8347                 9.0338
 IR Inten    --      0.3283                14.4822               121.8914

 - Thermochemistry -
 -------------------
 Temperature   298.150 Kelvin.  Pressure   1.00000 Atm.
 Atom     1 has atomic number  8 and mass  15.99491

 Molecular mass:   126.06808 amu.
 Principal axes and moments of inertia in atomic units:
                           1         2         3
     Eigenvalues --   616.737431298.943521629.77451
           X            0.99993   0.01101  -0.00317
           Y           -0.01099   0.99992   0.00674
           Z            0.00325  -0.00671   0.99997
 This molecule is an asymmetric top.
 Rotational symmetry number  1.
 Warning -- assumption of classical behavior for rotation
           may cause significant error
 Rotational temperatures (Kelvin)      0.14044     0.06668     0.05314
 Rotational constants (GHZ):           2.92627     1.38939     1.10736
 Zero-point vibrational energy     418234.8 (Joules/Mol)
                                   99.96052 (Kcal/Mol)
 Warning -- explicit consideration of   9 degrees of freedom as
           vibrations may cause significant error
 Vibrational temperatures:     95.30   226.08   258.12   396.24   473.29
          (Kelvin)            568.82   619.84   655.72   812.49   895.37
                             1064.21  1139.31  1176.55  1199.62  1240.28
                             1263.37  1282.85  1290.96  1313.81  1404.23
                             1473.38  1502.20  1530.32  1569.27  1606.87
                             1625.17  1644.72  1657.74  1704.29  1730.89
                             1733.18  1761.24  1778.34  1797.83  1853.76
                             1863.77  1962.72  2007.84  2081.26  2115.72
                             2162.25  4412.22  4462.24  4468.50  4490.44
                             4501.36  4503.49  4509.94  4617.26  4639.43
                             5459.98

 Zero-point correction=                           0.159297 (Hartree/Particle)
 Thermal correction to Energy=                    0.167175
 Thermal correction to Enthalpy=                  0.168119
 Thermal correction to Gibbs Free Energy=         0.126693
 Sum of electronic and zero-point Energies=           -422.926587
 Sum of electronic and thermal Energies=              -422.918709
 Sum of electronic and thermal Enthalpies=            -422.917765
 Sum of electronic and thermal Free Energies=         -422.959191

                     E (Thermal)             CV                S
                      KCal/Mol        Cal/Mol-Kelvin    Cal/Mol-Kelvin
 Total                  104.904             31.214             87.188
 Electronic               0.000              0.000              0.000
 Translational            0.889              2.981             40.409
 Rotational               0.889              2.981             28.659
 Vibrational            103.127             25.252             18.121
 Vibration     1          0.598              1.970              4.262
 Vibration     2          0.621              1.895              2.584
 Vibration     3          0.629              1.868              2.335
 Vibration     4          0.677              1.719              1.562
 Vibration     5          0.712              1.618              1.265
 Vibration     6          0.762              1.480              0.980
 Vibration     7          0.792              1.403              0.856
 Vibration     8          0.814              1.348              0.779
 Vibration     9          0.921              1.108              0.515

 Normal termination of Gaussian 09 at Mon Jan 27 23:53:02 2020.
