 Gaussian 09, Revision D.01,
 Gaussian 09:  ES64L-G09RevD.01 24-Apr-2013

 -----------------------------
 # b3lyp 6-31G(2df,p) opt Freq
 -----------------------------

 -----
 titel
 -----
 Symbolic Z-matrix:
 Charge =  0 Multiplicity = 1

 SCF Done:  E(RB3LYP) =  -423.129412105     A.U. after   14 cycles
 Optimization completed.
    -- Stationary point found.
 Normal termination of Gaussian 09 at Tue Jan 28 08:12:04 2020.

 ----------------------------------------------------------------------
 #N Geom=AllCheck Guess=TCheck SCRF=Check GenChk RB3LYP/6-31G(2df,p) Fr
 eq
 ----------------------------------------------------------------------

 Structure from the checkpoint file:  "/scratch/puck/g09_f0598c2d-d4dd-4da5-aab0-dea2e25e9725/Gau-104652.chk"
 -----
 titel
 -----
 Charge =  0 Multiplicity = 1

                         Standard orientation:
 ---------------------------------------------------------------------
 Center     Atomic      Atomic             Coordinates (Angstroms)
 Number     Number       Type             X           Y           Z
 ---------------------------------------------------------------------
      1          6           0        1.701001    1.780752    0.083563
      2          6           0        1.116417    0.371662    0.041571
      3          6           0        1.711783   -0.649121    1.060394
      4          6           0        2.210381   -1.400389   -0.185848
      5          8           0        1.680447   -0.391340   -1.070183
      6          6           0       -0.342087    0.403523   -0.011735
      7          6           0       -1.546696    0.442511   -0.042203
      8          6           0       -3.007075    0.429887   -0.115244
      9          8           0       -3.581563   -0.835155    0.182160
     10          1           0        1.407398    2.336232   -0.811157
     11          1           0        1.337399    2.320809    0.963155
     12          1           0        2.792627    1.728333    0.121234
     13          1           0        2.491010   -0.227818    1.697531
     14          1           0        0.978685   -1.171624    1.673774
     15          1           0        3.296910   -1.501720   -0.288526
     16          1           0        1.745590   -2.378551   -0.359133
     17          1           0       -3.425505    1.126860    0.619537
     18          1           0       -3.321930    0.790667   -1.107607
     19          1           0       -3.155595   -1.484170   -0.387605
 ---------------------------------------------------------------------

 SCF Done:  E(RB3LYP) =  -423.129412105     A.U. after    1 cycles

 The electronic state is 1-A.
 Alpha  occ. eigenvalues --  -19.14133 -19.13283 -10.26247 -10.25292 -10.23216
 Alpha  occ. eigenvalues --  -10.19356 -10.18232 -10.18038 -10.17720  -1.03817
 Alpha  occ. eigenvalues --   -1.02310  -0.79225  -0.75405  -0.73540  -0.69143
 Alpha  occ. eigenvalues --   -0.64756  -0.57877  -0.52600  -0.50152  -0.48319
 Alpha  occ. eigenvalues --   -0.47132  -0.46577  -0.44457  -0.41966  -0.39883
 Alpha  occ. eigenvalues --   -0.39318  -0.37756  -0.35628  -0.33683  -0.31056
 Alpha  occ. eigenvalues --   -0.28824  -0.26562  -0.26144  -0.24842
 Alpha virt. eigenvalues --    0.02595   0.03284   0.08979   0.10078   0.11784
 Alpha virt. eigenvalues --    0.12289   0.12388   0.13009   0.15219   0.16846
 Alpha virt. eigenvalues --    0.17240   0.17676   0.18749   0.21005   0.21284

 Mulliken charges:
               1
     1  C   -0.429434
     2  C    0.219312
     3  C   -0.320178
     4  C   -0.065805
     5  O   -0.304709
     6  C    0.086791
     7  C    0.034240
     8  C   -0.196416
     9  O   -0.401336
    10  H    0.135585
    11  H    0.126153
    12  H    0.118298
    13  H    0.113484
    14  H    0.122886
    15  H    0.104731
    16  H    0.105451
    17  H    0.141074
    18  H    0.121453
    19  H    0.288418
 Sum of Mulliken charges =   0.00000

 Dipole moment (field-independent basis, Debye):
    X=              1.1135    Y=              0.0421    Z=              0.6813  Tot=              1.3060
 Quadrupole moment (field-independent basis, Debye-Ang):
   XX=            -54.3858   YY=            -49.0328   ZZ=            -55.1243
   XY=             -2.4108   XZ=              6.5470   YZ=              1.0669

  Exact polarizability: 109.807  -3.713  74.257   1.719   0.662  60.008
 Approx polarizability: 152.992  -4.647 100.471  -0.344   0.919  91.244

                      1                      2                      3
                      A                      A                      A
 Frequencies --     29.8592                52.2622                92.9006
 Red. masses --      2.9926                 2.7164                 3.1263
 Frc consts  --      0.0016                 0.0044                 0.0159
 IR Inten    --      2.7239                 0.8011                 0.1658

                      4                      5                      6
                      A                      A                      A
 Frequencies --    114.1204               191.8038               232.7665
 Red. masses --      3.1681                 3.6350                 1.1414
 Frc consts  --      0.0243                 0.0788                 0.0364
 IR Inten    --      5.7429                 1.8299                 1.1484

                      7                      8                      9
                      A                      A                      A
 Frequencies --    275.8382               321.4467               353.3559
 Red. masses --      1.9756                 1.6449                 2.3889
 Frc consts  --      0.0886                 0.1001                 0.1757
 IR Inten    --     24.9707                58.2052                46.7255

                     10                     11                     12
                      A                      A                      A
 Frequencies --    357.8714               447.2018               539.2868
 Red. masses --      2.9352                 4.6398                 5.8189
 Frc consts  --      0.2215                 0.5467                 0.9971
 IR Inten    --      3.6672                 7.6451                 1.2647

                     13                     14                     15
                      A                      A                      A
 Frequencies --    586.2535               614.9336               775.0307
 Red. masses --      5.6962                 5.3054                 1.3214
 Frc consts  --      1.1535                 1.1820                 0.4676
 IR Inten    --      5.2653                12.4326                 0.0821

                     16                     17                     18
                      A                      A                      A
 Frequencies --    824.7817               870.5809               892.4331
 Red. masses --      2.0779                 3.8158                 2.4037
 Frc consts  --      0.8328                 1.7039                 1.1279
 IR Inten    --      1.4055                29.9392                 6.5113

                     19                     20                     21
                      A                      A                      A
 Frequencies --    973.0386               981.6493               996.7772
 Red. masses --      1.8806                 1.6362                 2.1496
 Frc consts  --      1.0491                 0.9289                 1.2584
 IR Inten    --      3.7327                32.3278                22.2439

                     22                     23                     24
                      A                      A                      A
 Frequencies --   1024.3572              1030.1813              1079.7282
 Red. masses --      6.0286                 3.5394                 3.4634
 Frc consts  --      3.7271                 2.2132                 2.3789
 IR Inten    --    105.8302                38.7482                48.4245

                     25                     26                     27
                      A                      A                      A
 Frequencies --   1118.9702              1162.0518              1190.8386
 Red. masses --      2.2505                 1.2144                 3.1184
 Frc consts  --      1.6602                 0.9662                 2.6055
 IR Inten    --     23.1850                 3.0390                14.3372

                     28                     29                     30
                      A                      A                      A
 Frequencies --   1212.8170              1216.2231              1259.7769
 Red. masses --      1.2768                 1.1376                 1.5317
 Frc consts  --      1.1065                 0.9914                 1.4322
 IR Inten    --      2.1567                15.6273                 7.9030

                     31                     32                     33
                      A                      A                      A
 Frequencies --   1288.6324              1349.3582              1360.2080
 Red. masses --      2.8668                 1.3921                 1.2187
 Frc consts  --      2.8048                 1.4934                 1.3284
 IR Inten    --     80.2918                 2.0772                 6.5014

                     34                     35                     36
                      A                      A                      A
 Frequencies --   1399.8999              1417.5065              1478.5230
 Red. masses --      1.2529                 1.2290                 1.0537
 Frc consts  --      1.4467                 1.4550                 1.3571
 IR Inten    --      4.3135                99.8204                 4.0193

                     37                     38                     39
                      A                      A                      A
 Frequencies --   1485.3569              1488.9069              1491.1894
 Red. masses --      1.0786                 1.0776                 1.0710
 Frc consts  --      1.4021                 1.4075                 1.4031
 IR Inten    --      2.7130                 0.7177                 1.1119

                     40                     41                     42
                      A                      A                      A
 Frequencies --   1531.8832              2349.9942              2977.2194
 Red. masses --      1.1038                11.9225                 1.0712
 Frc consts  --      1.5261                38.7929                 5.5940
 IR Inten    --      1.4168                 0.5517                47.7825

                     43                     44                     45
                      A                      A                      A
 Frequencies --   3020.4327              3041.2476              3060.1096
 Red. masses --      1.0556                 1.0338                 1.1105
 Frc consts  --      5.6741                 5.6338                 6.1267
 IR Inten    --     87.0145                11.2056                34.0055

                     46                     47                     48
                      A                      A                      A
 Frequencies --   3062.1005              3086.6159              3119.5550
 Red. masses --      1.0884                 1.0609                 1.1022
 Frc consts  --      6.0131                 5.9551                 6.3198
 IR Inten    --     16.3274                21.8294                18.2127

                     49                     50                     51
                      A                      A                      A
 Frequencies --   3125.1662              3150.0795              3816.2081
 Red. masses --      1.1025                 1.1082                 1.0663
 Frc consts  --      6.3443                 6.4789                 9.1492
 IR Inten    --     16.0510                18.0532                20.1837

 - Thermochemistry -
 -------------------
 Temperature   298.150 Kelvin.  Pressure   1.00000 Atm.
 Atom     1 has atomic number  6 and mass  12.00000

 Molecular mass:   126.06808 amu.
 Principal axes and moments of inertia in atomic units:
                           1         2         3
     Eigenvalues --   564.657982287.373142550.37951
           X            0.99990  -0.00273   0.01358
           Y            0.00275   1.00000  -0.00140
           Z           -0.01358   0.00144   0.99991
 This molecule is an asymmetric top.
 Rotational symmetry number  1.
 Warning -- assumption of classical behavior for rotation
           may cause significant error
 Rotational temperatures (Kelvin)      0.15339     0.03787     0.03396
 Rotational constants (GHZ):           3.19617     0.78900     0.70764
 Zero-point vibrational energy     412229.1 (Joules/Mol)
                                   98.52513 (Kcal/Mol)
 Warning -- explicit consideration of  14 degrees of freedom as
           vibrations may cause significant error
 Vibrational temperatures:     42.96    75.19   133.66   164.19   275.96
          (Kelvin)            334.90   396.87   462.49   508.40   514.90
                              643.42   775.91   843.49   884.75  1115.09
                             1186.68  1252.57  1284.01  1399.98  1412.37
                             1434.14  1473.82  1482.20  1553.49  1609.95
                             1671.93  1713.35  1744.97  1749.87  1812.54
                             1854.05  1941.42  1957.03  2014.14  2039.47
                             2127.26  2137.09  2142.20  2145.49  2204.04
                             3381.11  4283.55  4345.72  4375.67  4402.81
                             4405.67  4440.95  4488.34  4496.41  4532.26
                             5490.67

 Zero-point correction=                           0.157010 (Hartree/Particle)
 Thermal correction to Energy=                    0.167088
 Thermal correction to Enthalpy=                  0.168032
 Thermal correction to Gibbs Free Energy=         0.120275
 Sum of electronic and zero-point Energies=           -422.972402
 Sum of electronic and thermal Energies=              -422.962324
 Sum of electronic and thermal Enthalpies=            -422.961380
 Sum of electronic and thermal Free Energies=         -423.009137

                     E (Thermal)             CV                S
                      KCal/Mol        Cal/Mol-Kelvin    Cal/Mol-Kelvin
 Total                  104.849             35.320            100.512
 Electronic               0.000              0.000              0.000
 Translational            0.889              2.981             40.409
 Rotational               0.889              2.981             29.578
 Vibrational            103.072             29.358             30.526
 Vibration     1          0.594              1.984              5.839
 Vibration     2          0.596              1.977              4.730
 Vibration     3          0.602              1.954              3.598
 Vibration     4          0.607              1.938              3.198
 Vibration     5          0.634              1.851              2.210
 Vibration     6          0.654              1.791              1.858
 Vibration     7          0.677              1.718              1.559
 Vibration     8          0.707              1.632              1.303
 Vibration     9          0.730              1.568              1.151
 Vibration    10          0.733              1.559              1.131
 Vibration    11          0.806              1.367              0.804
 Vibration    12          0.894              1.163              0.567
 Vibration    13          0.943              1.061              0.474
 Vibration    14          0.974              1.000              0.425

 Optimization completed.
    -- Stationary point found.
 Normal termination of Gaussian 09 at Tue Jan 28 08:45:40 2020.
