 Gaussian 09, Revision D.01,
 Gaussian 09:  ES64L-G09RevD.01 24-Apr-2013

 -----------------------------
 # b3lyp 6-31G(2df,p) opt Freq
 -----------------------------

 -----
 titel
 -----
 Symbolic Z-matrix:
 Charge =  0 Multiplicity = 1

 SCF Done:  E(RB3LYP) =  -423.225013521     A.U. after   14 cycles
 Optimization completed.
    -- Stationary point found.
 Normal termination of Gaussian 09 at Mon Jan 27 17:53:40 2020.

 ----------------------------------------------------------------------
 #N Geom=AllCheck Guess=TCheck SCRF=Check GenChk RB3LYP/6-31G(2df,p) Fr
 eq
 ----------------------------------------------------------------------

 Structure from the checkpoint file:  "/scratch/puck/g09_5ecb224c-d87f-428d-912a-19c285aa242e/Gau-87870.chk"
 -----
 titel
 -----
 Charge =  0 Multiplicity = 1

                         Standard orientation:
 ---------------------------------------------------------------------
 Center     Atomic      Atomic             Coordinates (Angstroms)
 Number     Number       Type             X           Y           Z
 ---------------------------------------------------------------------
      1          6           0       -2.156316   -1.221851   -0.469037
      2          6           0       -1.047719   -0.341980    0.046024
      3          6           0       -1.303635    0.673142    1.127897
      4          6           0       -0.967494    1.117845   -0.288956
      5          6           0        0.392132    1.689562   -0.628288
      6          6           0        1.513415    0.945095    0.107406
      7          6           0        1.398670   -0.568716    0.053770
      8          8           0        2.346953   -1.304484    0.015506
      9          8           0        0.153008   -1.109133    0.087157
     10          1           0       -2.275282   -2.101667    0.170685
     11          1           0       -3.102116   -0.673766   -0.483564
     12          1           0       -1.937774   -1.566119   -1.484685
     13          1           0       -2.323017    0.796692    1.476919
     14          1           0       -0.554241    0.791307    1.902274
     15          1           0       -1.791319    1.515793   -0.874732
     16          1           0        0.548917    1.602671   -1.710522
     17          1           0        0.439581    2.758060   -0.390335
     18          1           0        2.497983    1.200474   -0.287601
     19          1           0        1.523264    1.226901    1.167357
 ---------------------------------------------------------------------

 SCF Done:  E(RB3LYP) =  -423.225013521     A.U. after    1 cycles

 The electronic state is 1-A.
 Alpha  occ. eigenvalues --  -19.17812 -19.11309 -10.30194 -10.25843 -10.20598
 Alpha  occ. eigenvalues --  -10.20434 -10.20294 -10.19652 -10.18786  -1.09344
 Alpha  occ. eigenvalues --   -1.01237  -0.87524  -0.79716  -0.72735  -0.68165
 Alpha  occ. eigenvalues --   -0.63387  -0.59766  -0.51949  -0.51010  -0.50136
 Alpha  occ. eigenvalues --   -0.46459  -0.43988  -0.43898  -0.41961  -0.41428
 Alpha  occ. eigenvalues --   -0.39996  -0.39462  -0.37263  -0.36337  -0.35326
 Alpha  occ. eigenvalues --   -0.33126  -0.28964  -0.26662  -0.25357
 Alpha virt. eigenvalues --    0.01377   0.07121   0.09007   0.11415   0.12247
 Alpha virt. eigenvalues --    0.12512   0.14017   0.15278   0.15781   0.17167
 Alpha virt. eigenvalues --    0.17596   0.18276   0.19490   0.20070   0.22322

 Mulliken charges:
               1
     1  C   -0.442742
     2  C    0.426175
     3  C   -0.347594
     4  C   -0.080700
     5  C   -0.234187
     6  C   -0.355314
     7  C    0.399472
     8  O   -0.323026
     9  O   -0.263364
    10  H    0.135335
    11  H    0.118205
    12  H    0.130321
    13  H    0.118697
    14  H    0.121106
    15  H    0.094000
    16  H    0.116600
    17  H    0.111298
    18  H    0.137629
    19  H    0.138089
 Sum of Mulliken charges =   0.00000

 Dipole moment (field-independent basis, Debye):
    X=             -2.8591    Y=              3.2052    Z=             -0.0968  Tot=              4.2962
 Quadrupole moment (field-independent basis, Debye-Ang):
   XX=            -56.3298   YY=            -56.2017   ZZ=            -51.1914
   XY=              6.4868   XZ=              0.3493   YZ=              0.1386

  Exact polarizability:  87.583  -0.260  75.222  -1.558   0.353  64.042
 Approx polarizability: 121.842  -7.184 109.210  -3.064   0.688  98.609

                      1                      2                      3
                      A                      A                      A
 Frequencies --     94.4469               169.2586               216.3732
 Red. masses --      5.0319                 3.1437                 1.1526
 Frc consts  --      0.0264                 0.0531                 0.0318
 IR Inten    --      0.9745                 2.9267                 0.1935

                      4                      5                      6
                      A                      A                      A
 Frequencies --    237.5229               297.7622               373.2793
 Red. masses --      1.7617                 2.7980                 3.1342
 Frc consts  --      0.0586                 0.1462                 0.2573
 IR Inten    --      0.4091                 0.5461                 0.1886

                      7                      8                      9
                      A                      A                      A
 Frequencies --    384.6476               477.5622               486.6580
 Red. masses --      3.0761                 2.8040                 4.1995
 Frc consts  --      0.2682                 0.3768                 0.5860
 IR Inten    --      0.3735                 2.0839                 2.9630

                     10                     11                     12
                      A                      A                      A
 Frequencies --    530.7948               570.3117               652.7939
 Red. masses --      3.8477                 2.4257                 4.5966
 Frc consts  --      0.6387                 0.4648                 1.1541
 IR Inten    --      6.7402                 1.1474                 5.4078

                     13                     14                     15
                      A                      A                      A
 Frequencies --    733.3239               770.5647               817.1554
 Red. masses --      2.6121                 2.3695                 2.5019
 Frc consts  --      0.8276                 0.8290                 0.9843
 IR Inten    --      8.4200                 2.7826                 5.3864

                     16                     17                     18
                      A                      A                      A
 Frequencies --    880.0616               904.8234               935.1866
 Red. masses --      1.6574                 2.0617                 1.6502
 Frc consts  --      0.7563                 0.9945                 0.8503
 IR Inten    --      1.5227                14.3976                 7.3543

                     19                     20                     21
                      A                      A                      A
 Frequencies --    960.5923               984.2198              1036.3554
 Red. masses --      2.0463                 2.5945                 1.9178
 Frc consts  --      1.1125                 1.4808                 1.2136
 IR Inten    --      1.2217                12.2540                 8.8769

                     22                     23                     24
                      A                      A                      A
 Frequencies --   1044.2969              1081.9978              1097.5809
 Red. masses --      1.2993                 1.9804                 1.4493
 Frc consts  --      0.8348                 1.3660                 1.0287
 IR Inten    --     11.4978                 6.6575                40.3230

                     25                     26                     27
                      A                      A                      A
 Frequencies --   1129.2212              1142.5172              1195.2280
 Red. masses --      1.6416                 2.0461                 1.9265
 Frc consts  --      1.2333                 1.5736                 1.6215
 IR Inten    --      1.4352                19.6693               125.2592

                     28                     29                     30
                      A                      A                      A
 Frequencies --   1221.4047              1254.1989              1266.4421
 Red. masses --      1.6695                 2.6459                 1.7653
 Frc consts  --      1.4674                 2.4522                 1.6682
 IR Inten    --     86.5828                 8.6370                79.2713

                     31                     32                     33
                      A                      A                      A
 Frequencies --   1314.8653              1348.4145              1378.8998
 Red. masses --      1.8250                 1.4596                 1.6459
 Frc consts  --      1.8590                 1.5636                 1.8439
 IR Inten    --     35.9785                 1.0668                41.8753

                     34                     35                     36
                      A                      A                      A
 Frequencies --   1409.7177              1428.5444              1475.1239
 Red. masses --      1.3045                 1.5576                 1.2369
 Frc consts  --      1.5275                 1.8728                 1.5858
 IR Inten    --      4.5893                13.7023                 4.2581

                     37                     38                     39
                      A                      A                      A
 Frequencies --   1479.6075              1490.6487              1498.6041
 Red. masses --      1.0553                 1.1687                 1.0780
 Frc consts  --      1.3612                 1.5301                 1.4264
 IR Inten    --      2.4640                12.2195                 0.8023

                     40                     41                     42
                      A                      A                      A
 Frequencies --   1509.8964              1843.9015              3028.7732
 Red. masses --      1.2876                12.3617                 1.0607
 Frc consts  --      1.7295                24.7630                 5.7327
 IR Inten    --      6.9040               355.8781                33.8935

                     43                     44                     45
                      A                      A                      A
 Frequencies --   3040.8888              3045.7656              3067.2791
 Red. masses --      1.0350                 1.0720                 1.0983
 Frc consts  --      5.6390                 5.8594                 6.0882
 IR Inten    --     19.4059                 7.0962                25.5575

                     46                     47                     48
                      A                      A                      A
 Frequencies --   3109.9566              3121.8185              3122.4155
 Red. masses --      1.1019                 1.1013                 1.0937
 Frc consts  --      6.2792                 6.3237                 6.2827
 IR Inten    --     15.6518                14.1903                 9.8990

                     49                     50                     51
                      A                      A                      A
 Frequencies --   3137.2189              3146.3449              3222.3510
 Red. masses --      1.0554                 1.0888                 1.1161
 Frc consts  --      6.1198                 6.3505                 6.8278
 IR Inten    --      9.7775                14.0410                 7.4062

 - Thermochemistry -
 -------------------
 Temperature   298.150 Kelvin.  Pressure   1.00000 Atm.
 Atom     1 has atomic number  6 and mass  12.00000

 Molecular mass:   126.06808 amu.
 Principal axes and moments of inertia in atomic units:
                           1         2         3
     Eigenvalues --   699.873941132.105201563.31437
           X            0.99547   0.09497   0.00469
           Y           -0.09501   0.99545   0.00772
           Z           -0.00393  -0.00813   0.99996
 This molecule is an asymmetric top.
 Rotational symmetry number  1.
 Warning -- assumption of classical behavior for rotation
           may cause significant error
 Rotational temperatures (Kelvin)      0.12376     0.07651     0.05540
 Rotational constants (GHZ):           2.57867     1.59415     1.15443
 Zero-point vibrational energy     419695.6 (Joules/Mol)
                                  100.30964 (Kcal/Mol)
 Warning -- explicit consideration of  11 degrees of freedom as
           vibrations may cause significant error
 Vibrational temperatures:    135.89   243.53   311.31   341.74   428.41
          (Kelvin)            537.07   553.42   687.10   700.19   763.69
                              820.55   939.22  1055.09  1108.67  1175.70
                             1266.21  1301.84  1345.52  1382.08  1416.07
                             1491.08  1502.51  1556.75  1579.17  1624.70
                             1643.83  1719.66  1757.33  1804.51  1822.13
                             1891.80  1940.07  1983.93  2028.27  2055.35
                             2122.37  2128.82  2144.71  2156.15  2172.40
                             2652.96  4357.72  4375.16  4382.17  4413.12
                             4474.53  4491.59  4492.45  4513.75  4526.88
                             4636.24

 Zero-point correction=                           0.159854 (Hartree/Particle)
 Thermal correction to Energy=                    0.167940
 Thermal correction to Enthalpy=                  0.168884
 Thermal correction to Gibbs Free Energy=         0.127435
 Sum of electronic and zero-point Energies=           -423.065160
 Sum of electronic and thermal Energies=              -423.057073
 Sum of electronic and thermal Enthalpies=            -423.056129
 Sum of electronic and thermal Free Energies=         -423.097578

                     E (Thermal)             CV                S
                      KCal/Mol        Cal/Mol-Kelvin    Cal/Mol-Kelvin
 Total                  105.384             31.739             87.237
 Electronic               0.000              0.000              0.000
 Translational            0.889              2.981             40.409
 Rotational               0.889              2.981             28.606
 Vibrational            103.607             25.777             18.222
 Vibration     1          0.603              1.953              3.566
 Vibration     2          0.625              1.880              2.444
 Vibration     3          0.645              1.816              1.989
 Vibration     4          0.656              1.783              1.821
 Vibration     5          0.691              1.678              1.429
 Vibration     6          0.745              1.527              1.066
 Vibration     7          0.754              1.503              1.021
 Vibration     8          0.834              1.300              0.717
 Vibration     9          0.843              1.280              0.692
 Vibration    10          0.886              1.182              0.585
 Vibration    11          0.926              1.095              0.504

 Optimization completed.
    -- Stationary point found.
 Normal termination of Gaussian 09 at Mon Jan 27 18:37:47 2020.
