 Gaussian 09, Revision D.01,
 Gaussian 09:  ES64L-G09RevD.01 24-Apr-2013

 -----------------------------
 # b3lyp 6-31G(2df,p) opt Freq
 -----------------------------

 -----
 titel
 -----
 Symbolic Z-matrix:
 Charge =  0 Multiplicity = 1

 SCF Done:  E(RB3LYP) =  -423.172673170     A.U. after   14 cycles
 Optimization completed.
    -- Stationary point found.
 Normal termination of Gaussian 09 at Tue Jan 28 02:22:48 2020.

 ----------------------------------------------------------------------
 #N Geom=AllCheck Guess=TCheck SCRF=Check GenChk RB3LYP/6-31G(2df,p) Fr
 eq
 ----------------------------------------------------------------------

 Structure from the checkpoint file:  "/scratch/puck/g09_7ac6a662-9778-43a0-b56e-0c54a38d9d79/Gau-86230.chk"
 -----
 titel
 -----
 Charge =  0 Multiplicity = 1

                         Standard orientation:
 ---------------------------------------------------------------------
 Center     Atomic      Atomic             Coordinates (Angstroms)
 Number     Number       Type             X           Y           Z
 ---------------------------------------------------------------------
      1          6           0        2.842815   -0.488756   -0.701333
      2          6           0        1.685145   -0.512242    0.289018
      3          6           0        1.245435    0.904158    0.808756
      4          6           0       -0.109547    0.681237    0.152036
      5          8           0       -0.832702    1.702667   -0.387940
      6          6           0       -0.766257   -0.589488    0.748610
      7          6           0       -2.154743   -0.795667    0.327838
      8          8           0       -2.641750   -0.332870   -0.691691
      9          6           0        0.302154   -0.669894   -0.363463
     10          1           0        2.999376   -1.476164   -1.148768
     11          1           0        2.651854    0.220957   -1.513849
     12          1           0        3.773040   -0.191350   -0.205973
     13          1           0        1.885415   -1.239500    1.084529
     14          1           0        1.246043    1.078967    1.888258
     15          1           0        1.801749    1.704795    0.314961
     16          1           0       -1.607537    1.297444   -0.817391
     17          1           0       -0.513894   -0.948793    1.744396
     18          1           0       -2.781071   -1.401713    1.014284
     19          1           0        0.070624   -1.179112   -1.292167
 ---------------------------------------------------------------------

 SCF Done:  E(RB3LYP) =  -423.172673170     A.U. after    1 cycles

 The electronic state is 1-A.
 Alpha  occ. eigenvalues --  -19.14476 -19.14340 -10.27667 -10.25855 -10.20429
 Alpha  occ. eigenvalues --  -10.20370 -10.20322 -10.19130 -10.18318  -1.05505
 Alpha  occ. eigenvalues --   -1.03225  -0.90058  -0.77424  -0.71305  -0.66532
 Alpha  occ. eigenvalues --   -0.61781  -0.57033  -0.54770  -0.51734  -0.50114
 Alpha  occ. eigenvalues --   -0.47319  -0.44337  -0.43415  -0.41595  -0.40017
 Alpha  occ. eigenvalues --   -0.39654  -0.38359  -0.37228  -0.35220  -0.33839
 Alpha  occ. eigenvalues --   -0.32703  -0.28481  -0.26428  -0.23610
 Alpha virt. eigenvalues --   -0.03340   0.09260   0.09454   0.12063   0.12577
 Alpha virt. eigenvalues --    0.12988   0.13784   0.14642   0.15653   0.16135
 Alpha virt. eigenvalues --    0.17290   0.17806   0.18786   0.20623   0.22430

 Mulliken charges:
               1
     1  C   -0.412524
     2  C    0.019160
     3  C   -0.314016
     4  C    0.453826
     5  O   -0.458230
     6  C   -0.217363
     7  C    0.131637
     8  O   -0.313749
     9  C   -0.135963
    10  H    0.118193
    11  H    0.124318
    12  H    0.119652
    13  H    0.071937
    14  H    0.102576
    15  H    0.120384
    16  H    0.304899
    17  H    0.087281
    18  H    0.093675
    19  H    0.104308
 Sum of Mulliken charges =   0.00000

 Dipole moment (field-independent basis, Debye):
    X=              1.7829    Y=             -1.6722    Z=              1.3886  Tot=              2.8112
 Quadrupole moment (field-independent basis, Debye-Ang):
   XX=            -55.3761   YY=            -55.3380   ZZ=            -52.1533
   XY=              1.3752   XZ=             -3.2247   YZ=             -0.6587

  Exact polarizability:  96.792   4.276  70.004  -0.250  -2.663  68.481
 Approx polarizability: 127.264   4.041 110.979   5.610  -6.815 109.852

                      1                      2                      3
                      A                      A                      A
 Frequencies --    118.4641               142.8380               203.9166
 Red. masses --      4.0536                 4.2417                 2.2333
 Frc consts  --      0.0335                 0.0510                 0.0547
 IR Inten    --      3.2312                 0.3390                15.9205

                      4                      5                      6
                      A                      A                      A
 Frequencies --    224.6016               253.3738               317.6685
 Red. masses --      3.1359                 1.2395                 2.6889
 Frc consts  --      0.0932                 0.0469                 0.1599
 IR Inten    --      0.0448                 0.8434                 7.2520

                      7                      8                      9
                      A                      A                      A
 Frequencies --    332.4412               401.1972               427.0619
 Red. masses --      3.2682                 3.4479                 3.4784
 Frc consts  --      0.2128                 0.3270                 0.3738
 IR Inten    --      1.9640                 6.2290                 3.0979

                     10                     11                     12
                      A                      A                      A
 Frequencies --    446.7150               606.2489               642.6477
 Red. masses --      2.2894                 1.1144                 5.1739
 Frc consts  --      0.2692                 0.2413                 1.2590
 IR Inten    --      6.3533                94.5485                 2.2012

                     13                     14                     15
                      A                      A                      A
 Frequencies --    671.0740               726.0141               802.8194
 Red. masses --      2.9878                 4.2386                 2.8003
 Frc consts  --      0.7928                 1.3163                 1.0634
 IR Inten    --     10.7449                 5.8838                34.8415

                     16                     17                     18
                      A                      A                      A
 Frequencies --    870.1021               902.6951               930.6920
 Red. masses --      3.1648                 2.1018                 1.5069
 Frc consts  --      1.4117                 1.0091                 0.7690
 IR Inten    --     23.0054                 9.0119                13.2732

                     19                     20                     21
                      A                      A                      A
 Frequencies --    954.9171               981.3288              1000.0543
 Red. masses --      1.8231                 1.6185                 1.5909
 Frc consts  --      0.9795                 0.9183                 0.9374
 IR Inten    --     11.1572                 5.9061                 1.2404

                     22                     23                     24
                      A                      A                      A
 Frequencies --   1046.6861              1061.3540              1078.9826
 Red. masses --      2.2749                 1.7989                 1.7543
 Frc consts  --      1.4684                 1.1939                 1.2033
 IR Inten    --     74.4465                23.3711                 5.3091

                     25                     26                     27
                      A                      A                      A
 Frequencies --   1094.4407              1112.4352              1157.5077
 Red. masses --      1.5313                 1.6537                 1.8821
 Frc consts  --      1.0807                 1.2057                 1.4857
 IR Inten    --      7.8667                 3.9137                49.1475

                     28                     29                     30
                      A                      A                      A
 Frequencies --   1182.2825              1216.8310              1240.4656
 Red. masses --      1.4743                 1.6312                 1.5188
 Frc consts  --      1.2142                 1.4230                 1.3770
 IR Inten    --      0.5669                 7.9833                10.7431

                     31                     32                     33
                      A                      A                      A
 Frequencies --   1271.5311              1341.2954              1361.1033
 Red. masses --      1.4981                 1.6223                 1.5468
 Frc consts  --      1.4271                 1.7197                 1.6884
 IR Inten    --      2.6717               100.5643                21.7044

                     34                     35                     36
                      A                      A                      A
 Frequencies --   1399.1410              1414.6205              1426.1060
 Red. masses --      2.8883                 1.3492                 1.3511
 Frc consts  --      3.3313                 1.5908                 1.6190
 IR Inten    --    108.3164                16.0042                22.7529

                     37                     38                     39
                      A                      A                      A
 Frequencies --   1451.1225              1489.7044              1495.4479
 Red. masses --      1.7140                 1.1718                 1.0580
 Frc consts  --      2.1265                 1.5321                 1.3941
 IR Inten    --     83.3824                 1.1984                 5.0307

                     40                     41                     42
                      A                      A                      A
 Frequencies --   1500.8869              1754.0861              2920.1334
 Red. masses --      1.0562                 8.2648                 1.0844
 Frc consts  --      1.4018                14.9825                 5.4481
 IR Inten    --      2.0199               178.8725               125.0295

                     43                     44                     45
                      A                      A                      A
 Frequencies --   3028.3559              3030.4127              3058.1771
 Red. masses --      1.0355                 1.0837                 1.0594
 Frc consts  --      5.5953                 5.8635                 5.8378
 IR Inten    --     25.0954                31.6643                35.1635

                     46                     47                     48
                      A                      A                      A
 Frequencies --   3097.5147              3100.7880              3115.0433
 Red. masses --      1.1018                 1.1017                 1.1067
 Frc consts  --      6.2283                 6.2410                 6.3270
 IR Inten    --     26.3525                25.7341                18.3311

                     49                     50                     51
                      A                      A                      A
 Frequencies --   3123.3005              3181.6937              3625.7889
 Red. masses --      1.0897                 1.0928                 1.0646
 Frc consts  --      6.2629                 6.5180                 8.2457
 IR Inten    --     20.9381                 5.8059                99.5883

 - Thermochemistry -
 -------------------
 Temperature   298.150 Kelvin.  Pressure   1.00000 Atm.
 Atom     1 has atomic number  6 and mass  12.00000

 Molecular mass:   126.06808 amu.
 Principal axes and moments of inertia in atomic units:
                           1         2         3
     Eigenvalues --   536.301891553.322881735.31411
           X            0.99986  -0.00149  -0.01678
           Y            0.00150   1.00000   0.00008
           Z            0.01678  -0.00011   0.99986
 This molecule is an asymmetric top.
 Rotational symmetry number  1.
 Warning -- assumption of classical behavior for rotation
           may cause significant error
 Rotational temperatures (Kelvin)      0.16150     0.05576     0.04991
 Rotational constants (GHZ):           3.36516     1.16186     1.04001
 Zero-point vibrational energy     414710.1 (Joules/Mol)
                                   99.11809 (Kcal/Mol)
 Warning -- explicit consideration of  11 degrees of freedom as
           vibrations may cause significant error
 Vibrational temperatures:    170.44   205.51   293.39   323.15   364.55
          (Kelvin)            457.05   478.31   577.23   614.45   642.72
                              872.26   924.63   965.52  1044.57  1155.08
                             1251.88  1298.78  1339.06  1373.91  1411.91
                             1438.85  1505.95  1527.05  1552.41  1574.65
                             1600.54  1665.39  1701.04  1750.75  1784.75
                             1829.45  1929.82  1958.32  2013.05  2035.32
                             2051.85  2087.84  2143.35  2151.61  2159.44
                             2523.74  4201.42  4357.12  4360.08  4400.03
                             4456.63  4461.34  4481.85  4493.73  4577.74
                             5216.69

 Zero-point correction=                           0.157955 (Hartree/Particle)
 Thermal correction to Energy=                    0.166501
 Thermal correction to Enthalpy=                  0.167445
 Thermal correction to Gibbs Free Energy=         0.125136
 Sum of electronic and zero-point Energies=           -423.014718
 Sum of electronic and thermal Energies=              -423.006172
 Sum of electronic and thermal Enthalpies=            -423.005228
 Sum of electronic and thermal Free Energies=         -423.047537

                     E (Thermal)             CV                S
                      KCal/Mol        Cal/Mol-Kelvin    Cal/Mol-Kelvin
 Total                  104.481             33.060             89.047
 Electronic               0.000              0.000              0.000
 Translational            0.889              2.981             40.409
 Rotational               0.889              2.981             28.760
 Vibrational            102.704             27.099             19.879
 Vibration     1          0.609              1.934              3.125
 Vibration     2          0.616              1.910              2.766
 Vibration     3          0.640              1.834              2.097
 Vibration     4          0.649              1.804              1.922
 Vibration     5          0.665              1.757              1.707
 Vibration     6          0.704              1.640              1.322
 Vibration     7          0.714              1.611              1.248
 Vibration     8          0.767              1.468              0.958
 Vibration     9          0.789              1.411              0.868
 Vibration    10          0.806              1.368              0.806
 Vibration    11          0.965              1.019              0.439

 Optimization completed.
    -- Stationary point found.
 Normal termination of Gaussian 09 at Tue Jan 28 03:04:50 2020.
