 Gaussian 09, Revision D.01,
 Gaussian 09:  ES64L-G09RevD.01 24-Apr-2013

 -----------------------------
 # b3lyp 6-31G(2df,p) opt Freq
 -----------------------------

 -----
 titel
 -----
 Symbolic Z-matrix:
 Charge =  0 Multiplicity = 1

 SCF Done:  E(RB3LYP) =  -423.155736062     A.U. after   14 cycles
 Optimization completed.
    -- Stationary point found.
 Normal termination of Gaussian 09 at Mon Jan 27 13:41:42 2020.

 ----------------------------------------------------------------------
 #N Geom=AllCheck Guess=TCheck SCRF=Check GenChk RB3LYP/6-31G(2df,p) Fr
 eq
 ----------------------------------------------------------------------

 Structure from the checkpoint file:  "/scratch/puck/g09_fcc16cae-edfa-4ad5-88b1-124e9d0e6308/Gau-75869.chk"
 -----
 titel
 -----
 Charge =  0 Multiplicity = 1

                         Standard orientation:
 ---------------------------------------------------------------------
 Center     Atomic      Atomic             Coordinates (Angstroms)
 Number     Number       Type             X           Y           Z
 ---------------------------------------------------------------------
      1          8           0       -3.307700   -0.794477    0.333566
      2          6           0       -2.158761   -0.655855    0.000987
      3          6           0       -1.530268    0.653282   -0.430429
      4          6           0       -0.318163    0.987829    0.421450
      5          6           0        0.811323    1.831872   -0.166016
      6          6           0        1.008455    0.375368    0.088651
      7          6           0        2.013809   -0.358783    0.968254
      8          6           0        2.088629   -1.345214   -0.217776
      9          8           0        1.137332   -0.563574   -0.983570
     10          1           0       -1.451456   -1.516140   -0.008162
     11          1           0       -1.206641    0.525796   -1.471631
     12          1           0       -2.286513    1.442788   -0.392424
     13          1           0       -0.528030    1.135826    1.478517
     14          1           0        0.709435    2.142165   -1.201198
     15          1           0        1.313464    2.547874    0.476866
     16          1           0        2.935310    0.188385    1.175880
     17          1           0        1.616286   -0.767944    1.899027
     18          1           0        3.056101   -1.409592   -0.726599
     19          1           0        1.714846   -2.355739   -0.020973
 ---------------------------------------------------------------------

 SCF Done:  E(RB3LYP) =  -423.155736062     A.U. after    1 cycles

 The electronic state is 1-A.
 Alpha  occ. eigenvalues --  -19.14507 -19.13397 -10.26502 -10.24978 -10.24149
 Alpha  occ. eigenvalues --  -10.20278 -10.20035 -10.19389 -10.19175  -1.05121
 Alpha  occ. eigenvalues --   -1.04038  -0.86498  -0.75849  -0.74328  -0.65055
 Alpha  occ. eigenvalues --   -0.60139  -0.57389  -0.53703  -0.51147  -0.49232
 Alpha  occ. eigenvalues --   -0.48602  -0.45769  -0.43711  -0.42070  -0.40553
 Alpha  occ. eigenvalues --   -0.39179  -0.38611  -0.37910  -0.35184  -0.34154
 Alpha  occ. eigenvalues --   -0.31902  -0.29518  -0.24310  -0.23645
 Alpha virt. eigenvalues --   -0.01660   0.06560   0.08961   0.09913   0.10493
 Alpha virt. eigenvalues --    0.11992   0.13544   0.14648   0.15198   0.15768
 Alpha virt. eigenvalues --    0.17015   0.17820   0.18194   0.21564   0.22939

 Mulliken charges:
               1
     1  O   -0.241090
     2  C    0.160598
     3  C   -0.292478
     4  C   -0.107829
     5  C   -0.376286
     6  C    0.466500
     7  C   -0.361299
     8  C   -0.071073
     9  O   -0.307512
    10  H    0.079194
    11  H    0.131743
    12  H    0.118633
    13  H    0.097108
    14  H    0.125767
    15  H    0.117555
    16  H    0.118422
    17  H    0.118026
    18  H    0.112344
    19  H    0.111677
 Sum of Mulliken charges =   0.00000

 Dipole moment (field-independent basis, Debye):
    X=              3.4256    Y=              0.7899    Z=              0.7356  Tot=              3.5916
 Quadrupole moment (field-independent basis, Debye-Ang):
   XX=            -62.1271   YY=            -51.3086   ZZ=            -53.0035
   XY=             -4.0237   XZ=              4.0088   YZ=             -0.1977

  Exact polarizability:  89.778  -1.755  78.249  -1.437  -1.278  62.299
 Approx polarizability: 121.942  -0.036 108.779  -6.047  -1.383  96.711

                      1                      2                      3
                      A                      A                      A
 Frequencies --     49.6343                64.9827                89.0437
 Red. masses --      4.1782                 3.9636                 2.7107
 Frc consts  --      0.0061                 0.0099                 0.0127
 IR Inten    --      2.1194                 4.9466                 3.0522

                      4                      5                      6
                      A                      A                      A
 Frequencies --    139.3163               182.6555               302.5625
 Red. masses --      2.2477                 3.4396                 2.6858
 Frc consts  --      0.0257                 0.0676                 0.1449
 IR Inten    --      0.8703                 4.0293                 3.0188

                      7                      8                      9
                      A                      A                      A
 Frequencies --    343.3267               403.9589               489.5471
 Red. masses --      2.9597                 2.7783                 2.9252
 Frc consts  --      0.2056                 0.2671                 0.4130
 IR Inten    --      1.4107                 0.2071                11.7115

                     10                     11                     12
                      A                      A                      A
 Frequencies --    510.1498               591.8294               769.4989
 Red. masses --      2.3030                 3.8479                 1.5881
 Frc consts  --      0.3531                 0.7941                 0.5540
 IR Inten    --      1.8361                 1.1867                 1.6135

                     13                     14                     15
                      A                      A                      A
 Frequencies --    791.0988               831.8074               859.8378
 Red. masses --      1.2603                 1.9159                 2.4609
 Frc consts  --      0.4647                 0.7810                 1.0719
 IR Inten    --      1.9274                16.9108                 9.4603

                     16                     17                     18
                      A                      A                      A
 Frequencies --    874.1036               890.7761               957.5816
 Red. masses --      2.0313                 1.7542                 2.6835
 Frc consts  --      0.9144                 0.8201                 1.4498
 IR Inten    --      6.0816                10.2391                 5.0579

                     19                     20                     21
                      A                      A                      A
 Frequencies --    976.4134              1012.3166              1016.9487
 Red. masses --      1.6833                 5.1838                 2.4304
 Frc consts  --      0.9456                 3.1299                 1.4809
 IR Inten    --      0.7444                92.4435                19.6690

                     22                     23                     24
                      A                      A                      A
 Frequencies --   1047.9912              1082.3577              1106.0166
 Red. masses --      1.3926                 3.0136                 2.1085
 Frc consts  --      0.9011                 2.0801                 1.5197
 IR Inten    --     30.5660                13.3870                 2.6800

                     25                     26                     27
                      A                      A                      A
 Frequencies --   1125.4098              1146.8519              1165.3601
 Red. masses --      2.3273                 1.7464                 1.1544
 Frc consts  --      1.7367                 1.3533                 0.9237
 IR Inten    --     20.8069                 0.7391                 0.1671

                     28                     29                     30
                      A                      A                      A
 Frequencies --   1196.6295              1214.9916              1246.4975
 Red. masses --      2.2143                 1.1941                 1.3715
 Frc consts  --      1.8681                 1.0385                 1.2556
 IR Inten    --     11.8166                 0.0917                 3.5705

                     31                     32                     33
                      A                      A                      A
 Frequencies --   1249.7492              1289.7891              1321.9895
 Red. masses --      1.4694                 1.4004                 1.5916
 Frc consts  --      1.3521                 1.3726                 1.6389
 IR Inten    --      2.8218                 9.6361                17.9628

                     34                     35                     36
                      A                      A                      A
 Frequencies --   1354.0539              1417.9533              1423.7485
 Red. masses --      1.4790                 1.2476                 1.4573
 Frc consts  --      1.5977                 1.4779                 1.7405
 IR Inten    --      5.0761                 2.0124                12.0922

                     37                     38                     39
                      A                      A                      A
 Frequencies --   1454.7587              1485.1818              1493.1857
 Red. masses --      1.0972                 1.4434                 1.3072
 Frc consts  --      1.3681                 1.8759                 1.7172
 IR Inten    --      6.1227                16.0649                 9.4862

                     40                     41                     42
                      A                      A                      A
 Frequencies --   1533.2515              1834.8277              2877.7221
 Red. masses --      1.1915                 9.9375                 1.0824
 Frc consts  --      1.6504                19.7114                 5.2812
 IR Inten    --      0.5687               198.0200                89.6991

                     43                     44                     45
                      A                      A                      A
 Frequencies --   3032.2416              3033.9394              3074.5870
 Red. masses --      1.0602                 1.0553                 1.0592
 Frc consts  --      5.7436                 5.7230                 5.8992
 IR Inten    --      7.7623                73.7728                27.0622

                     46                     47                     48
                      A                      A                      A
 Frequencies --   3078.4951              3097.7640              3124.3792
 Red. masses --      1.1122                 1.1002                 1.0542
 Frc consts  --      6.2102                 6.2204                 6.0629
 IR Inten    --     25.8192                14.2151                 8.5606

                     49                     50                     51
                      A                      A                      A
 Frequencies --   3128.6143              3132.2060              3214.1029
 Red. masses --      1.1090                 1.0887                 1.1165
 Frc consts  --      6.3954                 6.2928                 6.7956
 IR Inten    --     21.0087                11.6495                 5.6830

 - Thermochemistry -
 -------------------
 Temperature   298.150 Kelvin.  Pressure   1.00000 Atm.
 Atom     1 has atomic number  8 and mass  15.99491

 Molecular mass:   126.06808 amu.
 Principal axes and moments of inertia in atomic units:
                           1         2         3
     Eigenvalues --   618.336721723.363942016.61131
           X            0.99968  -0.02024   0.01542
           Y            0.02048   0.99968  -0.01506
           Z           -0.01511   0.01537   0.99977
 This molecule is an asymmetric top.
 Rotational symmetry number  1.
 Warning -- assumption of classical behavior for rotation
           may cause significant error
 Rotational temperatures (Kelvin)      0.14008     0.05026     0.04295
 Rotational constants (GHZ):           2.91870     1.04722     0.89494
 Zero-point vibrational energy     413501.4 (Joules/Mol)
                                   98.82921 (Kcal/Mol)
 Warning -- explicit consideration of  11 degrees of freedom as
           vibrations may cause significant error
 Vibrational temperatures:     71.41    93.50   128.11   200.44   262.80
          (Kelvin)            435.32   493.97   581.21   704.35   733.99
                              851.51  1107.14  1138.21  1196.78  1237.11
                             1257.64  1281.63  1377.74  1404.84  1456.50
                             1463.16  1507.82  1557.27  1591.31  1619.21
                             1650.06  1676.69  1721.68  1748.10  1793.43
                             1798.11  1855.72  1902.05  1948.18  2040.12
                             2048.45  2093.07  2136.84  2148.36  2206.00
                             2639.90  4140.40  4362.71  4365.16  4423.64
                             4429.26  4456.99  4495.28  4501.37  4506.54
                             4624.37

 Zero-point correction=                           0.157494 (Hartree/Particle)
 Thermal correction to Energy=                    0.166518
 Thermal correction to Enthalpy=                  0.167462
 Thermal correction to Gibbs Free Energy=         0.122338
 Sum of electronic and zero-point Energies=           -422.998242
 Sum of electronic and thermal Energies=              -422.989218
 Sum of electronic and thermal Enthalpies=            -422.988274
 Sum of electronic and thermal Free Energies=         -423.033398

                     E (Thermal)             CV                S
                      KCal/Mol        Cal/Mol-Kelvin    Cal/Mol-Kelvin
 Total                  104.492             32.367             94.973
 Electronic               0.000              0.000              0.000
 Translational            0.889              2.981             40.409
 Rotational               0.889              2.981             29.154
 Vibrational            102.714             26.405             25.410
 Vibration     1          0.595              1.978              4.832
 Vibration     2          0.597              1.971              4.300
 Vibration     3          0.602              1.957              3.681
 Vibration     4          0.615              1.914              2.813
 Vibration     5          0.630              1.863              2.301
 Vibration     6          0.694              1.669              1.403
 Vibration     7          0.722              1.589              1.197
 Vibration     8          0.769              1.462              0.948
 Vibration     9          0.845              1.273              0.685
 Vibration    10          0.865              1.228              0.633
 Vibration    11          0.949              1.049              0.464

 Normal termination of Gaussian 09 at Mon Jan 27 14:21:36 2020.
