 Gaussian 09, Revision D.01,
 Gaussian 09:  ES64L-G09RevD.01 24-Apr-2013

 -----------------------------
 # b3lyp 6-31G(2df,p) opt Freq
 -----------------------------

 -----
 titel
 -----
 Symbolic Z-matrix:
 Charge =  0 Multiplicity = 1

 SCF Done:  E(RB3LYP) =  -423.162742249     A.U. after   14 cycles
 Optimization completed.
    -- Stationary point found.
 Normal termination of Gaussian 09 at Tue Jan 28 08:16:38 2020.

 ----------------------------------------------------------------------
 #N Geom=AllCheck Guess=TCheck SCRF=Check GenChk RB3LYP/6-31G(2df,p) Fr
 eq
 ----------------------------------------------------------------------

 Structure from the checkpoint file:  "/scratch/puck/g09_834fd249-99ab-4591-8cd8-c5c6d9f23277/Gau-79630.chk"
 -----
 titel
 -----
 Charge =  0 Multiplicity = 1

                         Standard orientation:
 ---------------------------------------------------------------------
 Center     Atomic      Atomic             Coordinates (Angstroms)
 Number     Number       Type             X           Y           Z
 ---------------------------------------------------------------------
      1          6           0       -1.845709    2.032646    0.127268
      2          6           0       -1.726518    0.580942   -0.370583
      3          6           0       -2.701527   -0.351129    0.386288
      4          8           0       -2.656392   -1.682850   -0.073990
      5          6           0       -0.361897    0.067369   -0.244316
      6          6           0        0.738352   -0.406666   -0.104034
      7          6           0        2.105888   -0.887710    0.036746
      8          6           0        3.136529    0.207645   -0.253273
      9          8           0        4.164039    0.330365    0.354402
     10          1           0       -1.586484    2.103257    1.187975
     11          1           0       -1.175978    2.693444   -0.428394
     12          1           0       -2.870642    2.394193   -0.002106
     13          1           0       -2.009549    0.543489   -1.431006
     14          1           0       -2.491848   -0.283110    1.465952
     15          1           0       -3.725768   -0.001217    0.221912
     16          1           0       -1.743090   -1.980492    0.015182
     17          1           0        2.309999   -1.291101    1.033880
     18          1           0        2.300180   -1.698835   -0.682128
     19          1           0        2.861282    0.881664   -1.093145
 ---------------------------------------------------------------------

 SCF Done:  E(RB3LYP) =  -423.162742249     A.U. after    1 cycles

 The electronic state is 1-A.
 Alpha  occ. eigenvalues --  -19.15292 -19.13566 -10.28640 -10.23427 -10.22717
 Alpha  occ. eigenvalues --  -10.21770 -10.19213 -10.19031 -10.18886  -1.06100
 Alpha  occ. eigenvalues --   -1.02006  -0.82206  -0.79857  -0.71984  -0.68111
 Alpha  occ. eigenvalues --   -0.62519  -0.59630  -0.51964  -0.51228  -0.48717
 Alpha  occ. eigenvalues --   -0.47500  -0.45245  -0.43883  -0.43063  -0.42757
 Alpha  occ. eigenvalues --   -0.39906  -0.38919  -0.38203  -0.36891  -0.33069
 Alpha  occ. eigenvalues --   -0.29059  -0.27641  -0.26186  -0.25394
 Alpha virt. eigenvalues --   -0.03329   0.03520   0.04179   0.09255   0.10016
 Alpha virt. eigenvalues --    0.11332   0.12771   0.13151   0.14011   0.16392
 Alpha virt. eigenvalues --    0.16674   0.17743   0.18972   0.20145   0.21988

 Mulliken charges:
               1
     1  C   -0.393824
     2  C   -0.151991
     3  C   -0.046305
     4  O   -0.419909
     5  C    0.101326
     6  C   -0.002972
     7  C   -0.415391
     8  C    0.174446
     9  O   -0.228720
    10  H    0.128995
    11  H    0.128562
    12  H    0.120014
    13  H    0.113669
    14  H    0.091430
    15  H    0.110205
    16  H    0.283952
    17  H    0.155234
    18  H    0.156209
    19  H    0.095071
 Sum of Mulliken charges =   0.00000

 Dipole moment (field-independent basis, Debye):
    X=             -0.9633    Y=              0.4449    Z=             -0.5998  Tot=              1.2189
 Quadrupole moment (field-independent basis, Debye-Ang):
   XX=            -67.5856   YY=            -52.6806   ZZ=            -52.6159
   XY=             -9.3706   XZ=             -4.4897   YZ=             -1.1548

  Exact polarizability: 112.850  -8.155  73.968   3.431  -2.156  60.465
 Approx polarizability: 156.614 -15.579 104.026  12.479  -2.625  92.992

                      1                      2                      3
                      A                      A                      A
 Frequencies --     10.5767                46.5365                73.9193
 Red. masses --      3.6138                 5.4779                 4.0588
 Frc consts  --      0.0002                 0.0070                 0.0131
 IR Inten    --      2.4104                 5.4759                 1.6204

                      4                      5                      6
                      A                      A                      A
 Frequencies --    120.1176               144.1615               163.4626
 Red. masses --      2.8372                 2.8097                 2.5339
 Frc consts  --      0.0241                 0.0344                 0.0399
 IR Inten    --      3.0498                 4.1841                 0.3623

                      7                      8                      9
                      A                      A                      A
 Frequencies --    223.5905               261.4757               308.8676
 Red. masses --      1.0827                 2.9825                 3.5431
 Frc consts  --      0.0319                 0.1201                 0.1991
 IR Inten    --      0.1226                 2.6140                 4.6877

                     10                     11                     12
                      A                      A                      A
 Frequencies --    381.3446               412.1954               443.2505
 Red. masses --      1.6039                 2.1106                 3.8244
 Frc consts  --      0.1374                 0.2113                 0.4427
 IR Inten    --     82.3971                39.9223                20.9219

                     13                     14                     15
                      A                      A                      A
 Frequencies --    473.5263               536.7020               580.3888
 Red. masses --      5.0272                 3.5364                 4.8516
 Frc consts  --      0.6641                 0.6002                 0.9629
 IR Inten    --     11.3731                 1.8049                 1.9668

                     16                     17                     18
                      A                      A                      A
 Frequencies --    687.4239               765.2547               892.6254
 Red. masses --      1.9671                 1.9658                 1.8643
 Frc consts  --      0.5477                 0.6783                 0.8752
 IR Inten    --      1.2113                 2.0644                 5.5370

                     19                     20                     21
                      A                      A                      A
 Frequencies --    935.2072              1017.2058              1032.6528
 Red. masses --      1.3661                 2.2934                 3.7657
 Frc consts  --      0.7040                 1.3981                 2.3659
 IR Inten    --      4.2736                12.8973                44.2022

                     22                     23                     24
                      A                      A                      A
 Frequencies --   1044.2929              1081.8431              1102.2132
 Red. masses --      1.7855                 3.3995                 2.3914
 Frc consts  --      1.1472                 2.3442                 1.7117
 IR Inten    --      1.0438                87.0448                22.1539

                     25                     26                     27
                      A                      A                      A
 Frequencies --   1125.7493              1179.2326              1212.2080
 Red. masses --      2.1999                 2.0603                 1.2011
 Frc consts  --      1.6426                 1.6880                 1.0399
 IR Inten    --      1.9860                 3.8380                 1.4392

                     28                     29                     30
                      A                      A                      A
 Frequencies --   1215.0876              1289.4351              1296.4144
 Red. masses --      1.1674                 1.5532                 1.3081
 Frc consts  --      1.0155                 1.5215                 1.2954
 IR Inten    --     15.3047                 7.2113                 1.0544

                     31                     32                     33
                      A                      A                      A
 Frequencies --   1359.4725              1383.6261              1405.2625
 Red. masses --      1.5451                 1.2241                 1.2101
 Frc consts  --      1.6825                 1.3808                 1.4080
 IR Inten    --     19.9018                 1.4062                 4.3217

                     34                     35                     36
                      A                      A                      A
 Frequencies --   1415.6550              1430.5421              1443.1595
 Red. masses --      1.1651                 1.2277                 1.1001
 Frc consts  --      1.3757                 1.4803                 1.3499
 IR Inten    --      7.9076                71.0573                 2.8685

                     37                     38                     39
                      A                      A                      A
 Frequencies --   1492.0664              1499.7993              1506.2757
 Red. masses --      1.0498                 1.0514                 1.0847
 Frc consts  --      1.3770                 1.3935                 1.4500
 IR Inten    --      5.2459                 2.6471                 1.1859

                     40                     41                     42
                      A                      A                      A
 Frequencies --   1842.1975              2353.9079              2902.9431
 Red. masses --     10.2800                11.8538                 1.0852
 Frc consts  --     20.5549                38.6977                 5.3880
 IR Inten    --    213.1517                 0.6151                77.5827

                     43                     44                     45
                      A                      A                      A
 Frequencies --   2975.6900              3000.6411              3022.1307
 Red. masses --      1.0693                 1.0671                 1.0812
 Frc consts  --      5.5785                 5.6606                 5.8182
 IR Inten    --     48.2073                14.8766                16.3977

                     46                     47                     48
                      A                      A                      A
 Frequencies --   3041.5776              3078.3072              3079.7755
 Red. masses --      1.0350                 1.0940                 1.0915
 Frc consts  --      5.6415                 6.1079                 6.0995
 IR Inten    --     23.8714                32.8609                 4.9041

                     49                     50                     51
                      A                      A                      A
 Frequencies --   3113.4776              3123.4349              3784.4066
 Red. masses --      1.1021                 1.1019                 1.0655
 Frc consts  --      6.2943                 6.3339                 8.9905
 IR Inten    --     29.3819                18.8827                26.1821

 - Thermochemistry -
 -------------------
 Temperature   298.150 Kelvin.  Pressure   1.00000 Atm.
 Atom     1 has atomic number  6 and mass  12.00000

 Molecular mass:   126.06808 amu.
 Principal axes and moments of inertia in atomic units:
                           1         2         3
     Eigenvalues --   560.498392886.158553332.69873
           X            0.99972  -0.02270  -0.00667
           Y            0.02265   0.99972  -0.00724
           Z            0.00683   0.00709   0.99995
 This molecule is an asymmetric top.
 Rotational symmetry number  1.
 Warning -- assumption of classical behavior for rotation
           may cause significant error
 Rotational temperatures (Kelvin)      0.15453     0.03001     0.02599
 Rotational constants (GHZ):           3.21989     0.62531     0.54153
 Zero-point vibrational energy     408592.4 (Joules/Mol)
                                   97.65592 (Kcal/Mol)
 Warning -- explicit consideration of  15 degrees of freedom as
           vibrations may cause significant error
 Vibrational temperatures:     15.22    66.96   106.35   172.82   207.42
          (Kelvin)            235.19   321.70   376.20   444.39   548.67
                              593.06   637.74   681.30   772.19   835.05
                              989.05  1101.03  1284.29  1345.55  1463.53
                             1485.76  1502.50  1556.53  1585.84  1619.70
                             1696.65  1744.09  1748.24  1855.21  1865.25
                             1955.98  1990.73  2021.86  2036.81  2058.23
                             2076.38  2146.75  2157.87  2167.19  2650.51
                             3386.74  4176.68  4281.35  4317.25  4348.17
                             4376.15  4428.99  4431.10  4479.59  4493.92
                             5444.91

 Zero-point correction=                           0.155625 (Hartree/Particle)
 Thermal correction to Energy=                    0.166504
 Thermal correction to Enthalpy=                  0.167448
 Thermal correction to Gibbs Free Energy=         0.116694
 Sum of electronic and zero-point Energies=           -423.007118
 Sum of electronic and thermal Energies=              -422.996238
 Sum of electronic and thermal Enthalpies=            -422.995294
 Sum of electronic and thermal Free Energies=         -423.046048

                     E (Thermal)             CV                S
                      KCal/Mol        Cal/Mol-Kelvin    Cal/Mol-Kelvin
 Total                  104.483             36.891            106.821
 Electronic               0.000              0.000              0.000
 Translational            0.889              2.981             40.409
 Rotational               0.889              2.981             30.068
 Vibrational            102.705             30.929             36.345
 Vibration     1          0.593              1.987              7.900
 Vibration     2          0.595              1.979              4.959
 Vibration     3          0.599              1.966              4.046
 Vibration     4          0.609              1.932              3.098
 Vibration     5          0.616              1.909              2.748
 Vibration     6          0.623              1.887              2.509
 Vibration     7          0.649              1.805              1.930
 Vibration     8          0.669              1.743              1.652
 Vibration     9          0.698              1.657              1.368
 Vibration    10          0.751              1.510              1.034
 Vibration    11          0.776              1.444              0.919
 Vibration    12          0.803              1.376              0.816
 Vibration    13          0.830              1.309              0.728
 Vibration    14          0.892              1.169              0.572
 Vibration    15          0.937              1.074              0.485

 Optimization completed on the basis of negligible forces.
    -- Stationary point found.
 Normal termination of Gaussian 09 at Tue Jan 28 08:55:43 2020.
