 Gaussian 09, Revision D.01,
 Gaussian 09:  ES64L-G09RevD.01 24-Apr-2013

 -----------------------------
 # b3lyp 6-31G(2df,p) opt Freq
 -----------------------------

 -----
 titel
 -----
 Symbolic Z-matrix:
 Charge =  0 Multiplicity = 1

 SCF Done:  E(RB3LYP) =  -423.140337548     A.U. after   12 cycles
 Optimization completed.
    -- Stationary point found.
 Normal termination of Gaussian 09 at Mon Jan 27 22:51:33 2020.

 ----------------------------------------------------------------------
 #N Geom=AllCheck Guess=TCheck SCRF=Check GenChk RB3LYP/6-31G(2df,p) Fr
 eq
 ----------------------------------------------------------------------

 Structure from the checkpoint file:  "/scratch/puck/g09_c1f12f71-949a-49e0-b439-fd844050d907/Gau-74920.chk"
 -----
 titel
 -----
 Charge =  0 Multiplicity = 1

                         Standard orientation:
 ---------------------------------------------------------------------
 Center     Atomic      Atomic             Coordinates (Angstroms)
 Number     Number       Type             X           Y           Z
 ---------------------------------------------------------------------
      1          6           0        1.221849    2.004645   -0.003201
      2          6           0        0.780286    0.557754    0.001416
      3          6           0        1.881698   -0.504511    0.000749
      4          8           0        1.123179   -1.717128    0.006360
      5          6           0       -0.203982   -1.234748    0.007538
      6          6           0       -0.343218   -0.009727   -0.949540
      7          6           0       -1.407465    0.566607   -0.006905
      8          8           0       -2.660536   -0.075168   -0.089335
      9          6           0       -0.339400   -0.004983    0.957438
     10          1           0        1.833477    2.225872    0.879023
     11          1           0        1.832217    2.220732   -0.887499
     12          1           0        0.380383    2.702287   -0.005011
     13          1           0        2.518297   -0.456221   -0.892978
     14          1           0        2.523628   -0.451313    0.890287
     15          1           0       -0.923242   -2.047400    0.008993
     16          1           0       -0.341744   -0.012036   -2.040366
     17          1           0       -1.520860    1.656344   -0.010903
     18          1           0       -3.212850    0.250293    0.628052
     19          1           0       -0.329061   -0.000409    2.049228
 ---------------------------------------------------------------------

 SCF Done:  E(RB3LYP) =  -423.140337547     A.U. after    2 cycles

 The electronic state is 1-A.
 Alpha  occ. eigenvalues --  -19.13840 -19.13151 -10.23677 -10.23097 -10.22063
 Alpha  occ. eigenvalues --  -10.20605 -10.19161 -10.19084 -10.18366  -1.04372
 Alpha  occ. eigenvalues --   -1.02158  -0.89053  -0.75801  -0.68488  -0.65020
 Alpha  occ. eigenvalues --   -0.63579  -0.58124  -0.53020  -0.50761  -0.49646
 Alpha  occ. eigenvalues --   -0.46879  -0.45781  -0.41772  -0.41501  -0.40422
 Alpha  occ. eigenvalues --   -0.38665  -0.35514  -0.35143  -0.33421  -0.31278
 Alpha  occ. eigenvalues --   -0.30060  -0.29761  -0.26310  -0.23514
 Alpha virt. eigenvalues --    0.07868   0.08535   0.11410   0.12844   0.13820
 Alpha virt. eigenvalues --    0.14242   0.14401   0.15899   0.16241   0.16639
 Alpha virt. eigenvalues --    0.17670   0.19128   0.19240   0.20449   0.21391

 Mulliken charges:
               1
     1  C   -0.509118
     2  C    0.297707
     3  C   -0.132510
     4  O   -0.282683
     5  C    0.148083
     6  C   -0.157044
     7  C    0.119159
     8  O   -0.446064
     9  C   -0.190595
    10  H    0.121484
    11  H    0.122776
    12  H    0.124388
    13  H    0.098234
    14  H    0.097412
    15  H    0.102260
    16  H    0.072379
    17  H    0.065277
    18  H    0.283047
    19  H    0.065809
 Sum of Mulliken charges =   0.00000

 Dipole moment (field-independent basis, Debye):
    X=             -0.2090    Y=              2.3937    Z=              1.0335  Tot=              2.6156
 Quadrupole moment (field-independent basis, Debye-Ang):
   XX=            -51.1959   YY=            -56.0836   ZZ=            -51.5102
   XY=              0.7838   XZ=             -4.0285   YZ=              0.3399

  Exact polarizability:  85.251   2.281  72.124  -1.454   0.327  66.331
 Approx polarizability: 117.566   2.018 106.196  -1.343   1.007 105.875

                      1                      2                      3
                      A                      A                      A
 Frequencies --    183.0371               215.9977               242.7015
 Red. masses --      1.0239                 3.5089                 2.1524
 Frc consts  --      0.0202                 0.0965                 0.0747
 IR Inten    --      0.0627                 2.1848                 8.4657

                      4                      5                      6
                      A                      A                      A
 Frequencies --    265.9815               282.7071               317.5533
 Red. masses --      1.6684                 1.8119                 3.1842
 Frc consts  --      0.0695                 0.0853                 0.1892
 IR Inten    --     42.2624                47.6599                 2.0934

                      7                      8                      9
                      A                      A                      A
 Frequencies --    378.8629               456.6584               527.9607
 Red. masses --      3.1518                 2.6508                 5.2076
 Frc consts  --      0.2665                 0.3257                 0.8553
 IR Inten    --      9.3133                 2.2010                 6.7049

                     10                     11                     12
                      A                      A                      A
 Frequencies --    614.3859               729.1981               734.8960
 Red. masses --      4.3062                 4.4984                 3.3854
 Frc consts  --      0.9577                 1.4093                 1.0772
 IR Inten    --      0.9212                 3.4793                 6.1604

                     13                     14                     15
                      A                      A                      A
 Frequencies --    748.0995               819.4527               890.2898
 Red. masses --      3.1796                 2.6790                 2.6821
 Frc consts  --      1.0484                 1.0599                 1.2525
 IR Inten    --      1.2333                 3.3608                29.8655

                     16                     17                     18
                      A                      A                      A
 Frequencies --    906.8113               921.9258               946.9397
 Red. masses --      1.9122                 1.9843                 1.9206
 Frc consts  --      0.9264                 0.9937                 1.0147
 IR Inten    --      5.0752                 6.8949                20.5366

                     19                     20                     21
                      A                      A                      A
 Frequencies --    999.0166              1002.5146              1033.1210
 Red. masses --      1.2450                 3.4307                 1.3935
 Frc consts  --      0.7321                 2.0315                 0.8763
 IR Inten    --      3.6897                31.2213                 0.4657

                     22                     23                     24
                      A                      A                      A
 Frequencies --   1066.4230              1083.2148              1096.7611
 Red. masses --      7.0523                 3.2218                 3.1810
 Frc consts  --      4.7254                 2.2273                 2.2545
 IR Inten    --     20.6289                 3.9995               108.5654

                     25                     26                     27
                      A                      A                      A
 Frequencies --   1105.0706              1153.1108              1175.9528
 Red. masses --      1.7127                 1.4843                 1.3963
 Frc consts  --      1.2323                 1.1628                 1.1377
 IR Inten    --     24.4398                 0.8732                 1.3200

                     28                     29                     30
                      A                      A                      A
 Frequencies --   1181.3870              1193.7904              1219.4322
 Red. masses --      1.5821                 1.5183                 1.3732
 Frc consts  --      1.3010                 1.2748                 1.2031
 IR Inten    --      4.2351                51.7340                18.4993

                     31                     32                     33
                      A                      A                      A
 Frequencies --   1241.2903              1256.8575              1281.5178
 Red. masses --      2.4894                 2.1312                 2.3848
 Frc consts  --      2.2599                 1.9836                 2.3076
 IR Inten    --      0.3369                41.1219                20.9192

                     34                     35                     36
                      A                      A                      A
 Frequencies --   1311.8947              1322.4174              1388.5767
 Red. masses --      1.4534                 1.6104                 1.6960
 Frc consts  --      1.4738                 1.6592                 1.9267
 IR Inten    --     21.1940                30.4354                10.0967

                     37                     38                     39
                      A                      A                      A
 Frequencies --   1416.0195              1447.3126              1491.3054
 Red. masses --      1.3097                 1.3585                 1.0461
 Frc consts  --      1.5472                 1.6766                 1.3708
 IR Inten    --      6.0890                 8.2738                 4.8779

                     40                     41                     42
                      A                      A                      A
 Frequencies --   1498.1076              1520.1261              3004.5699
 Red. masses --      1.0557                 1.0941                 1.0553
 Frc consts  --      1.3959                 1.4896                 5.6130
 IR Inten    --      2.2827                 0.4666                64.7046

                     43                     44                     45
                      A                      A                      A
 Frequencies --   3029.5912              3037.9749              3040.9028
 Red. masses --      1.0419                 1.0797                 1.1093
 Frc consts  --      5.6343                 5.8710                 6.0439
 IR Inten    --     17.3477                74.6873                33.0108

                     46                     47                     48
                      A                      A                      A
 Frequencies --   3086.4261              3094.2565              3108.3538
 Red. masses --      1.1004                 1.0905                 1.0917
 Frc consts  --      6.1758                 6.1516                 6.2148
 IR Inten    --     21.3096                61.8819                26.4060

                     49                     50                     51
                      A                      A                      A
 Frequencies --   3112.1149              3185.0635              3822.6238
 Red. masses --      1.0982                 1.0917                 1.0662
 Frc consts  --      6.2669                 6.5250                 9.1794
 IR Inten    --     22.9492                19.6323                27.7102

 - Thermochemistry -
 -------------------
 Temperature   298.150 Kelvin.  Pressure   1.00000 Atm.
 Atom     1 has atomic number  6 and mass  12.00000

 Molecular mass:   126.06808 amu.
 Principal axes and moments of inertia in atomic units:
                           1         2         3
     Eigenvalues --   651.977781056.611291466.25738
           X            0.99876   0.04897  -0.00865
           Y           -0.04896   0.99880   0.00089
           Z            0.00868  -0.00047   0.99996
 This molecule is an asymmetric top.
 Rotational symmetry number  1.
 Warning -- assumption of classical behavior for rotation
           may cause significant error
 Rotational temperatures (Kelvin)      0.13285     0.08197     0.05907
 Rotational constants (GHZ):           2.76810     1.70805     1.23085
 Zero-point vibrational energy     419832.8 (Joules/Mol)
                                  100.34244 (Kcal/Mol)
 Warning -- explicit consideration of  10 degrees of freedom as
           vibrations may cause significant error
 Vibrational temperatures:    263.35   310.77   349.19   382.69   406.75
          (Kelvin)            456.89   545.10   657.03   759.62   883.96
                             1049.15  1057.35  1076.35  1179.01  1280.93
                             1304.70  1326.44  1362.43  1437.36  1442.39
                             1486.43  1534.34  1558.50  1577.99  1589.95
                             1659.07  1691.93  1699.75  1717.60  1754.49
                             1785.94  1808.34  1843.82  1887.52  1902.66
                             1997.85  2037.33  2082.36  2145.65  2155.44
                             2187.12  4322.90  4358.90  4370.96  4375.18
                             4440.67  4451.94  4472.22  4477.63  4582.59
                             5499.90

 Zero-point correction=                           0.159906 (Hartree/Particle)
 Thermal correction to Energy=                    0.167578
 Thermal correction to Enthalpy=                  0.168522
 Thermal correction to Gibbs Free Energy=         0.128288
 Sum of electronic and zero-point Energies=           -422.980432
 Sum of electronic and thermal Energies=              -422.972760
 Sum of electronic and thermal Enthalpies=            -422.971816
 Sum of electronic and thermal Free Energies=         -423.012050

                     E (Thermal)             CV                S
                      KCal/Mol        Cal/Mol-Kelvin    Cal/Mol-Kelvin
 Total                  105.157             31.006             84.680
 Electronic               0.000              0.000              0.000
 Translational            0.889              2.981             40.409
 Rotational               0.889              2.981             28.404
 Vibrational            103.379             25.045             15.868
 Vibration     1          0.631              1.863              2.297
 Vibration     2          0.645              1.817              1.992
 Vibration     3          0.659              1.775              1.783
 Vibration     4          0.672              1.735              1.622
 Vibration     5          0.682              1.706              1.517
 Vibration     6          0.704              1.640              1.323
 Vibration     7          0.749              1.515              1.044
 Vibration     8          0.815              1.346              0.776
 Vibration     9          0.883              1.188              0.592
 Vibration    10          0.974              1.001              0.426

 Optimization completed.
    -- Stationary point found.
 Normal termination of Gaussian 09 at Mon Jan 27 23:39:19 2020.
