 Gaussian 09, Revision D.01,
 Gaussian 09:  ES64L-G09RevD.01 24-Apr-2013

 -----------------------------
 # b3lyp 6-31G(2df,p) opt Freq
 -----------------------------

 -----
 titel
 -----
 Symbolic Z-matrix:
 Charge =  0 Multiplicity = 1

 SCF Done:  E(RB3LYP) =  -423.178956440     A.U. after   13 cycles
 Optimization completed.
    -- Stationary point found.
 Normal termination of Gaussian 09 at Mon Jan 27 18:15:32 2020.

 ----------------------------------------------------------------------
 #N Geom=AllCheck Guess=TCheck SCRF=Check GenChk RB3LYP/6-31G(2df,p) Fr
 eq
 ----------------------------------------------------------------------

 Structure from the checkpoint file:  "/scratch/puck/g09_85cd2d59-b03c-4a77-a2f9-eb9ec4cf2f6a/Gau-114983.chk"
 -----
 titel
 -----
 Charge =  0 Multiplicity = 1

                         Standard orientation:
 ---------------------------------------------------------------------
 Center     Atomic      Atomic             Coordinates (Angstroms)
 Number     Number       Type             X           Y           Z
 ---------------------------------------------------------------------
      1          8           0        1.028594    1.928999   -0.217226
      2          6           0        0.658470    0.591792   -0.112457
      3          6           0        1.751314   -0.479198    0.006692
      4          6           0        0.571982   -1.364663    0.498855
      5          6           0       -0.266766   -1.488867   -0.790233
      6          6           0       -0.450263    0.033169   -1.070583
      7          6           0       -1.719548    0.465509   -0.330240
      8          8           0       -1.436164    0.136537    1.041122
      9          6           0       -0.033365   -0.049643    1.119084
     10          1           0        0.235496    2.475540   -0.203232
     11          1           0        2.280507   -0.792189   -0.896395
     12          1           0        2.464552   -0.229035    0.795557
     13          1           0        0.741744   -2.260942    1.092462
     14          1           0        0.282716   -2.006820   -1.581027
     15          1           0       -1.222403   -1.999303   -0.642042
     16          1           0       -0.387723    0.350484   -2.111907
     17          1           0       -1.926987    1.545140   -0.428026
     18          1           0       -2.614732   -0.077554   -0.650746
     19          1           0        0.336442    0.221801    2.107481
 ---------------------------------------------------------------------

 SCF Done:  E(RB3LYP) =  -423.178956440     A.U. after    1 cycles

 The electronic state is 1-A.
 Alpha  occ. eigenvalues --  -19.14520 -19.13692 -10.23641 -10.22984 -10.22459
 Alpha  occ. eigenvalues --  -10.19153 -10.19043 -10.18460 -10.18235  -1.04514
 Alpha  occ. eigenvalues --   -1.02212  -0.87519  -0.76258  -0.69572  -0.66556
 Alpha  occ. eigenvalues --   -0.62209  -0.56385  -0.55084  -0.52918  -0.49007
 Alpha  occ. eigenvalues --   -0.48015  -0.45251  -0.41248  -0.40583  -0.39259
 Alpha  occ. eigenvalues --   -0.37047  -0.36209  -0.35647  -0.34577  -0.32446
 Alpha  occ. eigenvalues --   -0.31893  -0.30554  -0.26590  -0.22855
 Alpha virt. eigenvalues --    0.06390   0.10050   0.11066   0.12341   0.12631
 Alpha virt. eigenvalues --    0.14266   0.15479   0.15990   0.16452   0.17136
 Alpha virt. eigenvalues --    0.18368   0.19582   0.19896   0.22198   0.23110

 Mulliken charges:
               1
     1  O   -0.496355
     2  C    0.413339
     3  C   -0.291278
     4  C   -0.081598
     5  C   -0.213330
     6  C   -0.119661
     7  C   -0.097505
     8  O   -0.284766
     9  C    0.073583
    10  H    0.283549
    11  H    0.097801
    12  H    0.106787
    13  H    0.068003
    14  H    0.097463
    15  H    0.102233
    16  H    0.071703
    17  H    0.076439
    18  H    0.108214
    19  H    0.085377
 Sum of Mulliken charges =   0.00000

 Dipole moment (field-independent basis, Debye):
    X=             -0.3445    Y=             -0.2966    Z=             -1.0338  Tot=              1.1294
 Quadrupole moment (field-independent basis, Debye-Ang):
   XX=            -55.6525   YY=            -51.5653   ZZ=            -53.1254
   XY=             -3.7949   XZ=              3.8487   YZ=              0.0071

  Exact polarizability:  77.162  -3.307  74.324   3.949   0.088  67.504
 Approx polarizability: 111.601  -2.213 108.646   2.284  -0.808 104.007

                      1                      2                      3
                      A                      A                      A
 Frequencies --    179.5589               248.3535               263.0903
 Red. masses --      1.1330                 2.6552                 4.0442
 Frc consts  --      0.0215                 0.0965                 0.1649
 IR Inten    --     63.8538                 0.6745                25.7114

                      4                      5                      6
                      A                      A                      A
 Frequencies --    307.1324               430.7191               450.3539
 Red. masses --      3.3115                 2.4891                 2.2224
 Frc consts  --      0.1840                 0.2721                 0.2656
 IR Inten    --      9.1004                 4.3093                 1.4047

                      7                      8                      9
                      A                      A                      A
 Frequencies --    462.7706               566.2307               643.5041
 Red. masses --      2.4093                 4.4582                 4.3983
 Frc consts  --      0.3040                 0.8422                 1.0731
 IR Inten    --      0.0990                 0.5340                10.7973

                     10                     11                     12
                      A                      A                      A
 Frequencies --    722.3273               750.7516               820.0864
 Red. masses --      5.1497                 4.6543                 2.8246
 Frc consts  --      1.5831                 1.5456                 1.1193
 IR Inten    --      7.0626                 5.7987                 3.5268

                     13                     14                     15
                      A                      A                      A
 Frequencies --    833.3561               859.8404               895.8482
 Red. masses --      2.6693                 2.0823                 2.9511
 Frc consts  --      1.0922                 0.9070                 1.3954
 IR Inten    --      0.8409                 6.9977                 0.9320

                     16                     17                     18
                      A                      A                      A
 Frequencies --    922.4534               934.1650               965.9606
 Red. masses --      2.3632                 2.3090                 1.9462
 Frc consts  --      1.1848                 1.1872                 1.0699
 IR Inten    --      4.8075                14.1029                11.3629

                     19                     20                     21
                      A                      A                      A
 Frequencies --    987.4825              1004.8349              1035.1900
 Red. masses --      1.5681                 1.8044                 1.4582
 Frc consts  --      0.9009                 1.0734                 0.9207
 IR Inten    --      4.6580                 2.7625                11.4210

                     22                     23                     24
                      A                      A                      A
 Frequencies --   1044.0101              1074.3702              1081.7751
 Red. masses --      2.1175                 1.3900                 3.2934
 Frc consts  --      1.3598                 0.9453                 2.2707
 IR Inten    --     12.2690                 3.4813                69.7797

                     25                     26                     27
                      A                      A                      A
 Frequencies --   1113.2272              1136.7761              1176.7957
 Red. masses --      1.8820                 1.8148                 1.4282
 Frc consts  --      1.3742                 1.3818                 1.1653
 IR Inten    --     23.2520                37.8433                 0.5456

                     28                     29                     30
                      A                      A                      A
 Frequencies --   1192.4854              1196.6255              1217.5523
 Red. masses --      1.5278                 1.7208                 1.4072
 Frc consts  --      1.2800                 1.4518                 1.2290
 IR Inten    --      0.8166                 8.8187                 1.3535

                     31                     32                     33
                      A                      A                      A
 Frequencies --   1235.9401              1255.1206              1293.4713
 Red. masses --      1.5341                 1.9322                 1.4736
 Frc consts  --      1.3807                 1.7933                 1.4526
 IR Inten    --      1.9503                76.3398                 9.2623

                     34                     35                     36
                      A                      A                      A
 Frequencies --   1305.0873              1327.1924              1338.0936
 Red. masses --      1.5323                 1.6523                 1.6020
 Frc consts  --      1.5377                 1.7147                 1.6900
 IR Inten    --      1.6618                58.8707                47.8549

                     37                     38                     39
                      A                      A                      A
 Frequencies --   1383.4344              1389.9544              1491.6888
 Red. masses --      1.9489                 1.6034                 1.1094
 Frc consts  --      2.1976                 1.8251                 1.4544
 IR Inten    --      4.2186                20.6273                 1.4484

                     40                     41                     42
                      A                      A                      A
 Frequencies --   1513.7184              1529.2964              2949.0274
 Red. masses --      1.1407                 1.0951                 1.0732
 Frc consts  --      1.5399                 1.5091                 5.4989
 IR Inten    --      6.3578                 0.3867                99.0032

                     43                     44                     45
                      A                      A                      A
 Frequencies --   3054.0695              3064.6878              3065.0039
 Red. masses --      1.0589                 1.0608                 1.0862
 Frc consts  --      5.8191                 5.8701                 6.0119
 IR Inten    --     28.3360                44.3099                27.5863

                     46                     47                     48
                      A                      A                      A
 Frequencies --   3099.5084              3113.5766              3122.6050
 Red. masses --      1.1061                 1.0894                 1.1076
 Frc consts  --      6.2606                 6.2221                 6.3633
 IR Inten    --     22.3606                32.1959                14.2372

                     49                     50                     51
                      A                      A                      A
 Frequencies --   3125.9847              3136.2249              3807.6736
 Red. masses --      1.0904                 1.0918                 1.0656
 Frc consts  --      6.2781                 6.3271                 9.1029
 IR Inten    --     27.5497                41.2537                16.8333

 - Thermochemistry -
 -------------------
 Temperature   298.150 Kelvin.  Pressure   1.00000 Atm.
 Atom     1 has atomic number  8 and mass  15.99491

 Molecular mass:   126.06808 amu.
 Principal axes and moments of inertia in atomic units:
                           1         2         3
     Eigenvalues --   762.97091 835.876641072.70237
           X            0.97291  -0.22380   0.05795
           Y            0.22339   0.97463   0.01360
           Z           -0.05953  -0.00028   0.99823
 This molecule is an asymmetric top.
 Rotational symmetry number  1.
 Warning -- assumption of classical behavior for rotation
           may cause significant error
 Rotational temperatures (Kelvin)      0.11352     0.10362     0.08074
 Rotational constants (GHZ):           2.36541     2.15910     1.68242
 Zero-point vibrational energy     425386.0 (Joules/Mol)
                                  101.66970 (Kcal/Mol)
 Warning -- explicit consideration of   8 degrees of freedom as
           vibrations may cause significant error
 Vibrational temperatures:    258.34   357.32   378.53   441.89   619.71
          (Kelvin)            647.96   665.82   814.68   925.86  1039.27
                             1080.16  1179.92  1199.01  1237.12  1288.92
                             1327.20  1344.05  1389.80  1420.77  1445.73
                             1489.41  1502.10  1545.78  1556.43  1601.68
                             1635.57  1693.14  1715.72  1721.67  1751.78
                             1778.24  1805.84  1861.01  1877.73  1909.53
                             1925.22  1990.45  1999.83  2146.20  2177.90
                             2200.31  4242.99  4394.12  4409.40  4409.85
                             4459.50  4479.74  4492.73  4497.59  4512.32
                             5478.39

 Zero-point correction=                           0.162021 (Hartree/Particle)
 Thermal correction to Energy=                    0.168932
 Thermal correction to Enthalpy=                  0.169876
 Thermal correction to Gibbs Free Energy=         0.131201
 Sum of electronic and zero-point Energies=           -423.016935
 Sum of electronic and thermal Energies=              -423.010024
 Sum of electronic and thermal Enthalpies=            -423.009080
 Sum of electronic and thermal Free Energies=         -423.047755

                     E (Thermal)             CV                S
                      KCal/Mol        Cal/Mol-Kelvin    Cal/Mol-Kelvin
 Total                  106.007             29.017             81.398
 Electronic               0.000              0.000              0.000
 Translational            0.889              2.981             40.409
 Rotational               0.889              2.981             28.016
 Vibrational            104.229             23.056             12.973
 Vibration     1          0.629              1.867              2.333
 Vibration     2          0.662              1.766              1.742
 Vibration     3          0.670              1.740              1.641
 Vibration     4          0.697              1.660              1.378
 Vibration     5          0.792              1.403              0.856
 Vibration     6          0.809              1.360              0.795
 Vibration     7          0.820              1.333              0.758
 Vibration     8          0.922              1.104              0.512

 Optimization completed.
    -- Stationary point found.
 Normal termination of Gaussian 09 at Mon Jan 27 19:01:22 2020.
