 Gaussian 09, Revision D.01,
 Gaussian 09:  ES64L-G09RevD.01 24-Apr-2013

 -----------------------------
 # b3lyp 6-31G(2df,p) opt Freq
 -----------------------------

 -----
 titel
 -----
 Symbolic Z-matrix:
 Charge =  0 Multiplicity = 1

 SCF Done:  E(RB3LYP) =  -423.170069299     A.U. after   14 cycles
 Optimization completed.
    -- Stationary point found.
 Normal termination of Gaussian 09 at Mon Jan 27 17:36:27 2020.

 ----------------------------------------------------------------------
 #N Geom=AllCheck Guess=TCheck SCRF=Check GenChk RB3LYP/6-31G(2df,p) Fr
 eq
 ----------------------------------------------------------------------

 Structure from the checkpoint file:  "/scratch/puck/g09_09cd578c-cdda-4d5a-9830-470606e26bc5/Gau-79642.chk"
 -----
 titel
 -----
 Charge =  0 Multiplicity = 1

                         Standard orientation:
 ---------------------------------------------------------------------
 Center     Atomic      Atomic             Coordinates (Angstroms)
 Number     Number       Type             X           Y           Z
 ---------------------------------------------------------------------
      1          6           0       -2.485281    0.432943   -0.039022
      2          6           0       -1.043178    0.021573   -0.090232
      3          8           0       -0.746651   -1.276857   -0.616729
      4          6           0       -0.368080   -0.992038    0.739362
      5          6           0        1.073910   -0.469205    0.922626
      6          6           0        1.772627   -0.498990   -0.448661
      7          8           0        1.082977    0.513871   -1.209622
      8          6           0        0.095082    1.064258   -0.345035
      9          6           0        0.791230    1.056512    1.029131
     10          1           0       -2.843577    0.715683   -1.035049
     11          1           0       -3.107331   -0.388340    0.326689
     12          1           0       -2.622300    1.295172    0.622853
     13          1           0       -0.856121   -1.594011    1.501253
     14          1           0        1.637798   -0.931291    1.732658
     15          1           0        2.833892   -0.232383   -0.364607
     16          1           0        1.676513   -1.462033   -0.955437
     17          1           0       -0.237131    2.019563   -0.752492
     18          1           0        1.685682    1.685042    1.067261
     19          1           0        0.124113    1.306165    1.858668
 ---------------------------------------------------------------------

 SCF Done:  E(RB3LYP) =  -423.170069299     A.U. after    1 cycles

 The electronic state is 1-A.
 Alpha  occ. eigenvalues --  -19.14745 -19.13054 -10.23522 -10.23304 -10.23155
 Alpha  occ. eigenvalues --  -10.22090 -10.19795 -10.18853 -10.18649  -1.07655
 Alpha  occ. eigenvalues --   -1.02248  -0.81108  -0.76201  -0.71897  -0.65444
 Alpha  occ. eigenvalues --   -0.61325  -0.58308  -0.54865  -0.51668  -0.49859
 Alpha  occ. eigenvalues --   -0.45754  -0.43448  -0.42090  -0.41855  -0.40732
 Alpha  occ. eigenvalues --   -0.38071  -0.37463  -0.36302  -0.35667  -0.35126
 Alpha  occ. eigenvalues --   -0.30799  -0.28119  -0.26153  -0.23847
 Alpha virt. eigenvalues --    0.08611   0.09232   0.10166   0.11622   0.12544
 Alpha virt. eigenvalues --    0.13884   0.15231   0.15667   0.15922   0.16267
 Alpha virt. eigenvalues --    0.17730   0.18040   0.19622   0.19978   0.20720

 Mulliken charges:
               1
     1  C   -0.499625
     2  C    0.434779
     3  O   -0.279542
     4  C   -0.043162
     5  C   -0.099035
     6  C   -0.066352
     7  O   -0.260936
     8  C    0.012925
     9  C   -0.234363
    10  H    0.133996
    11  H    0.130811
    12  H    0.122433
    13  H    0.092888
    14  H    0.071355
    15  H    0.090572
    16  H    0.117227
    17  H    0.072981
    18  H    0.102569
    19  H    0.100480
 Sum of Mulliken charges =   0.00000

 Dipole moment (field-independent basis, Debye):
    X=             -0.3500    Y=              0.8035    Z=              2.6347  Tot=              2.7766
 Quadrupole moment (field-independent basis, Debye-Ang):
   XX=            -50.2527   YY=            -52.9995   ZZ=            -55.0531
   XY=             -2.8193   XZ=              1.1542   YZ=             -1.4527

  Exact polarizability:  82.698  -3.194  71.320   1.826  -1.613  65.795
 Approx polarizability: 108.873  -4.434 110.527   3.386  -1.855 105.790

                      1                      2                      3
                      A                      A                      A
 Frequencies --    185.9026               201.0098               267.4605
 Red. masses --      1.3952                 1.6495                 2.8109
 Frc consts  --      0.0284                 0.0393                 0.1185
 IR Inten    --      0.6117                 0.5532                 0.4020

                      4                      5                      6
                      A                      A                      A
 Frequencies --    313.9912               372.5461               468.8917
 Red. masses --      3.9828                 3.3845                 1.9457
 Frc consts  --      0.2314                 0.2768                 0.2520
 IR Inten    --      2.0872                 3.9632                 0.4987

                      7                      8                      9
                      A                      A                      A
 Frequencies --    473.0927               554.5130               590.4778
 Red. masses --      3.1512                 4.8653                 4.9102
 Frc consts  --      0.4156                 0.8814                 1.0087
 IR Inten    --      2.5928                11.1316                10.6771

                     10                     11                     12
                      A                      A                      A
 Frequencies --    691.5635               766.4327               819.4075
 Red. masses --      4.0127                 6.2977                 4.3184
 Frc consts  --      1.1307                 2.1796                 1.7083
 IR Inten    --      2.3944                 6.2692                 2.4963

                     13                     14                     15
                      A                      A                      A
 Frequencies --    853.6978               868.2017               890.0578
 Red. masses --      2.4595                 2.8357                 2.3899
 Frc consts  --      1.0561                 1.2594                 1.1155
 IR Inten    --      1.1396                11.3946                14.3619

                     16                     17                     18
                      A                      A                      A
 Frequencies --    902.7739               931.2249               946.4581
 Red. masses --      2.4035                 3.5818                 1.9834
 Frc consts  --      1.1541                 1.8300                 1.0468
 IR Inten    --      4.9554                12.9940                 7.7882

                     19                     20                     21
                      A                      A                      A
 Frequencies --    957.9523               992.3583              1010.3223
 Red. masses --      2.0631                 1.7096                 1.9102
 Frc consts  --      1.1155                 0.9919                 1.1488
 IR Inten    --     11.1227                18.7300                 7.4584

                     22                     23                     24
                      A                      A                      A
 Frequencies --   1039.5087              1066.4085              1088.3092
 Red. masses --      1.7543                 2.1336                 2.5294
 Frc consts  --      1.1169                 1.4296                 1.7651
 IR Inten    --      2.1057                22.9203                45.2055

                     25                     26                     27
                      A                      A                      A
 Frequencies --   1107.2962              1140.6548              1171.7252
 Red. masses --      1.8238                 1.2548                 1.5547
 Frc consts  --      1.3175                 0.9619                 1.2576
 IR Inten    --      6.1190                 5.6519                 3.2568

                     28                     29                     30
                      A                      A                      A
 Frequencies --   1207.4577              1223.9409              1257.5322
 Red. masses --      1.3677                 2.0774                 1.5743
 Frc consts  --      1.1749                 1.8336                 1.4668
 IR Inten    --      0.9651                 8.0210                 9.8972

                     31                     32                     33
                      A                      A                      A
 Frequencies --   1274.3507              1298.3678              1301.7061
 Red. masses --      1.4848                 1.5582                 1.5277
 Frc consts  --      1.4206                 1.5476                 1.5251
 IR Inten    --      4.4849                 3.5302                 0.7128

                     34                     35                     36
                      A                      A                      A
 Frequencies --   1322.1172              1386.4888              1408.7713
 Red. masses --      1.4347                 1.3795                 1.2698
 Frc consts  --      1.4776                 1.5624                 1.4848
 IR Inten    --      4.4701                 1.5727                 2.3096

                     37                     38                     39
                      A                      A                      A
 Frequencies --   1447.7473              1483.2910              1489.2118
 Red. masses --      2.9710                 1.0977                 1.1240
 Frc consts  --      3.6689                 1.4229                 1.4687
 IR Inten    --      9.8485                 4.2098                 6.9232

                     40                     41                     42
                      A                      A                      A
 Frequencies --   1494.3837              1518.1644              3020.7253
 Red. masses --      1.0950                 1.1209                 1.0670
 Frc consts  --      1.4407                 1.5222                 5.7362
 IR Inten    --      2.4502                 0.7286                72.8679

                     43                     44                     45
                      A                      A                      A
 Frequencies --   3032.3139              3056.6585              3094.4151
 Red. masses --      1.0359                 1.0576                 1.1005
 Frc consts  --      5.6121                 5.8221                 6.2085
 IR Inten    --     18.3189                25.3643                15.5911

                     46                     47                     48
                      A                      A                      A
 Frequencies --   3098.1138              3113.4858              3116.7024
 Red. masses --      1.0983                 1.1084                 1.0920
 Frc consts  --      6.2111                 6.3303                 6.2496
 IR Inten    --     24.3403                29.4537                19.7351

                     49                     50                     51
                      A                      A                      A
 Frequencies --   3118.6774              3121.2201              3149.4636
 Red. masses --      1.0970                 1.0898                 1.0921
 Frc consts  --      6.2862                 6.2555                 6.3826
 IR Inten    --     37.5420                10.2562                24.9832

 - Thermochemistry -
 -------------------
 Temperature   298.150 Kelvin.  Pressure   1.00000 Atm.
 Atom     1 has atomic number  6 and mass  12.00000

 Molecular mass:   126.06808 amu.
 Principal axes and moments of inertia in atomic units:
                           1         2         3
     Eigenvalues --   604.782031049.437791111.97235
           X            0.99916  -0.03993   0.00924
           Y            0.03985   0.99917   0.00845
           Z           -0.00957  -0.00808   0.99992
 This molecule is an asymmetric top.
 Rotational symmetry number  1.
 Warning -- assumption of classical behavior for rotation
           may cause significant error
 Rotational temperatures (Kelvin)      0.14321     0.08253     0.07789
 Rotational constants (GHZ):           2.98412     1.71972     1.62301
 Zero-point vibrational energy     422925.0 (Joules/Mol)
                                  101.08151 (Kcal/Mol)
 Warning -- explicit consideration of   9 degrees of freedom as
           vibrations may cause significant error
 Vibrational temperatures:    267.47   289.21   384.82   451.76   536.01
          (Kelvin)            674.63   680.67   797.82   849.56   995.00
                             1102.72  1178.94  1228.28  1249.15  1280.59
                             1298.89  1339.82  1361.74  1378.28  1427.78
                             1453.63  1495.62  1534.32  1565.83  1593.15
                             1641.15  1685.85  1737.26  1760.98  1809.31
                             1833.50  1868.06  1872.86  1902.23  1994.85
                             2026.91  2082.98  2134.12  2142.64  2150.08
                             2184.30  4346.14  4362.82  4397.84  4452.17
                             4457.49  4479.61  4484.23  4487.08  4490.73
                             4531.37

 Zero-point correction=                           0.161084 (Hartree/Particle)
 Thermal correction to Energy=                    0.168110
 Thermal correction to Enthalpy=                  0.169054
 Thermal correction to Gibbs Free Energy=         0.130127
 Sum of electronic and zero-point Energies=           -423.008986
 Sum of electronic and thermal Energies=              -423.001960
 Sum of electronic and thermal Enthalpies=            -423.001016
 Sum of electronic and thermal Free Energies=         -423.039942

                     E (Thermal)             CV                S
                      KCal/Mol        Cal/Mol-Kelvin    Cal/Mol-Kelvin
 Total                  105.490             29.192             81.928
 Electronic               0.000              0.000              0.000
 Translational            0.889              2.981             40.409
 Rotational               0.889              2.981             28.047
 Vibrational            103.713             23.230             13.472
 Vibration     1          0.632              1.859              2.268
 Vibration     2          0.638              1.838              2.124
 Vibration     3          0.673              1.733              1.613
 Vibration     4          0.702              1.647              1.341
 Vibration     5          0.744              1.529              1.069
 Vibration     6          0.826              1.319              0.741
 Vibration     7          0.830              1.310              0.729
 Vibration     8          0.910              1.130              0.535
 Vibration     9          0.948              1.052              0.466

 Optimization completed.
    -- Stationary point found.
 Normal termination of Gaussian 09 at Mon Jan 27 18:32:27 2020.
