 Gaussian 09, Revision D.01,
 Gaussian 09:  ES64L-G09RevD.01 24-Apr-2013

 -----------------------------
 # b3lyp 6-31G(2df,p) opt Freq
 -----------------------------

 -----
 titel
 -----
 Symbolic Z-matrix:
 Charge =  0 Multiplicity = 1

 SCF Done:  E(RB3LYP) =  -423.155004123     A.U. after   14 cycles
 SCF Done:  E(RB3LYP) =  -423.155004069     A.U. after    7 cycles
 SCF Done:  E(RB3LYP) =  -423.155003820     A.U. after    8 cycles
 SCF Done:  E(RB3LYP) =  -423.155004097     A.U. after    7 cycles
 SCF Done:  E(RB3LYP) =  -423.155004181     A.U. after    7 cycles
 Optimization completed.
    -- Stationary point found.
 Normal termination of Gaussian 09 at Tue Jan 28 12:30:15 2020.

 ----------------------------------------------------------------------
 #N Geom=AllCheck Guess=TCheck SCRF=Check GenChk RB3LYP/6-31G(2df,p) Fr
 eq
 ----------------------------------------------------------------------

 Structure from the checkpoint file:  "/scratch/puck/g09_caf6a966-05a3-4e23-89c6-8d0143dcb0b3/Gau-1642.chk"
 -----
 titel
 -----
 Charge =  0 Multiplicity = 1

                         Standard orientation:
 ---------------------------------------------------------------------
 Center     Atomic      Atomic             Coordinates (Angstroms)
 Number     Number       Type             X           Y           Z
 ---------------------------------------------------------------------
      1          6           0       -3.066125    0.480891    0.029949
      2          6           0       -1.775013   -0.016700    0.654941
      3          8           0       -0.946739   -0.525258   -0.382098
      4          6           0        0.285554   -1.040622    0.061478
      5          6           0        0.899648   -1.840354   -1.088762
      6          6           0        1.271908    0.058303    0.492245
      7          8           0        2.096628   -0.125574    1.360016
      8          6           0        1.194038    1.314275   -0.237166
      9          6           0        1.157036    2.362482   -0.828227
     10          1           0       -3.574191   -0.330681   -0.498552
     11          1           0       -3.737356    0.868228    0.802080
     12          1           0       -2.859988    1.281049   -0.686223
     13          1           0       -1.267465    0.801782    1.188406
     14          1           0       -1.976402   -0.811306    1.391428
     15          1           0        0.153664   -1.689938    0.940578
     16          1           0        0.214167   -2.639587   -1.381014
     17          1           0        1.065259   -1.192785   -1.954574
     18          1           0        1.852998   -2.278376   -0.782884
     19          1           0        1.127928    3.288624   -1.349342
 ---------------------------------------------------------------------

 SCF Done:  E(RB3LYP) =  -423.155004181     A.U. after    1 cycles

 The electronic state is 1-A.
 Alpha  occ. eigenvalues --  -19.14875 -19.14409 -10.28995 -10.24552 -10.23389
 Alpha  occ. eigenvalues --  -10.20796 -10.20103 -10.18665 -10.17967  -1.05709
 Alpha  occ. eigenvalues --   -1.04029  -0.79698  -0.77148  -0.73587  -0.67157
 Alpha  occ. eigenvalues --   -0.62273  -0.60948  -0.53828  -0.51728  -0.49296
 Alpha  occ. eigenvalues --   -0.46155  -0.44873  -0.44295  -0.41405  -0.39737
 Alpha  occ. eigenvalues --   -0.38417  -0.38068  -0.36483  -0.35547  -0.32845
 Alpha  occ. eigenvalues --   -0.29814  -0.29497  -0.28698  -0.24890
 Alpha virt. eigenvalues --   -0.06234   0.03313   0.09392   0.09533   0.10908
 Alpha virt. eigenvalues --    0.11262   0.12836   0.14664   0.15068   0.16478
 Alpha virt. eigenvalues --    0.17258   0.18454   0.18596   0.19005   0.20345

 Mulliken charges:
               1
     1  C   -0.385207
     2  C   -0.046962
     3  O   -0.248068
     4  C    0.038584
     5  C   -0.416912
     6  C    0.198822
     7  O   -0.284095
     8  C    0.311645
     9  C   -0.450945
    10  H    0.127856
    11  H    0.117519
    12  H    0.129789
    13  H    0.098766
    14  H    0.093802
    15  H    0.092001
    16  H    0.132230
    17  H    0.137308
    18  H    0.136641
    19  H    0.217225
 Sum of Mulliken charges =   0.00000

 Dipole moment (field-independent basis, Debye):
    X=             -1.7556    Y=              0.5781    Z=             -1.1944  Tot=              2.2006
 Quadrupole moment (field-independent basis, Debye-Ang):
   XX=            -56.8034   YY=            -45.9661   ZZ=            -54.9269
   XY=             -0.0750   XZ=             -6.6285   YZ=             -2.5329

  Exact polarizability:  77.358  -2.104  89.280   1.345  -9.895  70.088
 Approx polarizability: 101.212  -6.061 135.142  10.956 -27.642 115.552

                      1                      2                      3
                      A                      A                      A
 Frequencies --     32.0330                54.8730               101.4159
 Red. masses --      4.8435                 2.5405                 2.1718
 Frc consts  --      0.0029                 0.0045                 0.0132
 IR Inten    --      2.7382                 0.4832                 1.5749

                      4                      5                      6
                      A                      A                      A
 Frequencies --    142.0487               173.6382               200.5215
 Red. masses --      3.9806                 2.8853                 2.8891
 Frc consts  --      0.0473                 0.0513                 0.0684
 IR Inten    --      2.6600                 1.2451                 1.0632

                      7                      8                      9
                      A                      A                      A
 Frequencies --    230.5653               245.1639               277.1005
 Red. masses --      1.1060                 1.2957                 4.4572
 Frc consts  --      0.0346                 0.0459                 0.2016
 IR Inten    --      0.7386                 0.5714                 3.5609

                     10                     11                     12
                      A                      A                      A
 Frequencies --    316.1002               362.4147               443.8194
 Red. masses --      4.6435                 3.6296                 3.6160
 Frc consts  --      0.2734                 0.2809                 0.4197
 IR Inten    --     11.1416                 1.3394                 2.3891

                     13                     14                     15
                      A                      A                      A
 Frequencies --    533.4201               647.2238               667.7896
 Red. masses --      4.6650                 1.2790                 4.6364
 Frc consts  --      0.7821                 0.3157                 1.2182
 IR Inten    --      2.5984                39.8879                20.8000

                     16                     17                     18
                      A                      A                      A
 Frequencies --    693.0951               715.1474               748.7200
 Red. masses --      5.2026                 1.3741                 3.9931
 Frc consts  --      1.4725                 0.4141                 1.3189
 IR Inten    --      6.7525                23.8833                10.0322

                     19                     20                     21
                      A                      A                      A
 Frequencies --    820.1913               866.2269               942.2993
 Red. masses --      1.0898                 1.8496                 2.0522
 Frc consts  --      0.4319                 0.8177                 1.0736
 IR Inten    --      0.0717                 3.8070                17.5364

                     22                     23                     24
                      A                      A                      A
 Frequencies --   1005.0439              1078.3784              1100.2124
 Red. masses --      1.8368                 2.8464                 2.3265
 Frc consts  --      1.0932                 1.9502                 1.6592
 IR Inten    --     46.9314                22.9968                 8.8013

                     25                     26                     27
                      A                      A                      A
 Frequencies --   1151.0174              1177.3833              1187.5560
 Red. masses --      5.0431                 2.4152                 1.7061
 Frc consts  --      3.9365                 1.9726                 1.4177
 IR Inten    --    175.9188                22.8907                 3.8542

                     28                     29                     30
                      A                      A                      A
 Frequencies --   1209.8973              1300.4727              1319.2307
 Red. masses --      3.8119                 1.1076                 1.3599
 Frc consts  --      3.2877                 1.1037                 1.3944
 IR Inten    --     74.3047                 0.7858                 8.8619

                     31                     32                     33
                      A                      A                      A
 Frequencies --   1343.7042              1396.4066              1401.1265
 Red. masses --      1.2112                 1.2325                 1.2367
 Frc consts  --      1.2884                 1.4160                 1.4305
 IR Inten    --     46.5938                 6.6627                 1.1905

                     34                     35                     36
                      A                      A                      A
 Frequencies --   1436.8132              1482.3064              1483.6420
 Red. masses --      1.4154                 1.0403                 1.0456
 Frc consts  --      1.7216                 1.3467                 1.3561
 IR Inten    --     14.8108                 4.0259                 5.9478

                     37                     38                     39
                      A                      A                      A
 Frequencies --   1496.8533              1498.5522              1524.6820
 Red. masses --      1.0521                 1.0463                 1.0884
 Frc consts  --      1.3889                 1.3844                 1.4907
 IR Inten    --      0.8667                 2.2193                 2.0482

                     40                     41                     42
                      A                      A                      A
 Frequencies --   1768.5571              2208.5075              2971.3652
 Red. masses --     12.3906                 5.9184                 1.0567
 Frc consts  --     22.8340                17.0081                 5.4971
 IR Inten    --    149.1545                63.0714                34.1586

                     43                     44                     45
                      A                      A                      A
 Frequencies --   2993.9021              3004.0615              3046.2156
 Red. masses --      1.0830                 1.1039                 1.0346
 Frc consts  --      5.7197                 5.8696                 5.6563
 IR Inten    --     40.4952                37.9687                15.8822

                     46                     47                     48
                      A                      A                      A
 Frequencies --   3049.0419              3121.1219              3123.8696
 Red. masses --      1.0335                 1.1016                 1.1027
 Frc consts  --      5.6609                 6.3227                 6.3399
 IR Inten    --     10.7131                22.2096                23.1442

                     49                     50                     51
                      A                      A                      A
 Frequencies --   3127.2632              3135.4742              3494.1802
 Red. masses --      1.1024                 1.1028                 1.1616
 Frc consts  --      6.3522                 6.3880                 8.3560
 IR Inten    --     15.3855                11.4518                49.2651

 - Thermochemistry -
 -------------------
 Temperature   298.150 Kelvin.  Pressure   1.00000 Atm.
 Atom     1 has atomic number  6 and mass  12.00000

 Molecular mass:   126.06808 amu.
 Principal axes and moments of inertia in atomic units:
                           1         2         3
     Eigenvalues --   915.802891506.671411874.77569
           X            0.99850  -0.04444  -0.03207
           Y            0.04502   0.99883   0.01757
           Z            0.03126  -0.01898   0.99933
 This molecule is an asymmetric top.
 Rotational symmetry number  1.
 Warning -- assumption of classical behavior for rotation
           may cause significant error
 Rotational temperatures (Kelvin)      0.09458     0.05749     0.04620
 Rotational constants (GHZ):           1.97067     1.19783     0.96264
 Zero-point vibrational energy     405837.0 (Joules/Mol)
                                   96.99737 (Kcal/Mol)
 Warning -- explicit consideration of  13 degrees of freedom as
           vibrations may cause significant error
 Vibrational temperatures:     46.09    78.95   145.91   204.38   249.83
          (Kelvin)            288.51   331.73   352.74   398.69   454.80
                              521.43   638.56   767.47   931.21   960.80
                              997.21  1028.94  1077.24  1180.07  1246.31
                             1355.76  1446.03  1551.54  1582.96  1656.06
                             1693.99  1708.63  1740.77  1871.09  1898.08
                             1933.29  2009.12  2015.91  2067.25  2132.71
                             2134.63  2153.64  2156.08  2193.67  2544.56
                             3177.55  4275.13  4307.55  4322.17  4382.82
                             4386.89  4490.59  4494.55  4499.43  4511.24
                             5027.34

 Zero-point correction=                           0.154575 (Hartree/Particle)
 Thermal correction to Energy=                    0.165331
 Thermal correction to Enthalpy=                  0.166276
 Thermal correction to Gibbs Free Energy=         0.117587
 Sum of electronic and zero-point Energies=           -423.000429
 Sum of electronic and thermal Energies=              -422.989673
 Sum of electronic and thermal Enthalpies=            -422.988729
 Sum of electronic and thermal Free Energies=         -423.037417

                     E (Thermal)             CV                S
                      KCal/Mol        Cal/Mol-Kelvin    Cal/Mol-Kelvin
 Total                  103.747             37.292            102.473
 Electronic               0.000              0.000              0.000
 Translational            0.889              2.981             40.409
 Rotational               0.889              2.981             29.338
 Vibrational            101.970             31.330             32.727
 Vibration     1          0.594              1.983              5.699
 Vibration     2          0.596              1.976              4.634
 Vibration     3          0.604              1.948              3.427
 Vibration     4          0.616              1.911              2.776
 Vibration     5          0.627              1.875              2.396
 Vibration     6          0.638              1.839              2.128
 Vibration     7          0.652              1.794              1.875
 Vibration     8          0.660              1.771              1.765
 Vibration     9          0.678              1.716              1.552
 Vibration    10          0.703              1.643              1.330
 Vibration    11          0.736              1.550              1.112
 Vibration    12          0.803              1.375              0.815
 Vibration    13          0.888              1.176              0.580

 Optimization completed.
    -- Stationary point found.
 Normal termination of Gaussian 09 at Tue Jan 28 13:11:46 2020.
