 Gaussian 09, Revision D.01,
 Gaussian 09:  ES64L-G09RevD.01 24-Apr-2013

 -----------------------------
 # b3lyp 6-31G(2df,p) opt Freq
 -----------------------------

 -----
 titel
 -----
 Symbolic Z-matrix:
 Charge =  0 Multiplicity = 1

 SCF Done:  E(RB3LYP) =  -423.172969899     A.U. after   14 cycles
 Optimization completed.
    -- Stationary point found.
 Normal termination of Gaussian 09 at Tue Jan 28 12:40:00 2020.

 ----------------------------------------------------------------------
 #N Geom=AllCheck Guess=TCheck SCRF=Check GenChk RB3LYP/6-31G(2df,p) Fr
 eq
 ----------------------------------------------------------------------

 Structure from the checkpoint file:  "/scratch/puck/g09_4f99d744-9454-406c-9078-d4ecf7c58feb/Gau-116165.chk"
 -----
 titel
 -----
 Charge =  0 Multiplicity = 1

                         Standard orientation:
 ---------------------------------------------------------------------
 Center     Atomic      Atomic             Coordinates (Angstroms)
 Number     Number       Type             X           Y           Z
 ---------------------------------------------------------------------
      1          8           0        3.037818   -0.788355   -0.229435
      2          6           0        2.379511    0.339801    0.344808
      3          6           0        0.906927    0.336181    0.078696
      4          6           0        0.193804    1.306913   -0.507635
      5          6           0       -1.257166    0.979671   -0.567527
      6          6           0       -1.952222    0.806846    0.782641
      7          6           0       -1.383706   -0.388637    0.066628
      8          8           0       -2.256267   -1.320683   -0.497808
      9          6           0        0.026473   -0.848495    0.441825
     10          1           0        2.852257   -0.772416   -1.174475
     11          1           0        2.581809    0.263356    1.420449
     12          1           0        2.821458    1.286145   -0.003136
     13          1           0        0.605521    2.243401   -0.869967
     14          1           0       -1.864033    1.266050   -1.418675
     15          1           0       -1.460234    1.193595    1.669805
     16          1           0       -3.034449    0.886220    0.773987
     17          1           0       -2.655104   -1.827105    0.218164
     18          1           0        0.119674   -1.120754    1.501327
     19          1           0        0.298972   -1.739870   -0.136155
 ---------------------------------------------------------------------

 SCF Done:  E(RB3LYP) =  -423.172969899     A.U. after    1 cycles

 The electronic state is 1-A.
 Alpha  occ. eigenvalues --  -19.14248 -19.13337 -10.23664 -10.22826 -10.18904
 Alpha  occ. eigenvalues --  -10.18462 -10.18328 -10.18231 -10.18219  -1.02859
 Alpha  occ. eigenvalues --   -1.01265  -0.87717  -0.77881  -0.70316  -0.68194
 Alpha  occ. eigenvalues --   -0.60175  -0.56552  -0.53328  -0.52406  -0.49279
 Alpha  occ. eigenvalues --   -0.46193  -0.44275  -0.43001  -0.41921  -0.40743
 Alpha  occ. eigenvalues --   -0.38331  -0.37213  -0.35273  -0.33618  -0.32331
 Alpha  occ. eigenvalues --   -0.27948  -0.26978  -0.26132  -0.22791
 Alpha virt. eigenvalues --    0.00990   0.08211   0.08808   0.11510   0.12385
 Alpha virt. eigenvalues --    0.12910   0.13715   0.15303   0.16208   0.17474
 Alpha virt. eigenvalues --    0.18038   0.19550   0.20570   0.21233   0.23988

 Mulliken charges:
               1
     1  O   -0.413873
     2  C   -0.166259
     3  C    0.274176
     4  C   -0.185676
     5  C   -0.116789
     6  C   -0.339082
     7  C    0.394501
     8  O   -0.468423
     9  C   -0.376668
    10  H    0.282161
    11  H    0.111247
    12  H    0.090718
    13  H    0.092135
    14  H    0.097323
    15  H    0.108228
    16  H    0.111719
    17  H    0.282082
    18  H    0.103411
    19  H    0.119070
 Sum of Mulliken charges =   0.00000

 Dipole moment (field-independent basis, Debye):
    X=             -0.9360    Y=              0.7272    Z=              0.5461  Tot=              1.3050
 Quadrupole moment (field-independent basis, Debye-Ang):
   XX=            -56.1145   YY=            -52.3309   ZZ=            -50.7542
   XY=              3.9762   XZ=             -5.3545   YZ=             -2.2788

  Exact polarizability:  92.844  -3.061  76.181   0.589  -4.718  64.518
 Approx polarizability: 121.935 -10.284 120.326   4.305 -10.913 103.618

                      1                      2                      3
                      A                      A                      A
 Frequencies --     80.2386               111.7017               208.4371
 Red. masses --      3.4325                 4.0219                 3.4718
 Frc consts  --      0.0130                 0.0296                 0.0889
 IR Inten    --      3.8294                 0.2988                 6.6078

                      4                      5                      6
                      A                      A                      A
 Frequencies --    262.0319               289.9703               303.6203
 Red. masses --      1.3660                 2.2133                 1.6654
 Frc consts  --      0.0553                 0.1096                 0.0905
 IR Inten    --     53.8834                27.3807                27.4949

                      7                      8                      9
                      A                      A                      A
 Frequencies --    372.9273               406.5183               415.0603
 Red. masses --      1.6166                 2.4237                 2.5813
 Frc consts  --      0.1325                 0.2360                 0.2620
 IR Inten    --    101.0609                14.4763                 8.3174

                     10                     11                     12
                      A                      A                      A
 Frequencies --    477.7361               511.5411               584.1256
 Red. masses --      2.3178                 2.6897                 3.7468
 Frc consts  --      0.3117                 0.4147                 0.7532
 IR Inten    --      0.9338                 7.9071                 7.8627

                     13                     14                     15
                      A                      A                      A
 Frequencies --    681.2307               737.5518               847.6843
 Red. masses --      3.5858                 3.2948                 2.8648
 Frc consts  --      0.9805                 1.0560                 1.2129
 IR Inten    --      6.1312                 0.3589                 2.7591

                     16                     17                     18
                      A                      A                      A
 Frequencies --    859.5452               877.2218               897.9066
 Red. masses --      1.7140                 1.7481                 3.0155
 Frc consts  --      0.7461                 0.7926                 1.4324
 IR Inten    --     21.6675                14.9600                19.4393

                     19                     20                     21
                      A                      A                      A
 Frequencies --    922.0566               963.7829               988.7755
 Red. masses --      1.5450                 1.5249                 2.2862
 Frc consts  --      0.7739                 0.8346                 1.3169
 IR Inten    --      0.8829                13.2638                10.3652

                     22                     23                     24
                      A                      A                      A
 Frequencies --   1005.3063              1040.8810              1051.5384
 Red. masses --      2.0509                 2.1255                 1.9470
 Frc consts  --      1.2212                 1.3568                 1.2685
 IR Inten    --     36.1549                34.7004                33.2028

                     25                     26                     27
                      A                      A                      A
 Frequencies --   1060.6293              1083.5351              1141.8510
 Red. masses --      1.3023                 2.0160                 1.2035
 Frc consts  --      0.8631                 1.3945                 0.9245
 IR Inten    --      6.3052                 2.6639                21.1683

                     28                     29                     30
                      A                      A                      A
 Frequencies --   1187.1047              1202.9641              1241.9374
 Red. masses --      1.6614                 1.2423                 1.8321
 Frc consts  --      1.3795                 1.0593                 1.6649
 IR Inten    --     22.0052                 5.3282                 7.1018

                     31                     32                     33
                      A                      A                      A
 Frequencies --   1246.7989              1310.1323              1311.8818
 Red. masses --      1.8520                 2.5291                 1.6963
 Frc consts  --      1.6962                 2.5576                 1.7201
 IR Inten    --     57.5534                16.6949                33.6693

                     34                     35                     36
                      A                      A                      A
 Frequencies --   1344.0713              1373.8057              1397.6438
 Red. masses --      1.8792                 1.3912                 1.8582
 Frc consts  --      2.0001                 1.5470                 2.1386
 IR Inten    --     21.7593                 2.5129                14.3362

                     37                     38                     39
                      A                      A                      A
 Frequencies --   1416.2769              1464.3494              1483.4993
 Red. masses --      1.2440                 1.2582                 1.2455
 Frc consts  --      1.4702                 1.5896                 1.6150
 IR Inten    --     77.6961                 5.9902                 4.7212

                     40                     41                     42
                      A                      A                      A
 Frequencies --   1497.4072              1696.1723              2986.1093
 Red. masses --      1.0880                 7.2899                 1.0662
 Frc consts  --      1.4373                12.3569                 5.6016
 IR Inten    --      0.6104                 3.7614                60.0412

                     43                     44                     45
                      A                      A                      A
 Frequencies --   3022.7973              3046.7037              3058.3805
 Red. masses --      1.0614                 1.0951                 1.0998
 Frc consts  --      5.7143                 5.9894                 6.0611
 IR Inten    --     24.7223                30.3676                15.8203

                     46                     47                     48
                      A                      A                      A
 Frequencies --   3119.7104              3176.1294              3186.6124
 Red. masses --      1.0532                 1.0898                 1.0948
 Frc consts  --      6.0393                 6.4773                 6.5500
 IR Inten    --     15.1629                11.6523                15.8185

                     49                     50                     51
                      A                      A                      A
 Frequencies --   3215.7541              3795.2677              3806.9879
 Red. masses --      1.1170                 1.0662                 1.0662
 Frc consts  --      6.8056                 9.0484                 9.1043
 IR Inten    --     10.0785                18.7870                15.2713

 - Thermochemistry -
 -------------------
 Temperature   298.150 Kelvin.  Pressure   1.00000 Atm.
 Atom     1 has atomic number  8 and mass  15.99491

 Molecular mass:   126.06808 amu.
 Principal axes and moments of inertia in atomic units:
                           1         2         3
     Eigenvalues --   516.719941697.489291964.99551
           X            0.99997   0.00245  -0.00688
           Y           -0.00259   0.99977  -0.02135
           Z            0.00683   0.02137   0.99975
 This molecule is an asymmetric top.
 Rotational symmetry number  1.
 Warning -- assumption of classical behavior for rotation
           may cause significant error
 Rotational temperatures (Kelvin)      0.16762     0.05102     0.04408
 Rotational constants (GHZ):           3.49269     1.06318     0.91845
 Zero-point vibrational energy     417328.7 (Joules/Mol)
                                   99.74394 (Kcal/Mol)
 Warning -- explicit consideration of  12 degrees of freedom as
           vibrations may cause significant error
 Vibrational temperatures:    115.45   160.71   299.89   377.01   417.20
          (Kelvin)            436.84   536.56   584.89   597.18   687.35
                              735.99   840.43   980.14  1061.17  1219.63
                             1236.69  1262.12  1291.89  1326.63  1386.67
                             1422.63  1446.41  1497.59  1512.93  1526.01
                             1558.96  1642.87  1707.98  1730.79  1786.87
                             1793.86  1884.99  1887.50  1933.82  1976.60
                             2010.90  2037.70  2106.87  2134.42  2154.43
                             2440.41  4296.34  4349.13  4383.52  4400.32
                             4488.56  4569.74  4584.82  4626.75  5460.54
                             5477.40

 Zero-point correction=                           0.158952 (Hartree/Particle)
 Thermal correction to Energy=                    0.167596
 Thermal correction to Enthalpy=                  0.168540
 Thermal correction to Gibbs Free Energy=         0.125728
 Sum of electronic and zero-point Energies=           -423.014018
 Sum of electronic and thermal Energies=              -423.005374
 Sum of electronic and thermal Enthalpies=            -423.004429
 Sum of electronic and thermal Free Energies=         -423.047242

                     E (Thermal)             CV                S
                      KCal/Mol        Cal/Mol-Kelvin    Cal/Mol-Kelvin
 Total                  105.168             33.547             90.106
 Electronic               0.000              0.000              0.000
 Translational            0.889              2.981             40.409
 Rotational               0.889              2.981             28.935
 Vibrational            103.391             27.585             20.763
 Vibration     1          0.600              1.963              3.885
 Vibration     2          0.607              1.940              3.239
 Vibration     3          0.642              1.828              2.057
 Vibration     4          0.669              1.742              1.648
 Vibration     5          0.686              1.692              1.474
 Vibration     6          0.695              1.667              1.397
 Vibration     7          0.744              1.528              1.068
 Vibration     8          0.771              1.456              0.939
 Vibration     9          0.778              1.438              0.909
 Vibration    10          0.834              1.299              0.716
 Vibration    11          0.867              1.224              0.630
 Vibration    12          0.941              1.066              0.478

 Normal termination of Gaussian 09 at Tue Jan 28 13:21:49 2020.
