 Gaussian 09, Revision D.01,
 Gaussian 09:  ES64L-G09RevD.01 24-Apr-2013

 -----------------------------
 # b3lyp 6-31G(2df,p) opt Freq
 -----------------------------

 -----
 titel
 -----
 Symbolic Z-matrix:
 Charge =  0 Multiplicity = 1

 SCF Done:  E(RB3LYP) =  -423.160487329     A.U. after   14 cycles
 Optimization completed.
    -- Stationary point found.
 Normal termination of Gaussian 09 at Mon Jan 27 17:55:52 2020.

 ----------------------------------------------------------------------
 #N Geom=AllCheck Guess=TCheck SCRF=Check GenChk RB3LYP/6-31G(2df,p) Fr
 eq
 ----------------------------------------------------------------------

 Structure from the checkpoint file:  "/scratch/puck/g09_faf22f7d-998f-4d44-80f4-493ed3efc71c/Gau-169767.chk"
 -----
 titel
 -----
 Charge =  0 Multiplicity = 1

                         Standard orientation:
 ---------------------------------------------------------------------
 Center     Atomic      Atomic             Coordinates (Angstroms)
 Number     Number       Type             X           Y           Z
 ---------------------------------------------------------------------
      1          6           0       -1.020438    2.014369   -0.404208
      2          6           0       -1.015275    0.550832   -0.102206
      3          8           0       -1.536447    0.113152    1.162656
      4          6           0       -2.093292   -0.452400   -0.034743
      5          6           0       -1.163478   -1.585442   -0.473626
      6          6           0        0.005018   -0.533034   -0.543683
      7          6           0        1.220976   -0.787917    0.356928
      8          6           0        2.258228    0.305353    0.253305
      9          8           0        3.379026    0.153975   -0.161670
     10          1           0       -0.229769    2.535612    0.147262
     11          1           0       -0.855519    2.190520   -1.471980
     12          1           0       -1.978401    2.456988   -0.118323
     13          1           0       -3.163606   -0.348191   -0.174192
     14          1           0       -1.045653   -2.395384    0.250864
     15          1           0       -1.410184   -2.002416   -1.452584
     16          1           0        0.318950   -0.377409   -1.580694
     17          1           0        0.865350   -0.839663    1.394129
     18          1           0        1.697541   -1.738124    0.097887
     19          1           0        1.910221    1.310493    0.589129
 ---------------------------------------------------------------------

 SCF Done:  E(RB3LYP) =  -423.160487329     A.U. after    1 cycles

 The electronic state is 1-A.
 Alpha  occ. eigenvalues --  -19.15512 -19.13786 -10.26989 -10.24789 -10.24114
 Alpha  occ. eigenvalues --  -10.20983 -10.19731 -10.19467 -10.19254  -1.08181
 Alpha  occ. eigenvalues --   -1.04426  -0.82482  -0.75114  -0.75027  -0.64396
 Alpha  occ. eigenvalues --   -0.61993  -0.57647  -0.54616  -0.50877  -0.48272
 Alpha  occ. eigenvalues --   -0.46619  -0.44390  -0.43556  -0.43197  -0.41361
 Alpha  occ. eigenvalues --   -0.39842  -0.39552  -0.36890  -0.35863  -0.34465
 Alpha  occ. eigenvalues --   -0.32777  -0.29759  -0.25851  -0.24754
 Alpha virt. eigenvalues --   -0.02171   0.08116   0.08610   0.09943   0.11396
 Alpha virt. eigenvalues --    0.12531   0.13320   0.13793   0.14439   0.14897
 Alpha virt. eigenvalues --    0.16897   0.17716   0.18950   0.19068   0.21251

 Mulliken charges:
               1
     1  C   -0.505865
     2  C    0.406564
     3  O   -0.287202
     4  C   -0.032423
     5  C   -0.276420
     6  C   -0.066436
     7  C   -0.292879
     8  C    0.152672
     9  O   -0.240546
    10  H    0.134604
    11  H    0.128601
    12  H    0.137385
    13  H    0.104618
    14  H    0.112996
    15  H    0.110991
    16  H    0.088767
    17  H    0.132202
    18  H    0.118707
    19  H    0.073662
 Sum of Mulliken charges =   0.00000

 Dipole moment (field-independent basis, Debye):
    X=             -2.7495    Y=             -0.0323    Z=             -1.1710  Tot=              2.9886
 Quadrupole moment (field-independent basis, Debye-Ang):
   XX=            -64.1577   YY=            -50.1548   ZZ=            -54.1200
   XY=             -0.0305   XZ=              4.9717   YZ=             -0.1386

  Exact polarizability:  89.089   2.161  79.201  -1.624   1.657  60.891
 Approx polarizability: 125.068   3.898 109.431  -7.485   3.611 101.383

                      1                      2                      3
                      A                      A                      A
 Frequencies --     43.7661                65.4003               135.8401
 Red. masses --      4.1895                 4.1847                 2.3900
 Frc consts  --      0.0047                 0.0105                 0.0260
 IR Inten    --      6.6709                 3.4298                 0.9111

                      4                      5                      6
                      A                      A                      A
 Frequencies --    187.7896               200.2353               279.1843
 Red. masses --      2.2854                 1.2626                 2.5124
 Frc consts  --      0.0475                 0.0298                 0.1154
 IR Inten    --      2.1099                 0.7240                 2.0089

                      7                      8                      9
                      A                      A                      A
 Frequencies --    291.0429               363.4153               440.5279
 Red. masses --      2.4695                 3.0805                 2.8466
 Frc consts  --      0.1232                 0.2397                 0.3255
 IR Inten    --      1.7481                 0.5117                 8.4934

                     10                     11                     12
                      A                      A                      A
 Frequencies --    498.9071               564.4901               652.1053
 Red. masses --      2.7274                 2.5776                 3.5715
 Frc consts  --      0.4000                 0.4839                 0.8948
 IR Inten    --     11.6244                 6.7759                 2.2569

                     13                     14                     15
                      A                      A                      A
 Frequencies --    718.1014               784.5382               842.6535
 Red. masses --      4.7539                 2.5227                 1.9509
 Frc consts  --      1.4444                 0.9148                 0.8162
 IR Inten    --      2.6503                 0.4108                 6.0776

                     16                     17                     18
                      A                      A                      A
 Frequencies --    863.8142               904.3890               921.0770
 Red. masses --      2.6052                 2.1051                 2.4666
 Frc consts  --      1.1454                 1.0145                 1.2329
 IR Inten    --     21.0876                 3.3416                 2.2916

                     19                     20                     21
                      A                      A                      A
 Frequencies --    961.6483               988.1883              1026.3791
 Red. masses --      1.5255                 1.4548                 1.8091
 Frc consts  --      0.8312                 0.8370                 1.1228
 IR Inten    --      4.4569                 3.4097                 6.4049

                     22                     23                     24
                      A                      A                      A
 Frequencies --   1051.2008              1071.3457              1106.3100
 Red. masses --      2.7546                 1.9947                 2.5717
 Frc consts  --      1.7934                 1.3489                 1.8545
 IR Inten    --      5.7921                26.7046                 4.2699

                     25                     26                     27
                      A                      A                      A
 Frequencies --   1110.5044              1162.9583              1196.5025
 Red. masses --      1.8783                 1.5178                 1.5014
 Frc consts  --      1.3648                 1.2094                 1.2664
 IR Inten    --      5.4012                 6.0868                 3.6679

                     28                     29                     30
                      A                      A                      A
 Frequencies --   1204.1701              1242.4294              1263.0251
 Red. masses --      1.8071                 1.3832                 1.4148
 Frc consts  --      1.5438                 1.2580                 1.3297
 IR Inten    --     17.3281                 1.4081                 6.7249

                     31                     32                     33
                      A                      A                      A
 Frequencies --   1269.7678              1307.3071              1354.0717
 Red. masses --      1.5113                 1.6456                 1.4815
 Frc consts  --      1.4357                 1.6570                 1.6004
 IR Inten    --     11.3159                 1.3806                13.6415

                     34                     35                     36
                      A                      A                      A
 Frequencies --   1405.9083              1430.1405              1457.2622
 Red. masses --      1.2666                 1.2003                 2.0872
 Frc consts  --      1.4751                 1.4465                 2.6115
 IR Inten    --      5.2703                 5.3834                10.5155

                     37                     38                     39
                      A                      A                      A
 Frequencies --   1467.9659              1478.5711              1485.4018
 Red. masses --      1.1026                 1.0915                 1.1761
 Frc consts  --      1.3999                 1.4060                 1.5289
 IR Inten    --      5.7322                 4.4520                 8.0939

                     40                     41                     42
                      A                      A                      A
 Frequencies --   1494.9042              1831.8190              2855.7729
 Red. masses --      1.3373                 9.9653                 1.0811
 Frc consts  --      1.7608                19.7018                 5.1946
 IR Inten    --      5.0028               193.6562               107.8614

                     43                     44                     45
                      A                      A                      A
 Frequencies --   3032.0570              3034.5631              3059.9164
 Red. masses --      1.0597                 1.0368                 1.0806
 Frc consts  --      5.7400                 5.6252                 5.9609
 IR Inten    --      6.1833                18.4551                20.9432

                     46                     47                     48
                      A                      A                      A
 Frequencies --   3066.5098              3096.6732              3099.3149
 Red. masses --      1.0622                 1.0995                 1.1019
 Frc consts  --      5.8849                 6.2122                 6.2363
 IR Inten    --     22.2542                14.1709                14.2025

                     49                     50                     51
                      A                      A                      A
 Frequencies --   3120.9319              3123.5795              3181.4144
 Red. masses --      1.1014                 1.1076                 1.0941
 Frc consts  --      6.3206                 6.3671                 6.5245
 IR Inten    --     11.5974                19.5433                22.3779

 - Thermochemistry -
 -------------------
 Temperature   298.150 Kelvin.  Pressure   1.00000 Atm.
 Atom     1 has atomic number  6 and mass  12.00000

 Molecular mass:   126.06808 amu.
 Principal axes and moments of inertia in atomic units:
                           1         2         3
     Eigenvalues --   615.264751643.880721960.49028
           X            0.99985  -0.00741   0.01546
           Y            0.00755   0.99993  -0.00888
           Z           -0.01539   0.00899   0.99984
 This molecule is an asymmetric top.
 Rotational symmetry number  1.
 Warning -- assumption of classical behavior for rotation
           may cause significant error
 Rotational temperatures (Kelvin)      0.14077     0.05269     0.04418
 Rotational constants (GHZ):           2.93328     1.09785     0.92056
 Zero-point vibrational energy     411490.2 (Joules/Mol)
                                   98.34852 (Kcal/Mol)
 Warning -- explicit consideration of  11 degrees of freedom as
           vibrations may cause significant error
 Vibrational temperatures:     62.97    94.10   195.44   270.19   288.09
          (Kelvin)            401.68   418.75   522.87   633.82   717.82
                              812.17   938.23  1033.19  1128.77  1212.39
                             1242.83  1301.21  1325.22  1383.60  1421.78
                             1476.73  1512.44  1541.43  1591.73  1597.77
                             1673.24  1721.50  1732.53  1787.58  1817.21
                             1826.91  1880.92  1948.20  2022.79  2057.65
                             2096.67  2112.07  2127.33  2137.16  2150.83
                             2635.58  4108.82  4362.45  4366.05  4402.53
                             4412.02  4455.42  4459.22  4490.32  4494.13
                             4577.34

 Zero-point correction=                           0.156728 (Hartree/Particle)
 Thermal correction to Energy=                    0.165853
 Thermal correction to Enthalpy=                  0.166797
 Thermal correction to Gibbs Free Energy=         0.121840
 Sum of electronic and zero-point Energies=           -423.003759
 Sum of electronic and thermal Energies=              -422.994635
 Sum of electronic and thermal Enthalpies=            -422.993691
 Sum of electronic and thermal Free Energies=         -423.038647

                     E (Thermal)             CV                S
                      KCal/Mol        Cal/Mol-Kelvin    Cal/Mol-Kelvin
 Total                  104.074             33.097             94.619
 Electronic               0.000              0.000              0.000
 Translational            0.889              2.981             40.409
 Rotational               0.889              2.981             29.074
 Vibrational            102.297             27.136             25.137
 Vibration     1          0.595              1.980              5.081
 Vibration     2          0.597              1.971              4.287
 Vibration     3          0.614              1.918              2.862
 Vibration     4          0.632              1.857              2.250
 Vibration     5          0.638              1.840              2.131
 Vibration     6          0.680              1.712              1.539
 Vibration     7          0.687              1.690              1.468
 Vibration     8          0.737              1.548              1.107
 Vibration     9          0.800              1.382              0.825
 Vibration    10          0.854              1.252              0.661
 Vibration    11          0.920              1.108              0.515

 Optimization completed.
    -- Stationary point found.
 Normal termination of Gaussian 09 at Mon Jan 27 18:36:01 2020.
