 Gaussian 09, Revision D.01,
 Gaussian 09:  ES64L-G09RevD.01 24-Apr-2013

 -----------------------------
 # b3lyp 6-31G(2df,p) opt Freq
 -----------------------------

 -----
 titel
 -----
 Symbolic Z-matrix:
 Charge =  0 Multiplicity = 1

 SCF Done:  E(RB3LYP) =  -423.189958988     A.U. after   14 cycles
 Optimization completed.
    -- Stationary point found.
 Normal termination of Gaussian 09 at Tue Jan 28 03:58:26 2020.

 ----------------------------------------------------------------------
 #N Geom=AllCheck Guess=TCheck SCRF=Check GenChk RB3LYP/6-31G(2df,p) Fr
 eq
 ----------------------------------------------------------------------

 Structure from the checkpoint file:  "/scratch/puck/g09_bffa031e-2bc0-4f71-b7d6-3c5e04b6005d/Gau-93007.chk"
 -----
 titel
 -----
 Charge =  0 Multiplicity = 1

                         Standard orientation:
 ---------------------------------------------------------------------
 Center     Atomic      Atomic             Coordinates (Angstroms)
 Number     Number       Type             X           Y           Z
 ---------------------------------------------------------------------
      1          8           0       -1.203225   -1.362554   -0.876525
      2          6           0       -1.341288   -0.664785    0.347200
      3          6           0       -1.969652    0.750310    0.143335
      4          6           0       -0.771253    1.595959   -0.255802
      5          6           0        0.353282    1.000819    0.127605
      6          6           0        1.808968    1.025081   -0.199531
      7          6           0        2.018973   -0.498014   -0.413972
      8          8           0        1.159349   -1.163284    0.519492
      9          6           0        0.080106   -0.301443    0.841743
     10          1           0       -2.085428   -1.526182   -1.223484
     11          1           0       -1.901073   -1.264857    1.078578
     12          1           0       -2.752112    0.732020   -0.625527
     13          1           0       -2.448017    1.102147    1.068606
     14          1           0       -0.854728    2.513630   -0.826439
     15          1           0        2.063883    1.618685   -1.080120
     16          1           0        2.416321    1.373629    0.645109
     17          1           0        1.744668   -0.773342   -1.441227
     18          1           0        3.043425   -0.828457   -0.219856
     19          1           0        0.049246   -0.188136    1.937152
 ---------------------------------------------------------------------

 SCF Done:  E(RB3LYP) =  -423.189958988     A.U. after    1 cycles

 The electronic state is 1-A.
 Alpha  occ. eigenvalues --  -19.13234 -19.12770 -10.22928 -10.22207 -10.22020
 Alpha  occ. eigenvalues --  -10.18863 -10.18652 -10.17997 -10.17901  -1.03065
 Alpha  occ. eigenvalues --   -1.01010  -0.83314  -0.76668  -0.70310  -0.68003
 Alpha  occ. eigenvalues --   -0.60867  -0.56903  -0.53165  -0.51270  -0.48208
 Alpha  occ. eigenvalues --   -0.47096  -0.43927  -0.43362  -0.41433  -0.38860
 Alpha  occ. eigenvalues --   -0.37829  -0.37140  -0.35490  -0.34985  -0.32009
 Alpha  occ. eigenvalues --   -0.29830  -0.26394  -0.24489  -0.23419
 Alpha virt. eigenvalues --    0.01538   0.07690   0.10865   0.11380   0.12675
 Alpha virt. eigenvalues --    0.13415   0.15200   0.16031   0.17246   0.17550
 Alpha virt. eigenvalues --    0.18316   0.19495   0.20759   0.20929   0.22752

 Mulliken charges:
               1
     1  O   -0.426402
     2  C    0.071756
     3  C   -0.285112
     4  C   -0.219020
     5  C    0.311073
     6  C   -0.352485
     7  C   -0.066082
     8  O   -0.271315
     9  C    0.089848
    10  H    0.282341
    11  H    0.058584
    12  H    0.093444
    13  H    0.105841
    14  H    0.093237
    15  H    0.112756
    16  H    0.112930
    17  H    0.109077
    18  H    0.103244
    19  H    0.076285
 Sum of Mulliken charges =   0.00000

 Dipole moment (field-independent basis, Debye):
    X=             -1.2446    Y=              1.5522    Z=             -0.3384  Tot=              2.0181
 Quadrupole moment (field-independent basis, Debye-Ang):
   XX=            -45.4054   YY=            -55.8719   ZZ=            -52.0901
   XY=              3.4280   XZ=             -0.0282   YZ=              0.0882

  Exact polarizability:  95.142  -3.688  71.255  -0.475  -3.265  65.055
 Approx polarizability: 132.824 -10.470 104.626   3.781  -6.627 101.571

                      1                      2                      3
                      A                      A                      A
 Frequencies --    111.9623               142.1127               233.6490
 Red. masses --      4.0910                 2.5455                 1.1278
 Frc consts  --      0.0302                 0.0303                 0.0363
 IR Inten    --      4.3617                 2.1100                94.4755

                      4                      5                      6
                      A                      A                      A
 Frequencies --    261.1212               270.4803               347.2031
 Red. masses --      5.2019                 2.2728                 2.6787
 Frc consts  --      0.2090                 0.0980                 0.1903
 IR Inten    --      5.9204                 9.0322                 1.5346

                      7                      8                      9
                      A                      A                      A
 Frequencies --    409.8983               482.3615               615.7226
 Red. masses --      2.1751                 4.2396                 3.7179
 Frc consts  --      0.2153                 0.5812                 0.8305
 IR Inten    --      1.2471                 5.6767                 6.8536

                     10                     11                     12
                      A                      A                      A
 Frequencies --    653.4281               692.5775               787.6391
 Red. masses --      3.3288                 3.8352                 2.7581
 Frc consts  --      0.8374                 1.0839                 1.0081
 IR Inten    --      2.7282                 6.4013                10.2454

                     13                     14                     15
                      A                      A                      A
 Frequencies --    814.1419               851.0818               866.2727
 Red. masses --      2.3996                 2.3367                 2.1576
 Frc consts  --      0.9371                 0.9972                 0.9540
 IR Inten    --     13.1325                 2.9275                28.6624

                     16                     17                     18
                      A                      A                      A
 Frequencies --    874.5897               928.6187               946.5845
 Red. masses --      2.1505                 2.1038                 2.1786
 Frc consts  --      0.9692                 1.0689                 1.1501
 IR Inten    --      0.4720                 5.1069                 6.5283

                     19                     20                     21
                      A                      A                      A
 Frequencies --    956.3072               976.9175              1003.2742
 Red. masses --      2.5021                 3.1059                 2.3007
 Frc consts  --      1.3482                 1.7464                 1.3645
 IR Inten    --      2.8760                36.8879                 6.7301

                     22                     23                     24
                      A                      A                      A
 Frequencies --   1066.2680              1093.9953              1118.9851
 Red. masses --      1.7231                 2.2846                 3.8569
 Frc consts  --      1.1542                 1.6110                 2.8453
 IR Inten    --      3.0721                12.9297               128.8352

                     25                     26                     27
                      A                      A                      A
 Frequencies --   1162.2865              1181.4377              1188.5035
 Red. masses --      1.8163                 1.3959                 1.3835
 Frc consts  --      1.4456                 1.1479                 1.1514
 IR Inten    --     10.8420                31.2561                23.3083

                     28                     29                     30
                      A                      A                      A
 Frequencies --   1206.8799              1226.5658              1270.0316
 Red. masses --      1.5143                 1.2386                 1.5369
 Frc consts  --      1.2995                 1.0979                 1.4606
 IR Inten    --      3.9730                 3.9511                 8.0836

                     31                     32                     33
                      A                      A                      A
 Frequencies --   1284.7417              1294.7300              1326.1275
 Red. masses --      1.3178                 1.4274                 1.4150
 Frc consts  --      1.2816                 1.4098                 1.4661
 IR Inten    --     13.7229                 6.4076                 3.8980

                     34                     35                     36
                      A                      A                      A
 Frequencies --   1351.4162              1366.1663              1389.2106
 Red. masses --      1.6565                 1.2894                 1.3376
 Frc consts  --      1.7824                 1.4180                 1.5209
 IR Inten    --      1.8061                12.0800                 8.6170

                     37                     38                     39
                      A                      A                      A
 Frequencies --   1427.4167              1475.5674              1478.6402
 Red. masses --      1.4696                 1.1059                 1.0978
 Frc consts  --      1.7642                 1.4186                 1.4141
 IR Inten    --      3.4980                 2.3261                 1.2624

                     40                     41                     42
                      A                      A                      A
 Frequencies --   1515.5918              1746.7008              2968.3013
 Red. masses --      1.0922                 8.4177                 1.0822
 Frc consts  --      1.4782                15.1314                 5.6178
 IR Inten    --      0.3745                 1.2027                32.9272

                     43                     44                     45
                      A                      A                      A
 Frequencies --   2996.9819              3012.9230              3013.5568
 Red. masses --      1.0766                 1.0693                 1.0700
 Frc consts  --      5.6975                 5.7189                 5.7254
 IR Inten    --     41.6080               138.1576                15.4872

                     46                     47                     48
                      A                      A                      A
 Frequencies --   3029.9774              3047.9009              3086.6858
 Red. masses --      1.0656                 1.0982                 1.0988
 Frc consts  --      5.7641                 6.0106                 6.1679
 IR Inten    --     27.5042                30.1890                49.5515

                     49                     50                     51
                      A                      A                      A
 Frequencies --   3110.7668              3196.9883              3823.1372
 Red. masses --      1.0975                 1.0948                 1.0663
 Frc consts  --      6.2576                 6.5930                 9.1824
 IR Inten    --     19.4908                13.2640                19.8336

 - Thermochemistry -
 -------------------
 Temperature   298.150 Kelvin.  Pressure   1.00000 Atm.
 Atom     1 has atomic number  8 and mass  15.99491

 Molecular mass:   126.06808 amu.
 Principal axes and moments of inertia in atomic units:
                           1         2         3
     Eigenvalues --   654.353161062.267551411.76331
           X            0.99979   0.01271  -0.01612
           Y           -0.01285   0.99988  -0.00831
           Z            0.01601   0.00852   0.99984
 This molecule is an asymmetric top.
 Rotational symmetry number  1.
 Warning -- assumption of classical behavior for rotation
           may cause significant error
 Rotational temperatures (Kelvin)      0.13237     0.08154     0.06135
 Rotational constants (GHZ):           2.75805     1.69895     1.27836
 Zero-point vibrational energy     422786.8 (Joules/Mol)
                                  101.04846 (Kcal/Mol)
 Warning -- explicit consideration of   9 degrees of freedom as
           vibrations may cause significant error
 Vibrational temperatures:    161.09   204.47   336.17   375.69   389.16
          (Kelvin)            499.55   589.75   694.01   885.89   940.14
                              996.46  1133.24  1171.37  1224.52  1246.37
                             1258.34  1336.07  1361.92  1375.91  1405.56
                             1443.49  1534.12  1574.01  1609.97  1672.27
                             1699.82  1709.99  1736.43  1764.75  1827.29
                             1848.45  1862.83  1908.00  1944.38  1965.61
                             1998.76  2053.73  2123.01  2127.43  2180.60
                             2513.11  4270.72  4311.98  4334.92  4335.83
                             4359.46  4385.24  4441.05  4475.69  4599.75
                             5500.63

 Zero-point correction=                           0.161031 (Hartree/Particle)
 Thermal correction to Energy=                    0.168789
 Thermal correction to Enthalpy=                  0.169733
 Thermal correction to Gibbs Free Energy=         0.128925
 Sum of electronic and zero-point Energies=           -423.028928
 Sum of electronic and thermal Energies=              -423.021170
 Sum of electronic and thermal Enthalpies=            -423.020226
 Sum of electronic and thermal Free Energies=         -423.061034

                     E (Thermal)             CV                S
                      KCal/Mol        Cal/Mol-Kelvin    Cal/Mol-Kelvin
 Total                  105.916             30.443             85.888
 Electronic               0.000              0.000              0.000
 Translational            0.889              2.981             40.409
 Rotational               0.889              2.981             28.375
 Vibrational            104.139             24.481             17.104
 Vibration     1          0.607              1.940              3.235
 Vibration     2          0.616              1.911              2.775
 Vibration     3          0.654              1.789              1.851
 Vibration     4          0.669              1.744              1.654
 Vibration     5          0.674              1.728              1.593
 Vibration     6          0.725              1.581              1.179
 Vibration     7          0.774              1.449              0.927
 Vibration     8          0.839              1.289              0.704
 Vibration     9          0.975              0.999              0.423

 Normal termination of Gaussian 09 at Tue Jan 28 04:43:08 2020.
