 Gaussian 09, Revision D.01,
 Gaussian 09:  ES64L-G09RevD.01 24-Apr-2013

 -----------------------------
 # b3lyp 6-31G(2df,p) opt Freq
 -----------------------------

 -----
 titel
 -----
 Symbolic Z-matrix:
 Charge =  0 Multiplicity = 1

 SCF Done:  E(RB3LYP) =  -423.108482971     A.U. after   13 cycles
 Optimization completed.
    -- Stationary point found.
 Normal termination of Gaussian 09 at Mon Jan 27 18:04:15 2020.

 ----------------------------------------------------------------------
 #N Geom=AllCheck Guess=TCheck SCRF=Check GenChk RB3LYP/6-31G(2df,p) Fr
 eq
 ----------------------------------------------------------------------

 Structure from the checkpoint file:  "/scratch/puck/g09_9d26b484-81cc-4d63-9d4a-7843a9cec40e/Gau-61639.chk"
 -----
 titel
 -----
 Charge =  0 Multiplicity = 1

                         Standard orientation:
 ---------------------------------------------------------------------
 Center     Atomic      Atomic             Coordinates (Angstroms)
 Number     Number       Type             X           Y           Z
 ---------------------------------------------------------------------
      1          6           0       -2.690061   -0.217045    0.185502
      2          6           0       -1.210145   -0.009822    0.047560
      3          6           0       -0.285600    0.593202    1.125027
      4          6           0        0.653493    0.643613   -0.112978
      5          6           0       -0.570552    1.061158   -0.959276
      6          8           0        2.077997    0.775379    0.033404
      7          6           0        2.133103   -0.679630    0.277542
      8          6           0        0.776229   -0.800020   -0.492110
      9          8           0       -0.528329   -1.294471   -0.199546
     10          1           0       -2.899093   -0.921880    0.995946
     11          1           0       -3.190296    0.729035    0.408987
     12          1           0       -3.110865   -0.624833   -0.738308
     13          1           0       -0.581804    1.588467    1.462003
     14          1           0       -0.034497   -0.056137    1.964866
     15          1           0       -0.989556    2.050935   -0.768927
     16          1           0       -0.552402    0.832204   -2.026688
     17          1           0        3.011354   -1.126152   -0.193463
     18          1           0        2.107095   -0.905202    1.347885
     19          1           0        1.003916   -0.962442   -1.550770
 ---------------------------------------------------------------------

 SCF Done:  E(RB3LYP) =  -423.108482971     A.U. after    1 cycles

 The electronic state is 1-A.
 Alpha  occ. eigenvalues --  -19.14490 -19.14300 -10.25396 -10.24022 -10.23926
 Alpha  occ. eigenvalues --  -10.22773 -10.19741 -10.18458 -10.18328  -1.06084
 Alpha  occ. eigenvalues --   -1.02260  -0.83914  -0.75634  -0.70906  -0.67902
 Alpha  occ. eigenvalues --   -0.64106  -0.56839  -0.53334  -0.50904  -0.48233
 Alpha  occ. eigenvalues --   -0.47393  -0.44749  -0.43562  -0.41050  -0.40583
 Alpha  occ. eigenvalues --   -0.37765  -0.36949  -0.36233  -0.35999  -0.33486
 Alpha  occ. eigenvalues --   -0.32707  -0.27678  -0.25903  -0.24097
 Alpha virt. eigenvalues --    0.05802   0.08993   0.09549   0.11343   0.12228
 Alpha virt. eigenvalues --    0.12307   0.14311   0.15256   0.16464   0.16907
 Alpha virt. eigenvalues --    0.17162   0.18723   0.19488   0.20771   0.21431

 Mulliken charges:
               1
     1  C   -0.484500
     2  C    0.417130
     3  C   -0.318612
     4  C    0.401827
     5  C   -0.363316
     6  O   -0.358076
     7  C   -0.180174
     8  C    0.083503
     9  O   -0.328306
    10  H    0.133795
    11  H    0.122295
    12  H    0.132010
    13  H    0.102090
    14  H    0.102525
    15  H    0.108187
    16  H    0.107679
    17  H    0.116561
    18  H    0.116360
    19  H    0.089021
 Sum of Mulliken charges =   0.00000

 Dipole moment (field-independent basis, Debye):
    X=             -1.1298    Y=              0.1262    Z=              0.1194  Tot=              1.1431
 Quadrupole moment (field-independent basis, Debye-Ang):
   XX=            -53.0518   YY=            -55.6143   ZZ=            -51.3891
   XY=             -6.2263   XZ=             -0.2252   YZ=             -0.2666

  Exact polarizability:  89.498  -6.819  66.983   0.480  -0.422  69.529
 Approx polarizability: 120.243  -4.812 107.147   0.651  -0.396 104.943

                      1                      2                      3
                      A                      A                      A
 Frequencies --    201.7838               211.8305               264.5794
 Red. masses --      1.0416                 2.9406                 2.8070
 Frc consts  --      0.0250                 0.0777                 0.1158
 IR Inten    --      0.1389                 0.9107                 1.4208

                      4                      5                      6
                      A                      A                      A
 Frequencies --    290.8889               394.4438               437.9305
 Red. masses --      2.8188                 2.9421                 3.0309
 Frc consts  --      0.1405                 0.2697                 0.3425
 IR Inten    --      3.7951                 5.2766                 6.1308

                      7                      8                      9
                      A                      A                      A
 Frequencies --    462.4231               526.7742               548.5149
 Red. masses --      3.3797                 2.3027                 2.7773
 Frc consts  --      0.4258                 0.3765                 0.4923
 IR Inten    --      2.5260                 2.2741                 8.2981

                     10                     11                     12
                      A                      A                      A
 Frequencies --    615.6421               644.3137               735.3869
 Red. masses --      2.8469                 3.3469                 4.5269
 Frc consts  --      0.6357                 0.8186                 1.4424
 IR Inten    --      2.2531                 1.5403                 3.2877

                     13                     14                     15
                      A                      A                      A
 Frequencies --    771.2942               815.2395               834.5918
 Red. masses --      3.0839                 3.3053                 3.9963
 Frc consts  --      1.0809                 1.2943                 1.6401
 IR Inten    --      1.7972                30.7681                25.9320

                     16                     17                     18
                      A                      A                      A
 Frequencies --    915.0593               919.9790               952.6301
 Red. masses --      2.7222                 4.1086                 1.5874
 Frc consts  --      1.3430                 2.0488                 0.8488
 IR Inten    --     21.1980                46.7907                 0.9217

                     19                     20                     21
                      A                      A                      A
 Frequencies --    984.3776               998.8058              1026.3480
 Red. masses --      1.6828                 1.1940                 2.3350
 Frc consts  --      0.9608                 0.7018                 1.4492
 IR Inten    --      9.5641                 2.7535                 3.0887

                     22                     23                     24
                      A                      A                      A
 Frequencies --   1029.3774              1065.9155              1093.7058
 Red. masses --      1.8189                 2.4047                 2.1506
 Frc consts  --      1.1355                 1.6098                 1.5157
 IR Inten    --      2.8564                 3.6681                15.9689

                     25                     26                     27
                      A                      A                      A
 Frequencies --   1119.1218              1150.1405              1150.7480
 Red. masses --      1.8797                 1.3290                 1.5487
 Frc consts  --      1.3870                 1.0358                 1.2083
 IR Inten    --     51.5912                28.6406                 5.5528

                     28                     29                     30
                      A                      A                      A
 Frequencies --   1181.0985              1197.0983              1209.4729
 Red. masses --      1.7300                 1.8351                 2.5429
 Frc consts  --      1.4219                 1.5495                 2.1916
 IR Inten    --      8.1591                12.6504                24.5953

                     31                     32                     33
                      A                      A                      A
 Frequencies --   1240.6038              1290.5894              1320.2848
 Red. masses --      1.8015                 1.7318                 2.4014
 Frc consts  --      1.6336                 1.6996                 2.4664
 IR Inten    --     60.6961                27.8254                 6.2842

                     34                     35                     36
                      A                      A                      A
 Frequencies --   1344.9738              1399.4718              1417.3727
 Red. masses --      2.6099                 1.2198                 1.5292
 Frc consts  --      2.7816                 1.4075                 1.8100
 IR Inten    --      6.1816                10.0695                 7.6475

                     37                     38                     39
                      A                      A                      A
 Frequencies --   1474.8742              1478.5820              1493.5388
 Red. masses --      1.1135                 1.0462                 1.0489
 Frc consts  --      1.4271                 1.3476                 1.3785
 IR Inten    --      2.6473                 3.6367                 3.3919

                     40                     41                     42
                      A                      A                      A
 Frequencies --   1505.2008              1516.7235              3043.9420
 Red. masses --      1.1209                 1.1675                 1.0352
 Frc consts  --      1.4962                 1.5824                 5.6511
 IR Inten    --      1.2007                 2.8531                18.7727

                     43                     44                     45
                      A                      A                      A
 Frequencies --   3045.2116              3052.8226              3070.0225
 Red. masses --      1.0853                 1.0559                 1.0550
 Frc consts  --      5.9298                 5.7978                 5.8586
 IR Inten    --     30.4603                40.8629                38.1111

                     46                     47                     48
                      A                      A                      A
 Frequencies --   3078.3537              3114.2562              3122.6101
 Red. masses --      1.0569                 1.1016                 1.1078
 Frc consts  --      5.9010                 6.2947                 6.3644
 IR Inten    --      5.9271                12.5620                17.5834

                     49                     50                     51
                      A                      A                      A
 Frequencies --   3123.0028              3139.8629              3144.7138
 Red. masses --      1.1052                 1.1117                 1.1105
 Frc consts  --      6.3511                 6.4574                 6.4705
 IR Inten    --     27.0010                21.0894                29.0710

 - Thermochemistry -
 -------------------
 Temperature   298.150 Kelvin.  Pressure   1.00000 Atm.
 Atom     1 has atomic number  6 and mass  12.00000

 Molecular mass:   126.06808 amu.
 Principal axes and moments of inertia in atomic units:
                           1         2         3
     Eigenvalues --   475.142591223.646611355.39661
           X            0.99939  -0.03506  -0.00052
           Y            0.03505   0.99921  -0.01898
           Z            0.00118   0.01895   0.99982
 This molecule is an asymmetric top.
 Rotational symmetry number  1.
 Warning -- assumption of classical behavior for rotation
           may cause significant error
 Rotational temperatures (Kelvin)      0.18229     0.07078     0.06390
 Rotational constants (GHZ):           3.79831     1.47489     1.33152
 Zero-point vibrational energy     419689.0 (Joules/Mol)
                                  100.30809 (Kcal/Mol)
 Warning -- explicit consideration of  10 degrees of freedom as
           vibrations may cause significant error
 Vibrational temperatures:    290.32   304.78   380.67   418.52   567.52
          (Kelvin)            630.08   665.32   757.91   789.19   885.77
                              927.02  1058.06  1109.72  1172.95  1200.79
                             1316.56  1323.64  1370.62  1416.30  1437.06
                             1476.68  1481.04  1533.61  1573.60  1610.16
                             1654.79  1655.67  1699.34  1722.36  1740.16
                             1784.95  1856.87  1899.59  1935.11  2013.53
                             2039.28  2122.01  2127.35  2148.87  2165.65
                             2182.22  4379.55  4381.37  4392.33  4417.07
                             4429.06  4480.71  4492.73  4493.30  4517.56
                             4524.54

 Zero-point correction=                           0.159851 (Hartree/Particle)
 Thermal correction to Energy=                    0.167080
 Thermal correction to Enthalpy=                  0.168024
 Thermal correction to Gibbs Free Energy=         0.128794
 Sum of electronic and zero-point Energies=           -422.948632
 Sum of electronic and thermal Energies=              -422.941403
 Sum of electronic and thermal Enthalpies=            -422.940459
 Sum of electronic and thermal Free Energies=         -422.979689

                     E (Thermal)             CV                S
                      KCal/Mol        Cal/Mol-Kelvin    Cal/Mol-Kelvin
 Total                  104.844             30.214             82.567
 Electronic               0.000              0.000              0.000
 Translational            0.889              2.981             40.409
 Rotational               0.889              2.981             28.157
 Vibrational            103.067             24.252             14.002
 Vibration     1          0.639              1.837              2.117
 Vibration     2          0.643              1.823              2.028
 Vibration     3          0.671              1.738              1.631
 Vibration     4          0.687              1.691              1.469
 Vibration     5          0.761              1.482              0.983
 Vibration     6          0.798              1.387              0.833
 Vibration     7          0.820              1.333              0.759
 Vibration     8          0.882              1.191              0.594
 Vibration     9          0.904              1.143              0.547
 Vibration    10          0.975              0.999              0.424

 Normal termination of Gaussian 09 at Mon Jan 27 18:47:10 2020.
