 Gaussian 09, Revision D.01,
 Gaussian 09:  ES64L-G09RevD.01 24-Apr-2013

 -----------------------------
 # b3lyp 6-31G(2df,p) opt Freq
 -----------------------------

 -----
 titel
 -----
 Symbolic Z-matrix:
 Charge =  0 Multiplicity = 1

 SCF Done:  E(RB3LYP) =  -423.152952978     A.U. after   14 cycles
 Optimization completed.
    -- Stationary point found.
 Normal termination of Gaussian 09 at Tue Jan 28 12:10:05 2020.

 ----------------------------------------------------------------------
 #N Geom=AllCheck Guess=TCheck SCRF=Check GenChk RB3LYP/6-31G(2df,p) Fr
 eq
 ----------------------------------------------------------------------

 Structure from the checkpoint file:  "/scratch/puck/g09_aa551caa-0920-4f69-bcc3-928903af7901/Gau-25498.chk"
 -----
 titel
 -----
 Charge =  0 Multiplicity = 1

                         Standard orientation:
 ---------------------------------------------------------------------
 Center     Atomic      Atomic             Coordinates (Angstroms)
 Number     Number       Type             X           Y           Z
 ---------------------------------------------------------------------
      1          6           0        0.156855    2.455661   -0.221756
      2          8           0       -0.256039    1.454497    0.700233
      3          6           0       -0.577321    0.259959    0.105707
      4          6           0       -1.886738   -0.028222   -0.645991
      5          6           0       -1.881770   -1.457808   -0.004249
      6          6           0       -0.584102   -1.102442    0.731435
      7          6           0        0.487961   -0.758803   -0.314537
      8          6           0        1.852673   -0.550481    0.214395
      9          8           0        2.863097   -0.836833   -0.384125
     10          1           0       -0.630607    2.676391   -0.954664
     11          1           0        0.364437    3.354848    0.360969
     12          1           0        1.065357    2.151811   -0.758741
     13          1           0       -2.707678    0.586196   -0.269469
     14          1           0       -1.857335    0.035307   -1.737170
     15          1           0       -2.725829   -1.613860    0.670138
     16          1           0       -1.817225   -2.302925   -0.695010
     17          1           0       -0.297924   -1.409243    1.730086
     18          1           0        0.451606   -1.226515   -1.295972
     19          1           0        1.893389   -0.100501    1.230953
 ---------------------------------------------------------------------

 SCF Done:  E(RB3LYP) =  -423.152952978     A.U. after    1 cycles

 The electronic state is 1-A.
 Alpha  occ. eigenvalues --  -19.16345 -19.12527 -10.26265 -10.25829 -10.23572
 Alpha  occ. eigenvalues --  -10.21024 -10.20174 -10.20152 -10.19832  -1.05960
 Alpha  occ. eigenvalues --   -1.03261  -0.90783  -0.75861  -0.71128  -0.66062
 Alpha  occ. eigenvalues --   -0.63578  -0.57310  -0.54711  -0.52045  -0.49031
 Alpha  occ. eigenvalues --   -0.47310  -0.45555  -0.44551  -0.42179  -0.41233
 Alpha  occ. eigenvalues --   -0.40503  -0.38627  -0.37565  -0.35034  -0.34390
 Alpha  occ. eigenvalues --   -0.31159  -0.27802  -0.26005  -0.24096
 Alpha virt. eigenvalues --   -0.01587   0.08589   0.09450   0.10611   0.11700
 Alpha virt. eigenvalues --    0.12118   0.13543   0.13822   0.14251   0.15894
 Alpha virt. eigenvalues --    0.16388   0.17502   0.18493   0.19142   0.21502

 Mulliken charges:
               1
     1  C   -0.267930
     2  O   -0.276323
     3  C    0.440032
     4  C   -0.305180
     5  C   -0.232515
     6  C   -0.160339
     7  C   -0.179097
     8  C    0.149346
     9  O   -0.282479
    10  H    0.119062
    11  H    0.135146
    12  H    0.127194
    13  H    0.118568
    14  H    0.105196
    15  H    0.116301
    16  H    0.110211
    17  H    0.107917
    18  H    0.095148
    19  H    0.079743
 Sum of Mulliken charges =   0.00000

 Dipole moment (field-independent basis, Debye):
    X=             -3.1901    Y=              0.8136    Z=             -0.0102  Tot=              3.2922
 Quadrupole moment (field-independent basis, Debye-Ang):
   XX=            -61.9529   YY=            -50.2270   ZZ=            -52.8130
   XY=              4.4315   XZ=              2.9138   YZ=             -2.8828

  Exact polarizability:  91.337   1.380  77.600  -0.756   0.015  65.642
 Approx polarizability: 131.100  -3.091 106.873  -8.835   2.144 104.967

                      1                      2                      3
                      A                      A                      A
 Frequencies --     78.7071               115.2244               159.9105
 Red. masses --      4.0379                 3.1894                 2.4316
 Frc consts  --      0.0147                 0.0249                 0.0366
 IR Inten    --      4.3895                 2.8558                 2.3390

                      4                      5                      6
                      A                      A                      A
 Frequencies --    185.0168               207.1982               250.8651
 Red. masses --      1.2118                 2.7257                 2.2668
 Frc consts  --      0.0244                 0.0689                 0.0840
 IR Inten    --      1.1090                 1.0458                 7.5482

                      7                      8                      9
                      A                      A                      A
 Frequencies --    285.0929               356.8162               441.7634
 Red. masses --      2.2314                 3.8946                 3.4865
 Frc consts  --      0.1069                 0.2921                 0.4009
 IR Inten    --      0.9364                 2.1865                 5.8473

                     10                     11                     12
                      A                      A                      A
 Frequencies --    477.5532               508.1628               665.3777
 Red. masses --      3.6380                 4.7026                 3.6930
 Frc consts  --      0.4888                 0.7155                 0.9633
 IR Inten    --     14.7391                10.8288                 0.8673

                     13                     14                     15
                      A                      A                      A
 Frequencies --    696.4550               796.8366               904.2246
 Red. masses --      3.7068                 1.2292                 2.4676
 Frc consts  --      1.0593                 0.4598                 1.1887
 IR Inten    --      5.9968                 3.2653                 8.7028

                     16                     17                     18
                      A                      A                      A
 Frequencies --    934.8792               949.2287               953.4019
 Red. masses --      1.9303                 3.1906                 2.4578
 Frc consts  --      0.9940                 1.6938                 1.3163
 IR Inten    --      6.7071                24.0690                 3.3523

                     19                     20                     21
                      A                      A                      A
 Frequencies --   1001.2453              1023.3340              1056.2720
 Red. masses --      1.6721                 1.4460                 2.5479
 Frc consts  --      0.9877                 0.8922                 1.6749
 IR Inten    --     12.3449                 4.3839                19.1778

                     22                     23                     24
                      A                      A                      A
 Frequencies --   1067.7572              1080.7009              1101.2653
 Red. masses --      2.5433                 1.9986                 2.0886
 Frc consts  --      1.7084                 1.3753                 1.4924
 IR Inten    --     32.9985                43.1810                20.3485

                     25                     26                     27
                      A                      A                      A
 Frequencies --   1165.9475              1177.8964              1182.5207
 Red. masses --      2.0010                 1.7082                 1.3119
 Frc consts  --      1.6027                 1.3964                 1.0809
 IR Inten    --     48.7973                19.4632                 5.6800

                     28                     29                     30
                      A                      A                      A
 Frequencies --   1214.6707              1216.6202              1232.3188
 Red. masses --      1.1690                 1.4278                 1.5466
 Frc consts  --      1.0162                 1.2452                 1.3838
 IR Inten    --      1.5117                 6.0815                 2.7046

                     31                     32                     33
                      A                      A                      A
 Frequencies --   1242.6345              1276.4701              1319.9592
 Red. masses --      1.5413                 1.6471                 2.2760
 Frc consts  --      1.4023                 1.5812                 2.3364
 IR Inten    --     25.3952                 0.6765                76.4979

                     34                     35                     36
                      A                      A                      A
 Frequencies --   1393.0947              1444.9048              1478.0261
 Red. masses --      2.8343                 1.3214                 1.0899
 Frc consts  --      3.2408                 1.6254                 1.4028
 IR Inten    --    108.2574                 5.9145                 0.2029

                     37                     38                     39
                      A                      A                      A
 Frequencies --   1486.0505              1489.2798              1503.3704
 Red. masses --      1.1663                 1.0614                 1.0943
 Frc consts  --      1.5175                 1.3870                 1.4572
 IR Inten    --      4.6509                 3.3956                16.0247

                     40                     41                     42
                      A                      A                      A
 Frequencies --   1507.5325              1808.7211              2887.1949
 Red. masses --      1.1813                 9.6120                 1.0822
 Frc consts  --      1.5817                18.5271                 5.3148
 IR Inten    --      1.6633               263.2063                74.3778

                     43                     44                     45
                      A                      A                      A
 Frequencies --   3001.9442              3057.1456              3060.7741
 Red. masses --      1.0343                 1.0651                 1.0956
 Frc consts  --      5.4917                 5.8651                 6.0476
 IR Inten    --     39.1206                21.2890                42.7502

                     46                     47                     48
                      A                      A                      A
 Frequencies --   3065.5111              3109.5302              3126.6546
 Red. masses --      1.0616                 1.1079                 1.1066
 Frc consts  --      5.8779                 6.3115                 6.3737
 IR Inten    --     49.8304                 0.2707                26.2626

                     49                     50                     51
                      A                      A                      A
 Frequencies --   3133.0916              3136.0918              3190.6841
 Red. masses --      1.0993                 1.0897                 1.0932
 Frc consts  --      6.3578                 6.3144                 6.5570
 IR Inten    --     23.2960                12.2685                 7.9249

 - Thermochemistry -
 -------------------
 Temperature   298.150 Kelvin.  Pressure   1.00000 Atm.
 Atom     1 has atomic number  6 and mass  12.00000

 Molecular mass:   126.06808 amu.
 Principal axes and moments of inertia in atomic units:
                           1         2         3
     Eigenvalues --   853.720311190.694841788.46005
           X            0.99591   0.08876   0.01692
           Y           -0.08841   0.99587  -0.02084
           Z           -0.01870   0.01926   0.99964
 This molecule is an asymmetric top.
 Rotational symmetry number  1.
 Warning -- assumption of classical behavior for rotation
           may cause significant error
 Rotational temperatures (Kelvin)      0.10145     0.07274     0.04843
 Rotational constants (GHZ):           2.11397     1.51570     1.00910
 Zero-point vibrational energy     413943.4 (Joules/Mol)
                                   98.93484 (Kcal/Mol)
 Warning -- explicit consideration of  11 degrees of freedom as
           vibrations may cause significant error
 Vibrational temperatures:    113.24   165.78   230.08   266.20   298.11
          (Kelvin)            360.94   410.18   513.38   635.60   687.09
                              731.13   957.33  1002.04  1146.47  1300.98
                             1345.08  1365.73  1371.73  1440.57  1472.35
                             1519.74  1536.26  1554.89  1584.47  1677.54
                             1694.73  1701.38  1747.64  1750.44  1773.03
                             1787.87  1836.55  1899.12  2004.35  2078.89
                             2126.55  2138.09  2142.74  2163.01  2169.00
                             2602.34  4154.02  4319.12  4398.55  4403.77
                             4410.58  4473.91  4498.55  4507.81  4512.13
                             4590.68

 Zero-point correction=                           0.157663 (Hartree/Particle)
 Thermal correction to Energy=                    0.166615
 Thermal correction to Enthalpy=                  0.167559
 Thermal correction to Gibbs Free Energy=         0.123761
 Sum of electronic and zero-point Energies=           -422.995290
 Sum of electronic and thermal Energies=              -422.986338
 Sum of electronic and thermal Enthalpies=            -422.985394
 Sum of electronic and thermal Free Energies=         -423.029192

                     E (Thermal)             CV                S
                      KCal/Mol        Cal/Mol-Kelvin    Cal/Mol-Kelvin
 Total                  104.553             32.841             92.181
 Electronic               0.000              0.000              0.000
 Translational            0.889              2.981             40.409
 Rotational               0.889              2.981             28.988
 Vibrational            102.775             26.879             22.785
 Vibration     1          0.600              1.963              3.923
 Vibration     2          0.608              1.937              3.179
 Vibration     3          0.622              1.891              2.551
 Vibration     4          0.631              1.860              2.277
 Vibration     5          0.641              1.830              2.068
 Vibration     6          0.663              1.761              1.724
 Vibration     7          0.683              1.701              1.503
 Vibration     8          0.732              1.561              1.136
 Vibration     9          0.802              1.379              0.821
 Vibration    10          0.834              1.300              0.717
 Vibration    11          0.863              1.232              0.638

 Normal termination of Gaussian 09 at Tue Jan 28 12:54:40 2020.
