 Gaussian 09, Revision D.01,
 Gaussian 09:  ES64L-G09RevD.01 24-Apr-2013

 -----------------------------
 # b3lyp 6-31G(2df,p) opt Freq
 -----------------------------

 -----
 titel
 -----
 Symbolic Z-matrix:
 Charge =  0 Multiplicity = 1

 SCF Done:  E(RB3LYP) =  -423.211021605     A.U. after   14 cycles
 Optimization completed.
    -- Stationary point found.
 Normal termination of Gaussian 09 at Tue Jan 28 14:25:31 2020.

 ----------------------------------------------------------------------
 #N Geom=AllCheck Guess=TCheck SCRF=Check GenChk RB3LYP/6-31G(2df,p) Fr
 eq
 ----------------------------------------------------------------------

 Structure from the checkpoint file:  "/scratch/puck/g09_5f74e825-eeb1-405c-8fcd-a5909c53f0d6/Gau-163935.chk"
 -----
 titel
 -----
 Charge =  0 Multiplicity = 1

                         Standard orientation:
 ---------------------------------------------------------------------
 Center     Atomic      Atomic             Coordinates (Angstroms)
 Number     Number       Type             X           Y           Z
 ---------------------------------------------------------------------
      1          6           0       -3.402598    0.022830   -0.295630
      2          8           0       -2.176654   -0.318676    0.307265
      3          6           0       -1.091943    0.431624   -0.195665
      4          6           0        0.177152   -0.021486    0.513578
      5          6           0        0.601547   -1.476500    0.228753
      6          6           0        2.026505   -1.361403   -0.249875
      7          6           0        2.458874   -0.096947   -0.327019
      8          6           0        1.386567    0.835477    0.084175
      9          8           0        1.420178    2.045373    0.080938
     10          1           0       -3.388523   -0.158899   -1.382178
     11          1           0       -4.175624   -0.603004    0.156897
     12          1           0       -3.658570    1.080942   -0.129837
     13          1           0       -0.994298    0.281848   -1.285944
     14          1           0       -1.238604    1.509012   -0.025395
     15          1           0        0.026896    0.133389    1.588146
     16          1           0        0.528845   -2.120471    1.112401
     17          1           0       -0.033269   -1.946251   -0.532875
     18          1           0        2.615041   -2.236700   -0.505700
     19          1           0        3.433297    0.244983   -0.651045
 ---------------------------------------------------------------------

 SCF Done:  E(RB3LYP) =  -423.211021605     A.U. after    1 cycles

 The electronic state is 1-A.
 Alpha  occ. eigenvalues --  -19.14263 -19.12097 -10.26093 -10.23063 -10.22561
 Alpha  occ. eigenvalues --  -10.21545 -10.19857 -10.19342 -10.19232  -1.03609
 Alpha  occ. eigenvalues --   -1.03008  -0.85478  -0.76404  -0.70132  -0.68065
 Alpha  occ. eigenvalues --   -0.62787  -0.56816  -0.53482  -0.49124  -0.48829
 Alpha  occ. eigenvalues --   -0.47458  -0.46068  -0.43290  -0.41574  -0.40470
 Alpha  occ. eigenvalues --   -0.39244  -0.38858  -0.38026  -0.35139  -0.34469
 Alpha  occ. eigenvalues --   -0.31873  -0.27407  -0.25815  -0.23881
 Alpha virt. eigenvalues --   -0.04521   0.05575   0.08848   0.10588   0.12508
 Alpha virt. eigenvalues --    0.13246   0.13732   0.14940   0.16004   0.16359
 Alpha virt. eigenvalues --    0.17064   0.18292   0.18924   0.19817   0.22720

 Mulliken charges:
               1
     1  C   -0.229963
     2  O   -0.238142
     3  C   -0.063657
     4  C   -0.127292
     5  C   -0.277661
     6  C   -0.049596
     7  C   -0.177433
     8  C    0.372978
     9  O   -0.344713
    10  H    0.103627
    11  H    0.126967
    12  H    0.108317
    13  H    0.084821
    14  H    0.112256
    15  H    0.114396
    16  H    0.124520
    17  H    0.127584
    18  H    0.115865
    19  H    0.117127
 Sum of Mulliken charges =   0.00000

 Dipole moment (field-independent basis, Debye):
    X=             -0.4292    Y=             -2.7540    Z=             -0.7102  Tot=              2.8763
 Quadrupole moment (field-independent basis, Debye-Ang):
   XX=            -47.9346   YY=            -57.7980   ZZ=            -52.6533
   XY=             -6.6523   XZ=              0.9903   YZ=              0.2244

  Exact polarizability:  92.116   0.618  87.875  -3.919   0.419  56.706
 Approx polarizability: 111.766   6.132 153.948  -5.929   0.008  88.923

                      1                      2                      3
                      A                      A                      A
 Frequencies --     51.6777                88.6098               103.1499
 Red. masses --      3.1575                 2.6305                 2.1409
 Frc consts  --      0.0050                 0.0122                 0.0134
 IR Inten    --      1.4609                 1.8296                 4.6827

                      4                      5                      6
                      A                      A                      A
 Frequencies --    138.4562               225.4507               270.8042
 Red. masses --      3.7398                 1.3484                 3.7254
 Frc consts  --      0.0422                 0.0404                 0.1610
 IR Inten    --      4.7797                 3.4366                 0.7216

                      7                      8                      9
                      A                      A                      A
 Frequencies --    306.2645               341.3771               432.5770
 Red. masses --      4.2174                 2.5853                 2.1817
 Frc consts  --      0.2331                 0.1775                 0.2405
 IR Inten    --      0.4314                 1.0352                 0.2608

                     10                     11                     12
                      A                      A                      A
 Frequencies --    529.6477               614.2228               672.6668
 Red. masses --      3.9457                 4.5418                 2.4541
 Frc consts  --      0.6521                 1.0096                 0.6543
 IR Inten    --      9.8020                 7.2038                 4.4557

                     13                     14                     15
                      A                      A                      A
 Frequencies --    752.6512               793.7415               854.1676
 Red. masses --      4.6482                 1.6576                 3.4494
 Frc consts  --      1.5514                 0.6153                 1.4828
 IR Inten    --      7.1611                18.9771                 1.4362

                     16                     17                     18
                      A                      A                      A
 Frequencies --    902.1281               929.5838               962.4406
 Red. masses --      2.7140                 1.3714                 2.3826
 Frc consts  --      1.3014                 0.6982                 1.3003
 IR Inten    --      2.1494                 1.0914                10.1788

                     19                     20                     21
                      A                      A                      A
 Frequencies --    998.0317              1008.0452              1084.1867
 Red. masses --      2.4045                 1.5487                 1.7992
 Frc consts  --      1.4111                 0.9272                 1.2461
 IR Inten    --     24.1912                 6.1298                 7.6210

                     22                     23                     24
                      A                      A                      A
 Frequencies --   1113.2948              1119.5244              1156.3578
 Red. masses --      1.2807                 2.0106                 3.7032
 Frc consts  --      0.9352                 1.4847                 2.9175
 IR Inten    --      2.2773                 6.5745               211.9085

                     25                     26                     27
                      A                      A                      A
 Frequencies --   1176.3652              1178.8191              1199.6239
 Red. masses --      1.3523                 1.8190                 1.5592
 Frc consts  --      1.1026                 1.4893                 1.3220
 IR Inten    --      2.8330                16.3696                 6.2529

                     28                     29                     30
                      A                      A                      A
 Frequencies --   1215.7714              1242.3777              1262.3345
 Red. masses --      1.6986                 1.7186                 1.1911
 Frc consts  --      1.4792                 1.5629                 1.1183
 IR Inten    --      7.7727                34.6566                 3.4964

                     31                     32                     33
                      A                      A                      A
 Frequencies --   1320.0507              1332.5244              1369.7662
 Red. masses --      1.5405                 1.5785                 1.7359
 Frc consts  --      1.5815                 1.6513                 1.9190
 IR Inten    --      4.0828                 6.0819                15.3256

                     34                     35                     36
                      A                      A                      A
 Frequencies --   1412.2576              1471.6238              1479.9457
 Red. masses --      1.3639                 1.0988                 1.1532
 Frc consts  --      1.6028                 1.4021                 1.4881
 IR Inten    --     39.6258                 7.8194                 1.1723

                     37                     38                     39
                      A                      A                      A
 Frequencies --   1484.4073              1504.3702              1528.5599
 Red. masses --      1.0482                 1.0609                 1.0906
 Frc consts  --      1.3608                 1.4146                 1.5014
 IR Inten    --      5.2637                10.7875                 1.5555

                     40                     41                     42
                      A                      A                      A
 Frequencies --   1648.9617              1806.4095              2944.8078
 Red. masses --      5.9634                12.4564                 1.0637
 Frc consts  --      9.5535                23.9482                 5.4346
 IR Inten    --     22.1965               248.4060                35.4201

                     43                     44                     45
                      A                      A                      A
 Frequencies --   2971.8394              3008.0725              3016.1164
 Red. masses --      1.0391                 1.0921                 1.1029
 Frc consts  --      5.4071                 5.8223                 5.9115
 IR Inten    --     70.5163                41.2711                44.3683

                     46                     47                     48
                      A                      A                      A
 Frequencies --   3036.2275              3049.8204              3067.5465
 Red. masses --      1.0619                 1.0870                 1.0968
 Frc consts  --      5.7677                 5.9570                 6.0809
 IR Inten    --     15.6722                 5.5992                17.1923

                     49                     50                     51
                      A                      A                      A
 Frequencies --   3114.2704              3186.1109              3228.2174
 Red. masses --      1.0961                 1.0892                 1.1015
 Frc consts  --      6.2636                 6.5147                 6.7631
 IR Inten    --     29.4426                 9.6114                 6.4260

 - Thermochemistry -
 -------------------
 Temperature   298.150 Kelvin.  Pressure   1.00000 Atm.
 Atom     1 has atomic number  6 and mass  12.00000

 Molecular mass:   126.06808 amu.
 Principal axes and moments of inertia in atomic units:
                           1         2         3
     Eigenvalues --   578.981291758.412742213.22636
           X            0.99962  -0.02666   0.00657
           Y            0.02669   0.99963  -0.00438
           Z           -0.00645   0.00455   0.99997
 This molecule is an asymmetric top.
 Rotational symmetry number  1.
 Warning -- assumption of classical behavior for rotation
           may cause significant error
 Rotational temperatures (Kelvin)      0.14960     0.04926     0.03913
 Rotational constants (GHZ):           3.11710     1.02635     0.81543
 Zero-point vibrational energy     416936.0 (Joules/Mol)
                                   99.65009 (Kcal/Mol)
 Warning -- explicit consideration of  11 degrees of freedom as
           vibrations may cause significant error
 Vibrational temperatures:     74.35   127.49   148.41   199.21   324.37
          (Kelvin)            389.63   440.65   491.16   622.38   762.04
                              883.73   967.82  1082.90  1142.02  1228.96
                             1297.96  1337.46  1384.74  1435.94  1450.35
                             1559.90  1601.78  1610.74  1663.74  1692.52
                             1696.06  1725.99  1749.22  1787.50  1816.22
                             1899.26  1917.20  1970.79  2031.92  2117.34
                             2129.31  2135.73  2164.45  2199.25  2372.49
                             2599.02  4236.92  4275.81  4327.94  4339.51
                             4368.45  4388.01  4413.51  4480.73  4584.10
                             4644.68

 Zero-point correction=                           0.158803 (Hartree/Particle)
 Thermal correction to Energy=                    0.167846
 Thermal correction to Enthalpy=                  0.168791
 Thermal correction to Gibbs Free Energy=         0.123947
 Sum of electronic and zero-point Energies=           -423.052219
 Sum of electronic and thermal Energies=              -423.043175
 Sum of electronic and thermal Enthalpies=            -423.042231
 Sum of electronic and thermal Free Energies=         -423.087075

                     E (Thermal)             CV                S
                      KCal/Mol        Cal/Mol-Kelvin    Cal/Mol-Kelvin
 Total                  105.325             32.286             94.382
 Electronic               0.000              0.000              0.000
 Translational            0.889              2.981             40.409
 Rotational               0.889              2.981             29.201
 Vibrational            103.548             26.324             24.772
 Vibration     1          0.596              1.977              4.752
 Vibration     2          0.601              1.957              3.691
 Vibration     3          0.605              1.947              3.394
 Vibration     4          0.614              1.915              2.825
 Vibration     5          0.650              1.802              1.915
 Vibration     6          0.674              1.727              1.591
 Vibration     7          0.697              1.662              1.382
 Vibration     8          0.721              1.593              1.206
 Vibration     9          0.793              1.399              0.850
 Vibration    10          0.885              1.184              0.588
 Vibration    11          0.974              1.002              0.426

 Optimization completed.
    -- Stationary point found.
 Normal termination of Gaussian 09 at Tue Jan 28 15:09:03 2020.
