 Gaussian 09, Revision D.01,
 Gaussian 09:  ES64L-G09RevD.01 24-Apr-2013

 -----------------------------
 # b3lyp 6-31G(2df,p) opt Freq
 -----------------------------

 -----
 titel
 -----
 Symbolic Z-matrix:
 Charge =  0 Multiplicity = 1

 SCF Done:  E(RB3LYP) =  -423.154315319     A.U. after   14 cycles
 Optimization completed.
    -- Stationary point found.
 Normal termination of Gaussian 09 at Mon Jan 27 15:25:34 2020.

 ----------------------------------------------------------------------
 #N Geom=AllCheck Guess=TCheck SCRF=Check GenChk RB3LYP/6-31G(2df,p) Fr
 eq
 ----------------------------------------------------------------------

 Structure from the checkpoint file:  "/scratch/puck/g09_630c7f78-8a02-40be-8260-195228980d26/Gau-80765.chk"
 -----
 titel
 -----
 Charge =  0 Multiplicity = 1

                         Standard orientation:
 ---------------------------------------------------------------------
 Center     Atomic      Atomic             Coordinates (Angstroms)
 Number     Number       Type             X           Y           Z
 ---------------------------------------------------------------------
      1          6           0        2.565903    0.434166   -0.342148
      2          6           0        1.476800   -0.438392    0.278217
      3          8           0        1.672777   -1.810893   -0.042517
      4          6           0        0.042756    0.023547   -0.114605
      5          6           0       -1.015868   -0.980609    0.394986
      6          6           0       -2.365773   -0.639829   -0.035606
      7          6           0       -3.465594   -0.327715   -0.406818
      8          6           0       -0.228779    1.404039    0.459224
      9          8           0       -0.070697    2.440835   -0.130601
     10          1           0        2.455293    1.484180   -0.061595
     11          1           0        3.549490    0.081813   -0.021090
     12          1           0        2.520576    0.383338   -1.437188
     13          1           0        1.560402   -0.403934    1.372450
     14          1           0        1.780014   -1.876543   -0.998549
     15          1           0       -0.012462    0.106420   -1.206187
     16          1           0       -0.737929   -1.980700    0.050995
     17          1           0       -0.976129   -1.019050    1.492706
     18          1           0       -4.442149   -0.061445   -0.727607
     19          1           0       -0.570420    1.395142    1.521513
 ---------------------------------------------------------------------

 SCF Done:  E(RB3LYP) =  -423.154315319     A.U. after    1 cycles

 The electronic state is 1-A.
 Alpha  occ. eigenvalues --  -19.15258 -19.14490 -10.27551 -10.25383 -10.21622
 Alpha  occ. eigenvalues --  -10.20736 -10.18690 -10.18553 -10.17520  -1.05206
 Alpha  occ. eigenvalues --   -1.03518  -0.82853  -0.76886  -0.72781  -0.67315
 Alpha  occ. eigenvalues --   -0.63056  -0.58539  -0.53227  -0.50001  -0.48447
 Alpha  occ. eigenvalues --   -0.47725  -0.45865  -0.44847  -0.43416  -0.40867
 Alpha  occ. eigenvalues --   -0.39093  -0.38659  -0.37608  -0.37145  -0.33514
 Alpha  occ. eigenvalues --   -0.29452  -0.26886  -0.26530  -0.25274
 Alpha virt. eigenvalues --   -0.03092   0.04919   0.05426   0.06614   0.10025
 Alpha virt. eigenvalues --    0.11799   0.12625   0.12820   0.14054   0.15733
 Alpha virt. eigenvalues --    0.16290   0.16689   0.17945   0.20805   0.22111

 Mulliken charges:
               1
     1  C   -0.417039
     2  C    0.113148
     3  O   -0.424081
     4  C   -0.088943
     5  C   -0.382216
     6  C    0.284695
     7  C   -0.423931
     8  C    0.165659
     9  O   -0.250898
    10  H    0.144717
    11  H    0.128092
    12  H    0.115334
    13  H    0.095734
    14  H    0.282494
    15  H    0.099080
    16  H    0.149035
    17  H    0.131049
    18  H    0.198464
    19  H    0.079607
 Sum of Mulliken charges =   0.00000

 Dipole moment (field-independent basis, Debye):
    X=              0.7479    Y=             -1.4150    Z=             -0.1629  Tot=              1.6087
 Quadrupole moment (field-independent basis, Debye-Ang):
   XX=            -49.5973   YY=            -63.1603   ZZ=            -50.1703
   XY=              0.1540   XZ=             -0.9627   YZ=              3.7627

  Exact polarizability:  98.366  -3.234  72.638   3.068  -1.473  64.041
 Approx polarizability: 132.138 -11.048 111.678   9.439  -7.948 102.756

                      1                      2                      3
                      A                      A                      A
 Frequencies --     43.7994                57.7388                67.9190
 Red. masses --      3.9921                 3.2744                 4.2592
 Frc consts  --      0.0045                 0.0064                 0.0116
 IR Inten    --      4.9618                 0.3857                 4.0242

                      4                      5                      6
                      A                      A                      A
 Frequencies --    118.8840               215.6737               232.8243
 Red. masses --      3.7165                 3.1900                 1.1280
 Frc consts  --      0.0309                 0.0874                 0.0360
 IR Inten    --      3.9952                 0.2101                 0.2243

                      7                      8                      9
                      A                      A                      A
 Frequencies --    286.6474               301.8772               321.2999
 Red. masses --      3.0858                 2.6001                 1.1450
 Frc consts  --      0.1494                 0.1396                 0.0696
 IR Inten    --      2.8083                19.3977                89.0900

                     10                     11                     12
                      A                      A                      A
 Frequencies --    344.0731               360.2807               404.0747
 Red. masses --      2.8806                 3.1409                 6.1177
 Frc consts  --      0.2009                 0.2402                 0.5885
 IR Inten    --      2.4616                 0.5568                11.7113

                     13                     14                     15
                      A                      A                      A
 Frequencies --    484.7893               530.2044               583.8219
 Red. masses --      2.9463                 3.3178                 3.9462
 Frc consts  --      0.4080                 0.5495                 0.7925
 IR Inten    --     12.8683                12.3397                 4.1412

                     16                     17                     18
                      A                      A                      A
 Frequencies --    627.7853               644.3392               830.8009
 Red. masses --      1.2086                 1.2177                 2.3035
 Frc consts  --      0.2807                 0.2979                 0.9368
 IR Inten    --     43.7360                42.5091                 5.4166

                     19                     20                     21
                      A                      A                      A
 Frequencies --    866.9569               922.3501               955.2558
 Red. masses --      2.0731                 2.1503                 2.2565
 Frc consts  --      0.9181                 1.0778                 1.2132
 IR Inten    --      6.9603                24.0528                 0.4541

                     22                     23                     24
                      A                      A                      A
 Frequencies --    979.1102              1055.4392              1067.4892
 Red. masses --      2.1796                 3.5703                 1.7745
 Frc consts  --      1.2311                 2.3433                 1.1914
 IR Inten    --      6.6322                 5.7552                 8.6537

                     25                     26                     27
                      A                      A                      A
 Frequencies --   1080.8532              1123.9531              1138.3903
 Red. masses --      2.1555                 2.6853                 2.0464
 Frc consts  --      1.4837                 1.9986                 1.5625
 IR Inten    --     84.4634                21.2302                62.2842

                     28                     29                     30
                      A                      A                      A
 Frequencies --   1212.9053              1224.6339              1304.8592
 Red. masses --      1.3183                 1.2929                 1.3361
 Frc consts  --      1.1427                 1.1424                 1.3403
 IR Inten    --      7.9253                 4.7760                 4.5558

                     31                     32                     33
                      A                      A                      A
 Frequencies --   1318.2143              1351.2652              1368.3413
 Red. masses --      1.4710                 1.3665                 1.3293
 Frc consts  --      1.5060                 1.4701                 1.4664
 IR Inten    --      4.5957                 4.9029                 9.6587

                     34                     35                     36
                      A                      A                      A
 Frequencies --   1412.4406              1423.4515              1431.2033
 Red. masses --      1.2315                 1.2109                 1.1704
 Frc consts  --      1.4476                 1.4456                 1.4125
 IR Inten    --      8.1308                37.7121                 8.8295

                     37                     38                     39
                      A                      A                      A
 Frequencies --   1475.6417              1489.8632              1493.9754
 Red. masses --      1.0899                 1.0545                 1.0493
 Frc consts  --      1.3983                 1.3791                 1.3798
 IR Inten    --      4.1278                 6.3566                 4.6862

                     40                     41                     42
                      A                      A                      A
 Frequencies --   1830.9766              2239.2025              2852.8293
 Red. masses --     10.5336                 5.9268                 1.0817
 Frc consts  --     20.8063                17.5089                 5.1871
 IR Inten    --    145.4566                 2.0403                92.1940

                     43                     44                     45
                      A                      A                      A
 Frequencies --   3017.0828              3024.4020              3033.6930
 Red. masses --      1.0695                 1.0790                 1.0461
 Frc consts  --      5.7358                 5.8148                 5.6723
 IR Inten    --      8.7872                 9.2515                16.5066

                     46                     47                     48
                      A                      A                      A
 Frequencies --   3055.3497              3090.3867              3106.4494
 Red. masses --      1.0830                 1.0901                 1.0946
 Frc consts  --      5.9567                 6.1339                 6.2232
 IR Inten    --     26.0732                 3.3310                25.0463

                     49                     50                     51
                      A                      A                      A
 Frequencies --   3135.9878              3506.4585              3793.1011
 Red. masses --      1.1021                 1.1623                 1.0659
 Frc consts  --      6.3859                 8.4199                 9.0356
 IR Inten    --     11.2744                69.4512                20.8572

 - Thermochemistry -
 -------------------
 Temperature   298.150 Kelvin.  Pressure   1.00000 Atm.
 Atom     1 has atomic number  6 and mass  12.00000

 Molecular mass:   126.06808 amu.
 Principal axes and moments of inertia in atomic units:
                           1         2         3
     Eigenvalues --   812.312571597.951872262.10186
           X            0.99990   0.01256  -0.00632
           Y           -0.01252   0.99991   0.00573
           Z            0.00639  -0.00565   0.99996
 This molecule is an asymmetric top.
 Rotational symmetry number  1.
 Warning -- assumption of classical behavior for rotation
           may cause significant error
 Rotational temperatures (Kelvin)      0.10663     0.05420     0.03829
 Rotational constants (GHZ):           2.22173     1.12941     0.79782
 Zero-point vibrational energy     405769.4 (Joules/Mol)
                                   96.98121 (Kcal/Mol)
 Warning -- explicit consideration of  15 degrees of freedom as
           vibrations may cause significant error
 Vibrational temperatures:     63.02    83.07    97.72   171.05   310.31
          (Kelvin)            334.98   412.42   434.33   462.28   495.04
                              518.36   581.37   697.50   762.84   839.99
                              903.24   927.06  1195.34  1247.36  1327.05
                             1374.40  1408.72  1518.54  1535.88  1555.10
                             1617.12  1637.89  1745.10  1761.97  1877.40
                             1896.61  1944.17  1968.74  2032.18  2048.03
                             2059.18  2123.12  2143.58  2149.49  2634.36
                             3221.71  4104.58  4340.90  4351.43  4364.80
                             4395.96  4446.37  4469.48  4511.98  5045.01
                             5457.42

 Zero-point correction=                           0.154549 (Hartree/Particle)
 Thermal correction to Energy=                    0.165256
 Thermal correction to Enthalpy=                  0.166201
 Thermal correction to Gibbs Free Energy=         0.117762
 Sum of electronic and zero-point Energies=           -422.999766
 Sum of electronic and thermal Energies=              -422.989059
 Sum of electronic and thermal Enthalpies=            -422.988115
 Sum of electronic and thermal Free Energies=         -423.036554

                     E (Thermal)             CV                S
                      KCal/Mol        Cal/Mol-Kelvin    Cal/Mol-Kelvin
 Total                  103.700             37.832            101.948
 Electronic               0.000              0.000              0.000
 Translational            0.889              2.981             40.409
 Rotational               0.889              2.981             29.464
 Vibrational            101.923             31.870             32.076
 Vibration     1          0.595              1.980              5.079
 Vibration     2          0.596              1.974              4.533
 Vibration     3          0.598              1.970              4.213
 Vibration     4          0.609              1.934              3.118
 Vibration     5          0.645              1.817              1.995
 Vibration     6          0.654              1.791              1.857
 Vibration     7          0.684              1.698              1.494
 Vibration     8          0.694              1.670              1.406
 Vibration     9          0.707              1.633              1.303
 Vibration    10          0.723              1.587              1.193
 Vibration    11          0.735              1.554              1.121
 Vibration    12          0.769              1.461              0.948
 Vibration    13          0.841              1.284              0.697
 Vibration    14          0.885              1.183              0.587
 Vibration    15          0.941              1.066              0.478

 Optimization completed.
    -- Stationary point found.
 Normal termination of Gaussian 09 at Mon Jan 27 16:03:58 2020.
