 Gaussian 09, Revision D.01,
 Gaussian 09:  ES64L-G09RevD.01 24-Apr-2013

 -----------------------------
 # b3lyp 6-31G(2df,p) opt Freq
 -----------------------------

 -----
 titel
 -----
 Symbolic Z-matrix:
 Charge =  0 Multiplicity = 1

 SCF Done:  E(RB3LYP) =  -423.160089981     A.U. after   13 cycles
 Optimization completed.
    -- Stationary point found.
 Normal termination of Gaussian 09 at Mon Jan 27 12:19:06 2020.

 ----------------------------------------------------------------------
 #N Geom=AllCheck Guess=TCheck SCRF=Check GenChk RB3LYP/6-31G(2df,p) Fr
 eq
 ----------------------------------------------------------------------

 Structure from the checkpoint file:  "/scratch/puck/g09_efc2796a-ad7a-4c1b-ba2c-dd4039e77c46/Gau-72496.chk"
 -----
 titel
 -----
 Charge =  0 Multiplicity = 1

                         Standard orientation:
 ---------------------------------------------------------------------
 Center     Atomic      Atomic             Coordinates (Angstroms)
 Number     Number       Type             X           Y           Z
 ---------------------------------------------------------------------
      1          6           0       -2.340699    0.218889    0.091804
      2          8           0       -1.788001   -0.978743   -0.498906
      3          6           0       -0.593774   -0.863181    0.309682
      4          6           0       -0.981600    0.585664    0.718452
      5          6           0       -0.097902    1.521465   -0.140387
      6          6           0        1.055689    0.665067   -0.665905
      7          8           0        2.132803    0.532203    0.296430
      8          6           0        1.979110   -0.901256    0.342121
      9          6           0        0.692962   -0.836251   -0.501492
     10          1           0       -2.745078    0.903494   -0.663164
     11          1           0       -3.127567   -0.019437    0.819988
     12          1           0       -0.583047   -1.619244    1.106238
     13          1           0       -0.981838    0.836641    1.778913
     14          1           0       -0.668428    1.929318   -0.982386
     15          1           0        0.296892    2.367758    0.428228
     16          1           0        1.438518    0.996271   -1.637892
     17          1           0        2.818450   -1.418184   -0.140573
     18          1           0        1.876688   -1.273944    1.369679
     19          1           0        0.634282   -1.472737   -1.384861
 ---------------------------------------------------------------------

 SCF Done:  E(RB3LYP) =  -423.160089981     A.U. after    1 cycles

 The electronic state is 1-A.
 Alpha  occ. eigenvalues --  -19.13348 -19.13079 -10.23414 -10.23301 -10.23091
 Alpha  occ. eigenvalues --  -10.23066 -10.19376 -10.19003 -10.18479  -1.04254
 Alpha  occ. eigenvalues --   -1.03324  -0.80691  -0.75407  -0.70832  -0.66705
 Alpha  occ. eigenvalues --   -0.63817  -0.55101  -0.54095  -0.51142  -0.50710
 Alpha  occ. eigenvalues --   -0.46445  -0.44763  -0.44230  -0.42972  -0.42192
 Alpha  occ. eigenvalues --   -0.38548  -0.37101  -0.35191  -0.32078  -0.31006
 Alpha  occ. eigenvalues --   -0.30305  -0.29955  -0.25154  -0.24821
 Alpha virt. eigenvalues --    0.06427   0.08860   0.10142   0.10573   0.11033
 Alpha virt. eigenvalues --    0.13018   0.13592   0.14254   0.16446   0.17132
 Alpha virt. eigenvalues --    0.17668   0.17921   0.19207   0.20755   0.21441

 Mulliken charges:
               1
     1  C   -0.083446
     2  O   -0.301809
     3  C    0.136015
     4  C   -0.076020
     5  C   -0.252847
     6  C    0.136483
     7  O   -0.295939
     8  C   -0.087291
     9  C   -0.112044
    10  H    0.102760
    11  H    0.097494
    12  H    0.072759
    13  H    0.081281
    14  H    0.102543
    15  H    0.116962
    16  H    0.073691
    17  H    0.099937
    18  H    0.098823
    19  H    0.090647
 Sum of Mulliken charges =   0.00000

 Dipole moment (field-independent basis, Debye):
    X=             -0.4773    Y=              0.2059    Z=              0.3403  Tot=              0.6213
 Quadrupole moment (field-independent basis, Debye-Ang):
   XX=            -56.9889   YY=            -52.7902   ZZ=            -51.9687
   XY=             -6.2231   XZ=             -3.4428   YZ=             -2.1761

  Exact polarizability:  83.129  -5.903  72.083  -1.017  -3.486  65.864
 Approx polarizability: 108.852  -4.621 106.298   2.469  -2.516 102.218

                      1                      2                      3
                      A                      A                      A
 Frequencies --     99.0225               110.9884               240.6001
 Red. masses --      2.9686                 3.2665                 3.2658
 Frc consts  --      0.0172                 0.0237                 0.1114
 IR Inten    --      1.9532                 6.0693                 2.1673

                      4                      5                      6
                      A                      A                      A
 Frequencies --    312.2542               367.1389               413.5878
 Red. masses --      3.4870                 3.1498                 2.0519
 Frc consts  --      0.2003                 0.2501                 0.2068
 IR Inten    --      4.1171                 1.3172                 3.4597

                      7                      8                      9
                      A                      A                      A
 Frequencies --    629.4135               679.5052               794.2927
 Red. masses --      4.0428                 4.8536                 2.1634
 Frc consts  --      0.9436                 1.3204                 0.8042
 IR Inten    --      0.7882                 4.3540                 0.4405

                     10                     11                     12
                      A                      A                      A
 Frequencies --    804.6779               837.5144               859.9125
 Red. masses --      2.5082                 2.7525                 2.1011
 Frc consts  --      0.9569                 1.1375                 0.9154
 IR Inten    --      4.1683                 2.0825                 1.9295

                     13                     14                     15
                      A                      A                      A
 Frequencies --    879.1285               894.0551               899.7398
 Red. masses --      3.3577                 3.6357                 1.7928
 Frc consts  --      1.5290                 1.7122                 0.8551
 IR Inten    --     14.2438                 8.9629                 2.9266

                     16                     17                     18
                      A                      A                      A
 Frequencies --    970.4696               990.1711              1002.2481
 Red. masses --      1.8363                 3.2042                 2.1196
 Frc consts  --      1.0189                 1.8509                 1.2545
 IR Inten    --     16.5556                 4.2597                 1.6430

                     19                     20                     21
                      A                      A                      A
 Frequencies --   1023.8726              1024.8675              1066.3245
 Red. masses --      8.1249                 5.9265                 1.7363
 Frc consts  --      5.0183                 3.6676                 1.1632
 IR Inten    --     22.9742               165.3512                 0.7235

                     22                     23                     24
                      A                      A                      A
 Frequencies --   1085.0232              1100.5853              1105.3406
 Red. masses --      2.4645                 1.5624                 2.1336
 Frc consts  --      1.7095                 1.1150                 1.5359
 IR Inten    --     16.2591                 2.0333                 6.9556

                     25                     26                     27
                      A                      A                      A
 Frequencies --   1158.4732              1162.1761              1201.9437
 Red. masses --      1.1982                 1.1856                 1.6175
 Frc consts  --      0.9474                 0.9434                 1.3768
 IR Inten    --      3.3152                 2.6898                 3.4070

                     28                     29                     30
                      A                      A                      A
 Frequencies --   1207.3525              1215.0745              1253.8516
 Red. masses --      1.8309                 1.4191                 1.4968
 Frc consts  --      1.5725                 1.2345                 1.3865
 IR Inten    --     10.0465                 1.8628                 1.4067

                     31                     32                     33
                      A                      A                      A
 Frequencies --   1282.8933              1297.8624              1317.3152
 Red. masses --      1.3690                 1.4000                 1.4202
 Frc consts  --      1.3275                 1.3894                 1.4520
 IR Inten    --      0.7632                 1.2648                 1.7816

                     34                     35                     36
                      A                      A                      A
 Frequencies --   1323.6774              1333.6814              1365.7384
 Red. masses --      1.4954                 1.4625                 1.3210
 Frc consts  --      1.5437                 1.5327                 1.4517
 IR Inten    --      2.4502                 3.0657                 1.6099

                     37                     38                     39
                      A                      A                      A
 Frequencies --   1367.4553              1375.0629              1473.5084
 Red. masses --      1.5660                 1.5630                 1.0890
 Frc consts  --      1.7253                 1.7412                 1.3930
 IR Inten    --     14.8207                 9.5023                 5.1177

                     40                     41                     42
                      A                      A                      A
 Frequencies --   1524.6518              1526.4173              3004.0980
 Red. masses --      1.0996                 1.1051                 1.0618
 Frc consts  --      1.5060                 1.5171                 5.6458
 IR Inten    --      0.2569                 0.6906                 8.2205

                     43                     44                     45
                      A                      A                      A
 Frequencies --   3005.5516              3014.7077              3035.5788
 Red. masses --      1.0565                 1.0801                 1.0765
 Frc consts  --      5.6232                 5.7839                 5.8444
 IR Inten    --    150.9811                64.9631                20.2602

                     46                     47                     48
                      A                      A                      A
 Frequencies --   3046.8212              3051.0381              3057.8024
 Red. masses --      1.1106                 1.0771                 1.1044
 Frc consts  --      6.0743                 5.9076                 6.0841
 IR Inten    --     43.2123                30.9358                58.8174

                     49                     50                     51
                      A                      A                      A
 Frequencies --   3095.8824              3113.0519              3115.5201
 Red. masses --      1.0978                 1.0882                 1.0910
 Frc consts  --      6.1995                 6.2136                 6.2394
 IR Inten    --      5.4473                32.9555                21.2493

 - Thermochemistry -
 -------------------
 Temperature   298.150 Kelvin.  Pressure   1.00000 Atm.
 Atom     1 has atomic number  6 and mass  12.00000

 Molecular mass:   126.06808 amu.
 Principal axes and moments of inertia in atomic units:
                           1         2         3
     Eigenvalues --   502.637781219.002321465.22742
           X            0.99897  -0.04405  -0.01125
           Y            0.04357   0.99823  -0.04051
           Z            0.01302   0.03998   0.99912
 This molecule is an asymmetric top.
 Rotational symmetry number  1.
 Warning -- assumption of classical behavior for rotation
           may cause significant error
 Rotational temperatures (Kelvin)      0.17232     0.07105     0.05911
 Rotational constants (GHZ):           3.59054     1.48051     1.23171
 Zero-point vibrational energy     425379.6 (Joules/Mol)
                                  101.66817 (Kcal/Mol)
 Warning -- explicit consideration of   6 degrees of freedom as
           vibrations may cause significant error
 Vibrational temperatures:    142.47   159.69   346.17   449.26   528.23
          (Kelvin)            595.06   905.58   977.66  1142.81  1157.75
                             1204.99  1237.22  1264.87  1286.34  1294.52
                             1396.29  1424.63  1442.01  1473.12  1474.55
                             1534.20  1561.10  1583.49  1590.34  1666.78
                             1672.11  1729.33  1737.11  1748.22  1804.01
                             1845.79  1867.33  1895.32  1904.47  1918.87
                             1964.99  1967.46  1978.41  2120.05  2193.63
                             2196.17  4322.22  4324.31  4337.49  4367.52
                             4383.69  4389.76  4399.49  4454.28  4478.98
                             4482.53

 Zero-point correction=                           0.162019 (Hartree/Particle)
 Thermal correction to Energy=                    0.169049
 Thermal correction to Enthalpy=                  0.169993
 Thermal correction to Gibbs Free Energy=         0.130223
 Sum of electronic and zero-point Energies=           -422.998071
 Sum of electronic and thermal Energies=              -422.991041
 Sum of electronic and thermal Enthalpies=            -422.990097
 Sum of electronic and thermal Free Energies=         -423.029867

                     E (Thermal)             CV                S
                      KCal/Mol        Cal/Mol-Kelvin    Cal/Mol-Kelvin
 Total                  106.080             27.647             83.703
 Electronic               0.000              0.000              0.000
 Translational            0.889              2.981             40.409
 Rotational               0.889              2.981             28.286
 Vibrational            104.302             21.685             15.008
 Vibration     1          0.604              1.950              3.473
 Vibration     2          0.607              1.940              3.252
 Vibration     3          0.658              1.778              1.798
 Vibration     4          0.701              1.650              1.350
 Vibration     5          0.740              1.540              1.092
 Vibration     6          0.777              1.441              0.914

 Optimization completed.
    -- Stationary point found.
 Normal termination of Gaussian 09 at Mon Jan 27 13:01:56 2020.
