 Gaussian 09, Revision D.01,
 Gaussian 09:  ES64L-G09RevD.01 24-Apr-2013

 -----------------------------
 # b3lyp 6-31G(2df,p) opt Freq
 -----------------------------

 -----
 titel
 -----
 Symbolic Z-matrix:
 Charge =  0 Multiplicity = 1

 SCF Done:  E(RB3LYP) =  -423.202245022     A.U. after   14 cycles
 Optimization completed.
    -- Stationary point found.
 Normal termination of Gaussian 09 at Mon Jan 27 22:55:05 2020.

 ----------------------------------------------------------------------
 #N Geom=AllCheck Guess=TCheck SCRF=Check GenChk RB3LYP/6-31G(2df,p) Fr
 eq
 ----------------------------------------------------------------------

 Structure from the checkpoint file:  "/scratch/puck/g09_20e860c8-6ed0-486d-99c9-1b323ef52c0c/Gau-101250.chk"
 -----
 titel
 -----
 Charge =  0 Multiplicity = 1

                         Standard orientation:
 ---------------------------------------------------------------------
 Center     Atomic      Atomic             Coordinates (Angstroms)
 Number     Number       Type             X           Y           Z
 ---------------------------------------------------------------------
      1          6           0       -2.436713    0.290251   -0.578656
      2          6           0       -0.991479   -0.179984   -0.663484
      3          6           0       -0.531847   -1.366113    0.244865
      4          6           0       -0.365540   -0.342432    1.405554
      5          6           0        0.052375    0.607032    0.229550
      6          8           0        0.115604    1.976965    0.317923
      7          6           0        1.322766   -0.081323   -0.219508
      8          8           0        2.351928    0.477467   -0.506625
      9          6           0        0.931799   -1.564649   -0.214901
     10          1           0       -2.540969    1.268107   -1.058657
     11          1           0       -3.095642   -0.412232   -1.100174
     12          1           0       -2.800518    0.388111    0.447170
     13          1           0       -0.707381   -0.276707   -1.718621
     14          1           0       -1.146628   -2.256465    0.361739
     15          1           0       -1.304954   -0.038649    1.864682
     16          1           0        0.375851   -0.556473    2.180754
     17          1           0        1.011730    2.222329    0.036525
     18          1           0        1.034181   -2.010182   -1.209451
     19          1           0        1.545901   -2.139993    0.485131
 ---------------------------------------------------------------------

 SCF Done:  E(RB3LYP) =  -423.202245022     A.U. after    1 cycles

 The electronic state is 1-A.
 Alpha  occ. eigenvalues --  -19.14633 -19.14218 -10.26971 -10.24447 -10.20654
 Alpha  occ. eigenvalues --  -10.20234 -10.19908 -10.19505 -10.18217  -1.05928
 Alpha  occ. eigenvalues --   -1.02755  -0.89774  -0.75303  -0.71220  -0.67029
 Alpha  occ. eigenvalues --   -0.63709  -0.56662  -0.54441  -0.50476  -0.48219
 Alpha  occ. eigenvalues --   -0.46555  -0.45389  -0.43411  -0.40954  -0.39478
 Alpha  occ. eigenvalues --   -0.39130  -0.37892  -0.36252  -0.35622  -0.35106
 Alpha  occ. eigenvalues --   -0.32784  -0.31662  -0.26663  -0.24478
 Alpha virt. eigenvalues --   -0.01492   0.08419   0.10038   0.10966   0.12500
 Alpha virt. eigenvalues --    0.12861   0.14105   0.14703   0.15824   0.17072
 Alpha virt. eigenvalues --    0.17423   0.19427   0.20424   0.22050   0.22415

 Mulliken charges:
               1
     1  C   -0.434771
     2  C   -0.025358
     3  C   -0.044945
     4  C   -0.309002
     5  C    0.343237
     6  O   -0.493168
     7  C    0.376402
     8  O   -0.361539
     9  C   -0.343627
    10  H    0.134562
    11  H    0.117428
    12  H    0.123353
    13  H    0.072387
    14  H    0.076478
    15  H    0.118881
    16  H    0.102428
    17  H    0.290614
    18  H    0.128278
    19  H    0.128363
 Sum of Mulliken charges =   0.00000

 Dipole moment (field-independent basis, Debye):
    X=             -1.5871    Y=             -2.0240    Z=              0.1615  Tot=              2.5771
 Quadrupole moment (field-independent basis, Debye-Ang):
   XX=            -57.8499   YY=            -53.3341   ZZ=            -52.1410
   XY=             -0.0387   XZ=              1.9495   YZ=             -0.7361

  Exact polarizability:  84.309   0.488  75.503  -0.573  -0.702  66.508
 Approx polarizability: 122.074   5.714 112.704  -4.339  -1.275 102.430

                      1                      2                      3
                      A                      A                      A
 Frequencies --    126.2431               175.4461               202.2413
 Red. masses --      5.8046                 1.0890                 2.7480
 Frc consts  --      0.0545                 0.0197                 0.0662
 IR Inten    --      0.2746                 0.3287                 2.5178

                      4                      5                      6
                      A                      A                      A
 Frequencies --    269.1320               291.7609               372.9444
 Red. masses --      5.3776                 2.5281                 3.1908
 Frc consts  --      0.2295                 0.1268                 0.2615
 IR Inten    --     17.9629                 2.1138                19.8836

                      7                      8                      9
                      A                      A                      A
 Frequencies --    409.7600               449.2068               469.5628
 Red. masses --      1.6222                 1.3103                 3.1845
 Frc consts  --      0.1605                 0.1558                 0.4137
 IR Inten    --     14.9714                26.1460                 2.6162

                     10                     11                     12
                      A                      A                      A
 Frequencies --    544.9483               599.1259               622.0497
 Red. masses --      4.6972                 3.7582                 2.3595
 Frc consts  --      0.8219                 0.7948                 0.5379
 IR Inten    --      0.3856                 5.9459                 5.7221

                     13                     14                     15
                      A                      A                      A
 Frequencies --    672.0044               774.3379               806.8609
 Red. masses --      4.7421                 2.4589                 3.2121
 Frc consts  --      1.2617                 0.8687                 1.2321
 IR Inten    --      1.6679                 8.6158                 4.5779

                     16                     17                     18
                      A                      A                      A
 Frequencies --    855.8597               892.7840               914.1494
 Red. masses --      2.4791                 2.0163                 2.9114
 Frc consts  --      1.0699                 0.9469                 1.4334
 IR Inten    --      8.1419                 0.6798                 3.9078

                     19                     20                     21
                      A                      A                      A
 Frequencies --    958.9526               981.3188              1006.4800
 Red. masses --      1.8474                 2.0298                 1.4636
 Frc consts  --      1.0010                 1.1517                 0.8735
 IR Inten    --      2.0002                 0.8263                 8.3432

                     22                     23                     24
                      A                      A                      A
 Frequencies --   1052.3023              1065.0435              1085.3497
 Red. masses --      1.6551                 1.8278                 1.8413
 Frc consts  --      1.0798                 1.2216                 1.2779
 IR Inten    --     25.8735                 8.7093                19.7211

                     25                     26                     27
                      A                      A                      A
 Frequencies --   1094.4925              1138.5410              1163.7178
 Red. masses --      1.5347                 1.8541                 2.0255
 Frc consts  --      1.0832                 1.4160                 1.6161
 IR Inten    --      0.9315                72.3905                35.5163

                     28                     29                     30
                      A                      A                      A
 Frequencies --   1181.2173              1223.9970              1248.2480
 Red. masses --      1.5327                 1.5385                 1.6112
 Frc consts  --      1.2600                 1.3580                 1.4791
 IR Inten    --      0.1649                 3.2797                 0.5974

                     31                     32                     33
                      A                      A                      A
 Frequencies --   1256.6921              1294.6051              1360.6403
 Red. masses --      1.8277                 1.5853                 5.0629
 Frc consts  --      1.7006                 1.5655                 5.5226
 IR Inten    --      4.4721                17.4414                68.7513

                     34                     35                     36
                      A                      A                      A
 Frequencies --   1376.8462              1412.0795              1419.7515
 Red. masses --      1.3180                 1.2637                 1.4772
 Frc consts  --      1.4720                 1.4846                 1.7543
 IR Inten    --     35.3410                 2.9043                15.0482

                     37                     38                     39
                      A                      A                      A
 Frequencies --   1457.9330              1493.5459              1496.7785
 Red. masses --      1.0926                 1.0650                 1.0669
 Frc consts  --      1.3683                 1.3997                 1.4083
 IR Inten    --      8.1005                 1.6699                 6.1270

                     40                     41                     42
                      A                      A                      A
 Frequencies --   1518.5997              1853.4877              3024.4734
 Red. masses --      1.1122                12.5713                 1.0837
 Frc consts  --      1.5112                25.4455                 5.8408
 IR Inten    --      6.9675               257.3728                29.8433

                     43                     44                     45
                      A                      A                      A
 Frequencies --   3040.0940              3054.2466              3066.5051
 Red. masses --      1.0378                 1.0589                 1.0642
 Frc consts  --      5.6509                 5.8201                 5.8959
 IR Inten    --     29.0243                15.7271                22.5426

                     46                     47                     48
                      A                      A                      A
 Frequencies --   3101.0001              3102.5315              3118.5715
 Red. masses --      1.1045                 1.1003                 1.1007
 Frc consts  --      6.2576                 6.2404                 6.3070
 IR Inten    --      8.9594                17.7411                26.9467

                     49                     50                     51
                      A                      A                      A
 Frequencies --   3133.9450              3149.2050              3688.5599
 Red. masses --      1.0914                 1.1002                 1.0651
 Frc consts  --      6.3153                 6.4289                 8.5380
 IR Inten    --     25.2508                19.4965                47.1925

 - Thermochemistry -
 -------------------
 Temperature   298.150 Kelvin.  Pressure   1.00000 Atm.
 Atom     1 has atomic number  6 and mass  12.00000

 Molecular mass:   126.06808 amu.
 Principal axes and moments of inertia in atomic units:
                           1         2         3
     Eigenvalues --   724.788811060.582581379.65837
           X            0.99921  -0.03458   0.01937
           Y            0.03479   0.99934  -0.01040
           Z           -0.01900   0.01107   0.99976
 This molecule is an asymmetric top.
 Rotational symmetry number  1.
 Warning -- assumption of classical behavior for rotation
           may cause significant error
 Rotational temperatures (Kelvin)      0.11950     0.08167     0.06278
 Rotational constants (GHZ):           2.49002     1.70165     1.30811
 Zero-point vibrational energy     419100.7 (Joules/Mol)
                                  100.16748 (Kcal/Mol)
 Warning -- explicit consideration of  11 degrees of freedom as
           vibrations may cause significant error
 Vibrational temperatures:    181.64   252.43   290.98   387.22   419.78
          (Kelvin)            536.58   589.55   646.31   675.60   784.06
                              862.01   894.99   966.86  1114.10  1160.89
                             1231.39  1284.52  1315.26  1379.72  1411.90
                             1448.10  1514.03  1532.36  1561.57  1574.73
                             1638.10  1674.33  1699.51  1761.06  1795.95
                             1808.10  1862.65  1957.66  1980.97  2031.66
                             2042.70  2097.64  2148.88  2153.53  2184.92
                             2666.75  4351.54  4374.01  4394.37  4412.01
                             4461.64  4463.85  4486.92  4509.04  4531.00
                             5307.01

 Zero-point correction=                           0.159627 (Hartree/Particle)
 Thermal correction to Energy=                    0.167695
 Thermal correction to Enthalpy=                  0.168640
 Thermal correction to Gibbs Free Energy=         0.127509
 Sum of electronic and zero-point Energies=           -423.042618
 Sum of electronic and thermal Energies=              -423.034550
 Sum of electronic and thermal Enthalpies=            -423.033605
 Sum of electronic and thermal Free Energies=         -423.074736

                     E (Thermal)             CV                S
                      KCal/Mol        Cal/Mol-Kelvin    Cal/Mol-Kelvin
 Total                  105.230             32.169             86.567
 Electronic               0.000              0.000              0.000
 Translational            0.889              2.981             40.409
 Rotational               0.889              2.981             28.452
 Vibrational            103.453             26.208             17.706
 Vibration     1          0.611              1.927              3.003
 Vibration     2          0.627              1.873              2.376
 Vibration     3          0.639              1.837              2.113
 Vibration     4          0.674              1.730              1.602
 Vibration     5          0.687              1.689              1.464
 Vibration     6          0.744              1.528              1.068
 Vibration     7          0.774              1.449              0.927
 Vibration     8          0.808              1.363              0.798
 Vibration     9          0.827              1.318              0.739
 Vibration    10          0.900              1.151              0.555
 Vibration    11          0.957              1.034              0.451

 Normal termination of Gaussian 09 at Mon Jan 27 23:41:30 2020.
