 Gaussian 09, Revision D.01,
 Gaussian 09:  ES64L-G09RevD.01 24-Apr-2013

 -----------------------------
 # b3lyp 6-31G(2df,p) opt Freq
 -----------------------------

 -----
 titel
 -----
 Symbolic Z-matrix:
 Charge =  0 Multiplicity = 1

 SCF Done:  E(RB3LYP) =  -423.123137225     A.U. after   14 cycles
 Optimization completed.
    -- Stationary point found.
 Normal termination of Gaussian 09 at Tue Jan 28 14:06:07 2020.

 ----------------------------------------------------------------------
 #N Geom=AllCheck Guess=TCheck SCRF=Check GenChk RB3LYP/6-31G(2df,p) Fr
 eq
 ----------------------------------------------------------------------

 Structure from the checkpoint file:  "/scratch/puck/g09_4640bf7f-18ee-4912-93e6-7c5b946a9fd9/Gau-10854.chk"
 -----
 titel
 -----
 Charge =  0 Multiplicity = 1

                         Standard orientation:
 ---------------------------------------------------------------------
 Center     Atomic      Atomic             Coordinates (Angstroms)
 Number     Number       Type             X           Y           Z
 ---------------------------------------------------------------------
      1          6           0        3.021824   -0.643060   -0.150813
      2          6           0        1.566829   -0.879530    0.271258
      3          6           0        0.591809    0.000337   -0.490012
      4          6           0        0.374446    1.478500   -0.049982
      5          6           0       -0.985788    1.493643   -0.781619
      6          6           0       -0.857007    0.189223    0.061437
      7          8           0       -0.322547    1.006276    1.175077
      8          6           0       -1.908803   -0.824585    0.375226
      9          8           0       -2.230071   -1.701247   -0.386011
     10          1           0        3.701200   -1.300715    0.399368
     11          1           0        3.164864   -0.836421   -1.219767
     12          1           0        3.330859    0.389706    0.043585
     13          1           0        1.301444   -1.929613    0.096278
     14          1           0        1.447040   -0.692330    1.342422
     15          1           0        0.646291   -0.152477   -1.572523
     16          1           0        1.098925    2.282854    0.075769
     17          1           0       -1.709583    2.211837   -0.396484
     18          1           0       -0.999859    1.396084   -1.868783
     19          1           0       -2.380102   -0.696323    1.374643
 ---------------------------------------------------------------------

 SCF Done:  E(RB3LYP) =  -423.123137225     A.U. after    1 cycles

 The electronic state is 1-A.
 Alpha  occ. eigenvalues --  -19.15090 -19.14320 -10.28031 -10.26184 -10.25938
 Alpha  occ. eigenvalues --  -10.20862 -10.20842 -10.18464 -10.17974  -1.06998
 Alpha  occ. eigenvalues --   -1.05444  -0.81379  -0.77061  -0.70992  -0.68461
 Alpha  occ. eigenvalues --   -0.61051  -0.59732  -0.53750  -0.51725  -0.47806
 Alpha  occ. eigenvalues --   -0.46167  -0.45252  -0.43386  -0.41141  -0.40913
 Alpha  occ. eigenvalues --   -0.39403  -0.37938  -0.35592  -0.35053  -0.33643
 Alpha  occ. eigenvalues --   -0.32827  -0.32094  -0.25810  -0.25066
 Alpha virt. eigenvalues --   -0.04229   0.08368   0.09021   0.10730   0.11632
 Alpha virt. eigenvalues --    0.12260   0.13464   0.14718   0.15145   0.15584
 Alpha virt. eigenvalues --    0.16488   0.16840   0.18343   0.19146   0.19982

 Mulliken charges:
               1
     1  C   -0.381786
     2  C   -0.227341
     3  C    0.006176
     4  C    0.032607
     5  C   -0.257852
     6  C    0.298492
     7  O   -0.343233
     8  C    0.035302
     9  O   -0.251509
    10  H    0.118606
    11  H    0.115710
    12  H    0.116324
    13  H    0.108538
    14  H    0.117646
    15  H    0.082369
    16  H    0.101933
    17  H    0.116674
    18  H    0.112465
    19  H    0.098879
 Sum of Mulliken charges =   0.00000

 Dipole moment (field-independent basis, Debye):
    X=              1.3747    Y=              1.5763    Z=             -0.6854  Tot=              2.2010
 Quadrupole moment (field-independent basis, Debye-Ang):
   XX=            -54.2689   YY=            -55.2890   ZZ=            -54.6410
   XY=             -3.9651   XZ=             -1.8749   YZ=             -3.9913

  Exact polarizability:  85.068   1.293  77.601  -0.990  -0.166  67.829
 Approx polarizability: 109.404   7.872 117.069  -0.227   6.698 112.113

                      1                      2                      3
                      A                      A                      A
 Frequencies --     40.2543                87.8955               136.2003
 Red. masses --      4.3013                 2.3175                 2.4687
 Frc consts  --      0.0041                 0.0105                 0.0270
 IR Inten    --      8.9098                 1.2105                 1.1299

                      4                      5                      6
                      A                      A                      A
 Frequencies --    183.5308               208.9025               240.2742
 Red. masses --      4.3631                 1.2547                 2.5905
 Frc consts  --      0.0866                 0.0323                 0.0881
 IR Inten    --      7.5282                 1.0885                 3.8937

                      7                      8                      9
                      A                      A                      A
 Frequencies --    308.4020               413.9920               461.8972
 Red. masses --      2.2307                 3.0970                 7.6444
 Frc consts  --      0.1250                 0.3127                 0.9609
 IR Inten    --      2.0689                 1.1447                 1.1965

                     10                     11                     12
                      A                      A                      A
 Frequencies --    517.3478               645.4180               714.7246
 Red. masses --      2.3519                 3.5533                 2.9775
 Frc consts  --      0.3709                 0.8721                 0.8961
 IR Inten    --      2.5816                 7.8972                 6.8886

                     13                     14                     15
                      A                      A                      A
 Frequencies --    751.0045               754.3745               801.1240
 Red. masses --      2.4063                 3.9914                 2.0140
 Frc consts  --      0.7996                 1.3383                 0.7616
 IR Inten    --     28.6894                15.1898                15.6380

                     16                     17                     18
                      A                      A                      A
 Frequencies --    876.1688               901.2670               914.1777
 Red. masses --      1.7585                 2.5377                 2.7317
 Frc consts  --      0.7954                 1.2145                 1.3451
 IR Inten    --      4.7671                 0.4694                16.9992

                     19                     20                     21
                      A                      A                      A
 Frequencies --    968.0075               997.3088              1027.3326
 Red. masses --      2.1660                 2.1604                 1.5707
 Frc consts  --      1.1958                 1.2660                 0.9767
 IR Inten    --      2.7308                 7.1023                 2.3838

                     22                     23                     24
                      A                      A                      A
 Frequencies --   1036.5412              1073.6360              1090.1704
 Red. masses --      1.6838                 2.2148                 1.5370
 Frc consts  --      1.0659                 1.5042                 1.0762
 IR Inten    --      2.0093                 3.3698                 7.1955

                     25                     26                     27
                      A                      A                      A
 Frequencies --   1104.1273              1161.3122              1167.2741
 Red. masses --      1.5866                 1.6973                 1.9682
 Frc consts  --      1.1396                 1.3487                 1.5800
 IR Inten    --      6.3869                 0.9257                 1.1523

                     28                     29                     30
                      A                      A                      A
 Frequencies --   1198.0245              1218.2870              1234.7360
 Red. masses --      1.7129                 1.5937                 1.5704
 Frc consts  --      1.4485                 1.3936                 1.4106
 IR Inten    --     12.0468                 2.0127                 3.1026

                     31                     32                     33
                      A                      A                      A
 Frequencies --   1287.4253              1294.0688              1345.9686
 Red. masses --      1.2886                 2.9770                 1.3903
 Frc consts  --      1.2584                 2.9373                 1.4839
 IR Inten    --      1.3748                11.7217                 6.3244

                     34                     35                     36
                      A                      A                      A
 Frequencies --   1402.0836              1411.3319              1420.5870
 Red. masses --      1.3014                 1.3593                 1.3967
 Frc consts  --      1.5073                 1.5952                 1.6607
 IR Inten    --     10.5384                 0.8888                 3.4012

                     37                     38                     39
                      A                      A                      A
 Frequencies --   1488.0259              1490.9276              1501.5154
 Red. masses --      1.2103                 1.0622                 1.0412
 Frc consts  --      1.5790                 1.3911                 1.3831
 IR Inten    --      3.7964                 0.7520                 5.4340

                     40                     41                     42
                      A                      A                      A
 Frequencies --   1506.4173              1821.1138              2894.8976
 Red. masses --      1.0751                10.7530                 1.0838
 Frc consts  --      1.4374                21.0114                 5.3514
 IR Inten    --      4.3575               148.0532                92.0079

                     43                     44                     45
                      A                      A                      A
 Frequencies --   3031.1149              3034.3054              3060.6676
 Red. masses --      1.0444                 1.0572                 1.0818
 Frc consts  --      5.6534                 5.7347                 5.9710
 IR Inten    --     14.4464                27.9136                13.2138

                     46                     47                     48
                      A                      A                      A
 Frequencies --   3077.0327              3083.3840              3104.7270
 Red. masses --      1.0589                 1.0947                 1.1015
 Frc consts  --      5.9072                 6.1318                 6.2560
 IR Inten    --     29.6380                 3.6114                35.2022

                     49                     50                     51
                      A                      A                      A
 Frequencies --   3107.7602              3122.5928              3161.5257
 Red. masses --      1.0998                 1.0936                 1.1121
 Frc consts  --      6.2584                 6.2826                 6.5489
 IR Inten    --     35.5125                45.5771                19.3888

 - Thermochemistry -
 -------------------
 Temperature   298.150 Kelvin.  Pressure   1.00000 Atm.
 Atom     1 has atomic number  6 and mass  12.00000

 Molecular mass:   126.06808 amu.
 Principal axes and moments of inertia in atomic units:
                           1         2         3
     Eigenvalues --   736.685161390.548741777.65470
           X            0.99827  -0.05857  -0.00514
           Y            0.05831   0.99743  -0.04165
           Z            0.00757   0.04127   0.99912
 This molecule is an asymmetric top.
 Rotational symmetry number  1.
 Warning -- assumption of classical behavior for rotation
           may cause significant error
 Rotational temperatures (Kelvin)      0.11757     0.06229     0.04872
 Rotational constants (GHZ):           2.44981     1.29786     1.01524
 Zero-point vibrational energy     412001.0 (Joules/Mol)
                                   98.47060 (Kcal/Mol)
 Warning -- explicit consideration of  10 degrees of freedom as
           vibrations may cause significant error
 Vibrational temperatures:     57.92   126.46   195.96   264.06   300.56
          (Kelvin)            345.70   443.72   595.64   664.57   744.35
                              928.61  1028.33  1080.53  1085.38  1152.64
                             1260.61  1296.72  1315.30  1392.75  1434.90
                             1478.10  1491.35  1544.72  1568.51  1588.59
                             1670.87  1679.44  1723.69  1752.84  1776.51
                             1852.32  1861.87  1936.55  2017.28  2030.59
                             2043.91  2140.93  2145.11  2160.34  2167.40
                             2620.17  4165.11  4361.09  4365.68  4403.61
                             4427.16  4436.30  4467.00  4471.37  4492.71
                             4548.72

 Zero-point correction=                           0.156923 (Hartree/Particle)
 Thermal correction to Energy=                    0.165897
 Thermal correction to Enthalpy=                  0.166841
 Thermal correction to Gibbs Free Energy=         0.122290
 Sum of electronic and zero-point Energies=           -422.966214
 Sum of electronic and thermal Energies=              -422.957240
 Sum of electronic and thermal Enthalpies=            -422.956296
 Sum of electronic and thermal Free Energies=         -423.000847

                     E (Thermal)             CV                S
                      KCal/Mol        Cal/Mol-Kelvin    Cal/Mol-Kelvin
 Total                  104.102             32.750             93.765
 Electronic               0.000              0.000              0.000
 Translational            0.889              2.981             40.409
 Rotational               0.889              2.981             28.989
 Vibrational            102.324             26.788             24.367
 Vibration     1          0.594              1.981              5.247
 Vibration     2          0.601              1.958              3.706
 Vibration     3          0.614              1.917              2.857
 Vibration     4          0.631              1.862              2.292
 Vibration     5          0.642              1.827              2.053
 Vibration     6          0.657              1.779              1.801
 Vibration     7          0.698              1.658              1.371
 Vibration     8          0.778              1.440              0.913
 Vibration     9          0.820              1.335              0.761
 Vibration    10          0.872              1.212              0.616

 Optimization completed.
    -- Stationary point found.
 Normal termination of Gaussian 09 at Tue Jan 28 14:53:11 2020.
