 Gaussian 09, Revision D.01,
 Gaussian 09:  ES64L-G09RevD.01 24-Apr-2013

 -----------------------------
 # b3lyp 6-31G(2df,p) opt Freq
 -----------------------------

 -----
 titel
 -----
 Symbolic Z-matrix:
 Charge =  0 Multiplicity = 1

 SCF Done:  E(RB3LYP) =  -423.242695416     A.U. after   14 cycles
 Optimization completed.
    -- Stationary point found.
 Normal termination of Gaussian 09 at Tue Jan 28 13:26:36 2020.

 ----------------------------------------------------------------------
 #N Geom=AllCheck Guess=TCheck SCRF=Check GenChk RB3LYP/6-31G(2df,p) Fr
 eq
 ----------------------------------------------------------------------

 Structure from the checkpoint file:  "/scratch/puck/g09_9c63102b-6c4c-4840-b053-5eee583f381b/Gau-8022.chk"
 -----
 titel
 -----
 Charge =  0 Multiplicity = 1

                         Standard orientation:
 ---------------------------------------------------------------------
 Center     Atomic      Atomic             Coordinates (Angstroms)
 Number     Number       Type             X           Y           Z
 ---------------------------------------------------------------------
      1          6           0       -2.957258   -1.034785    0.119410
      2          6           0       -2.016447    0.098907   -0.296351
      3          6           0       -0.622654   -0.000178    0.327926
      4          6           0        0.268079   -1.169134   -0.131861
      5          6           0        1.715783   -0.674492   -0.033437
      6          8           0        2.693608   -1.374581   -0.039119
      7          6           0        1.708974    0.850510    0.069061
      8          6           0        0.237166    1.252979    0.081714
      9          8           0       -0.191844    2.365032   -0.086013
     10          1           0       -2.571435   -2.014574   -0.182020
     11          1           0       -3.097169   -1.054054    1.206140
     12          1           0       -3.942581   -0.912882   -0.340121
     13          1           0       -1.911855    0.115191   -1.389113
     14          1           0       -2.442479    1.068192   -0.018986
     15          1           0       -0.730249   -0.057029    1.423718
     16          1           0        0.143077   -2.098610    0.426994
     17          1           0        0.077494   -1.403728   -1.189168
     18          1           0        2.201333    1.168427    0.996106
     19          1           0        2.257908    1.322626   -0.751269
 ---------------------------------------------------------------------

 SCF Done:  E(RB3LYP) =  -423.242695416     A.U. after    1 cycles

 The electronic state is 1-A.
 Alpha  occ. eigenvalues --  -19.14317 -19.14096 -10.28250 -10.28022 -10.20901
 Alpha  occ. eigenvalues --  -10.20531 -10.20432 -10.19297 -10.18419  -1.05508
 Alpha  occ. eigenvalues --   -1.05134  -0.84933  -0.78239  -0.73063  -0.68316
 Alpha  occ. eigenvalues --   -0.60928  -0.55480  -0.54427  -0.49774  -0.47190
 Alpha  occ. eigenvalues --   -0.46075  -0.45244  -0.43140  -0.42970  -0.41667
 Alpha  occ. eigenvalues --   -0.41312  -0.39980  -0.36508  -0.36383  -0.35462
 Alpha  occ. eigenvalues --   -0.34365  -0.33945  -0.26902  -0.24060
 Alpha virt. eigenvalues --   -0.04198  -0.01538   0.07766   0.10852   0.11117
 Alpha virt. eigenvalues --    0.12570   0.13860   0.14274   0.15676   0.17058
 Alpha virt. eigenvalues --    0.17377   0.17911   0.18794   0.21329   0.23107

 Mulliken charges:
               1
     1  C   -0.393691
     2  C   -0.179692
     3  C   -0.103165
     4  C   -0.338661
     5  C    0.388019
     6  O   -0.299482
     7  C   -0.440687
     8  C    0.381879
     9  O   -0.308883
    10  H    0.118972
    11  H    0.117059
    12  H    0.120433
    13  H    0.100166
    14  H    0.124269
    15  H    0.109272
    16  H    0.137994
    17  H    0.137679
    18  H    0.164927
    19  H    0.163593
 Sum of Mulliken charges =   0.00000

 Dipole moment (field-independent basis, Debye):
    X=             -1.5062    Y=             -0.8163    Z=              0.3834  Tot=              1.7555
 Quadrupole moment (field-independent basis, Debye-Ang):
   XX=            -58.7890   YY=            -62.3749   ZZ=            -50.1841
   XY=              7.6721   XZ=              0.2043   YZ=              0.7064

  Exact polarizability:  89.785  -0.210  78.752   0.510  -0.722  58.719
 Approx polarizability: 117.006  -9.488 119.784   1.275  -2.328  93.781

                      1                      2                      3
                      A                      A                      A
 Frequencies --     36.1655                71.8584                88.1690
 Red. masses --      3.2495                 2.6703                 2.2866
 Frc consts  --      0.0025                 0.0081                 0.0105
 IR Inten    --     13.9211                 0.2188                 0.3368

                      4                      5                      6
                      A                      A                      A
 Frequencies --    167.6364               228.0190               310.6718
 Red. masses --      2.8956                 1.1854                 4.4100
 Frc consts  --      0.0479                 0.0363                 0.2508
 IR Inten    --      0.8092                 0.4720                 5.7158

                      7                      8                      9
                      A                      A                      A
 Frequencies --    347.8947               410.5075               434.8601
 Red. masses --      2.1599                 3.3193                 2.7702
 Frc consts  --      0.1540                 0.3296                 0.3086
 IR Inten    --      1.5827                 6.8265                 2.7522

                     10                     11                     12
                      A                      A                      A
 Frequencies --    504.6961               543.7878               586.0281
 Red. masses --      2.5978                 3.7417                 4.5303
 Frc consts  --      0.3899                 0.6519                 0.9167
 IR Inten    --      2.4492                 2.5451                 4.6313

                     13                     14                     15
                      A                      A                      A
 Frequencies --    601.0236               736.9580               771.1850
 Red. masses --      3.6616                 2.2786                 1.5167
 Frc consts  --      0.7793                 0.7291                 0.5315
 IR Inten    --      4.1501                 1.7605                 7.2755

                     16                     17                     18
                      A                      A                      A
 Frequencies --    805.1425               846.6917               901.5737
 Red. masses --      2.4095                 1.8349                 1.7938
 Frc consts  --      0.9203                 0.7750                 0.8591
 IR Inten    --      1.6460                 4.6056                 1.8887

                     19                     20                     21
                      A                      A                      A
 Frequencies --    919.8939               983.9264              1024.8877
 Red. masses --      2.3220                 1.7570                 1.3101
 Frc consts  --      1.1577                 1.0022                 0.8108
 IR Inten    --      6.1863                 1.2849                 1.2140

                     22                     23                     24
                      A                      A                      A
 Frequencies --   1069.7093              1126.8184              1142.5999
 Red. masses --      2.9653                 2.3616                 1.7944
 Frc consts  --      1.9992                 1.7667                 1.3802
 IR Inten    --      3.5291                 6.6393                 1.5942

                     25                     26                     27
                      A                      A                      A
 Frequencies --   1169.0431              1175.5093              1209.4024
 Red. masses --      1.8379                 2.8335                 2.5773
 Frc consts  --      1.4799                 2.3069                 2.2211
 IR Inten    --      0.8564                88.6399                82.7905

                     28                     29                     30
                      A                      A                      A
 Frequencies --   1228.7528              1254.3361              1286.4381
 Red. masses --      1.6609                 1.3721                 1.2585
 Frc consts  --      1.4775                 1.2719                 1.2271
 IR Inten    --      4.0234                 0.2467                 5.5392

                     31                     32                     33
                      A                      A                      A
 Frequencies --   1302.8002              1337.8624              1376.7249
 Red. masses --      1.5403                 1.3777                 1.5453
 Frc consts  --      1.5403                 1.4529                 1.7256
 IR Inten    --      2.2414                 2.5676                 8.5021

                     34                     35                     36
                      A                      A                      A
 Frequencies --   1397.4939              1415.0086              1454.4018
 Red. masses --      1.0727                 1.2365                 1.0885
 Frc consts  --      1.2343                 1.4586                 1.3566
 IR Inten    --     16.7700                 1.4902                 7.9950

                     37                     38                     39
                      A                      A                      A
 Frequencies --   1487.8155              1500.0670              1507.1846
 Red. masses --      1.0605                 1.0425                 1.0679
 Frc consts  --      1.3831                 1.3821                 1.4293
 IR Inten    --      1.4499                 4.9702                 3.9055

                     40                     41                     42
                      A                      A                      A
 Frequencies --   1830.4129              1865.4339              2979.3333
 Red. masses --     12.6127                12.8573                 1.0797
 Frc consts  --     24.8976                26.3610                 5.6469
 IR Inten    --    361.1436                49.6121                 7.6961

                     43                     44                     45
                      A                      A                      A
 Frequencies --   3020.7716              3028.1123              3032.1873
 Red. masses --      1.0692                 1.0627                 1.0400
 Frc consts  --      5.7484                 5.7414                 5.6338
 IR Inten    --      5.7001                14.7619                31.8991

                     46                     47                     48
                      A                      A                      A
 Frequencies --   3052.4790              3077.4701              3100.9959
 Red. masses --      1.0641                 1.0953                 1.1009
 Frc consts  --      5.8414                 6.1118                 6.2372
 IR Inten    --      0.3093                 0.6790                33.5529

                     49                     50                     51
                      A                      A                      A
 Frequencies --   3101.1676              3106.9527              3114.5963
 Red. masses --      1.0978                 1.1002                 1.0929
 Frc consts  --      6.2203                 6.2575                 6.2462
 IR Inten    --      6.6234                31.4148                 8.8740

 - Thermochemistry -
 -------------------
 Temperature   298.150 Kelvin.  Pressure   1.00000 Atm.
 Atom     1 has atomic number  6 and mass  12.00000

 Molecular mass:   126.06808 amu.
 Principal axes and moments of inertia in atomic units:
                           1         2         3
     Eigenvalues --   747.926701468.764562132.42066
           X            0.99738   0.07239   0.00050
           Y           -0.07239   0.99738   0.00047
           Z           -0.00046  -0.00051   1.00000
 This molecule is an asymmetric top.
 Rotational symmetry number  1.
 Warning -- assumption of classical behavior for rotation
           may cause significant error
 Rotational temperatures (Kelvin)      0.11581     0.05897     0.04062
 Rotational constants (GHZ):           2.41299     1.22875     0.84633
 Zero-point vibrational energy     413151.0 (Joules/Mol)
                                   98.74546 (Kcal/Mol)
 Warning -- explicit consideration of  13 degrees of freedom as
           vibrations may cause significant error
 Vibrational temperatures:     52.03   103.39   126.86   241.19   328.07
          (Kelvin)            446.99   500.54   590.63   625.67   726.14
                              782.39   843.16   864.74  1060.32  1109.56
                             1158.42  1218.20  1297.16  1323.52  1415.65
                             1474.58  1539.07  1621.24  1643.94  1681.99
                             1691.29  1740.06  1767.90  1804.71  1850.90
                             1874.44  1924.88  1980.80  2010.68  2035.88
                             2092.56  2140.63  2158.26  2168.50  2633.55
                             2683.94  4286.59  4346.21  4356.77  4362.64
                             4391.83  4427.79  4461.64  4461.88  4470.21
                             4481.20

 Zero-point correction=                           0.157361 (Hartree/Particle)
 Thermal correction to Energy=                    0.166562
 Thermal correction to Enthalpy=                  0.167506
 Thermal correction to Gibbs Free Energy=         0.122089
 Sum of electronic and zero-point Energies=           -423.085335
 Sum of electronic and thermal Energies=              -423.076134
 Sum of electronic and thermal Enthalpies=            -423.075189
 Sum of electronic and thermal Free Energies=         -423.120607

                     E (Thermal)             CV                S
                      KCal/Mol        Cal/Mol-Kelvin    Cal/Mol-Kelvin
 Total                  104.519             33.431             95.589
 Electronic               0.000              0.000              0.000
 Translational            0.889              2.981             40.409
 Rotational               0.889              2.981             29.239
 Vibrational            102.742             27.469             25.941
 Vibration     1          0.594              1.982              5.459
 Vibration     2          0.598              1.967              4.102
 Vibration     3          0.601              1.957              3.700
 Vibration     4          0.624              1.882              2.462
 Vibration     5          0.651              1.798              1.894
 Vibration     6          0.700              1.653              1.359
 Vibration     7          0.726              1.580              1.176
 Vibration     8          0.775              1.447              0.925
 Vibration     9          0.795              1.394              0.843
 Vibration    10          0.860              1.240              0.646
 Vibration    11          0.899              1.153              0.557
 Vibration    12          0.943              1.062              0.474
 Vibration    13          0.959              1.030              0.448

 Normal termination of Gaussian 09 at Tue Jan 28 14:13:24 2020.
