 Gaussian 09, Revision D.01,
 Gaussian 09:  ES64L-G09RevD.01 24-Apr-2013

 -----------------------------
 # b3lyp 6-31G(2df,p) opt Freq
 -----------------------------

 -----
 titel
 -----
 Symbolic Z-matrix:
 Charge =  0 Multiplicity = 1

 SCF Done:  E(RB3LYP) =  -423.156253585     A.U. after   13 cycles
 Optimization completed.
    -- Stationary point found.
 Normal termination of Gaussian 09 at Mon Jan 27 18:21:58 2020.

 ----------------------------------------------------------------------
 #N Geom=AllCheck Guess=TCheck SCRF=Check GenChk RB3LYP/6-31G(2df,p) Fr
 eq
 ----------------------------------------------------------------------

 Structure from the checkpoint file:  "/scratch/puck/g09_2a7fc0ca-fd3f-4252-91cb-927a022775ba/Gau-181986.chk"
 -----
 titel
 -----
 Charge =  0 Multiplicity = 1

                         Standard orientation:
 ---------------------------------------------------------------------
 Center     Atomic      Atomic             Coordinates (Angstroms)
 Number     Number       Type             X           Y           Z
 ---------------------------------------------------------------------
      1          6           0        2.362407   -0.797677   -0.278749
      2          6           0        0.918952   -0.500842    0.003341
      3          6           0        0.088788   -1.059941    1.164006
      4          6           0       -0.885701    0.155453    1.006901
      5          8           0       -2.009657   -0.162104    0.200416
      6          6           0       -1.493193   -0.546911   -1.082739
      7          6           0       -0.054422   -0.042405   -1.101764
      8          6           0        0.167793    0.828850    0.084823
      9          8           0        0.552693    2.148721   -0.010599
     10          1           0        2.772052   -0.101842   -1.018490
     11          1           0        2.968230   -0.713184    0.631331
     12          1           0        2.495736   -1.813832   -0.668371
     13          1           0       -0.372277   -2.047163    1.053843
     14          1           0        0.645919   -1.026007    2.106382
     15          1           0       -1.231170    0.658520    1.909852
     16          1           0       -1.566241   -1.636272   -1.208007
     17          1           0       -2.102959   -0.073332   -1.860730
     18          1           0        0.405904    0.247961   -2.039084
     19          1           0        1.012778    2.393049    0.799833
 ---------------------------------------------------------------------

 SCF Done:  E(RB3LYP) =  -423.156253585     A.U. after    1 cycles

 The electronic state is 1-A.
 Alpha  occ. eigenvalues --  -19.15497 -19.13035 -10.23202 -10.22946 -10.22284
 Alpha  occ. eigenvalues --  -10.19842 -10.18812 -10.18254 -10.18090  -1.04483
 Alpha  occ. eigenvalues --   -1.02581  -0.88247  -0.74942  -0.72556  -0.67322
 Alpha  occ. eigenvalues --   -0.60365  -0.57589  -0.55886  -0.50820  -0.47606
 Alpha  occ. eigenvalues --   -0.46203  -0.42213  -0.41970  -0.41299  -0.40483
 Alpha  occ. eigenvalues --   -0.39993  -0.38124  -0.37349  -0.35979  -0.32262
 Alpha  occ. eigenvalues --   -0.29612  -0.27747  -0.24197  -0.22759
 Alpha virt. eigenvalues --    0.06948   0.09767   0.10442   0.11856   0.12569
 Alpha virt. eigenvalues --    0.13910   0.14428   0.15172   0.16406   0.17603
 Alpha virt. eigenvalues --    0.17890   0.18843   0.19411   0.20020   0.23048

 Mulliken charges:
               1
     1  C   -0.508384
     2  C    0.245315
     3  C   -0.301236
     4  C    0.012338
     5  O   -0.264550
     6  C   -0.107783
     7  C   -0.165740
     8  C    0.328897
     9  O   -0.457440
    10  H    0.124469
    11  H    0.113872
    12  H    0.123417
    13  H    0.097003
    14  H    0.091923
    15  H    0.081466
    16  H    0.095519
    17  H    0.108381
    18  H    0.095182
    19  H    0.287351
 Sum of Mulliken charges =   0.00000

 Dipole moment (field-independent basis, Debye):
    X=              2.0750    Y=             -0.3547    Z=              0.6639  Tot=              2.2073
 Quadrupole moment (field-independent basis, Debye-Ang):
   XX=            -56.2376   YY=            -53.8842   ZZ=            -48.7932
   XY=              1.2637   XZ=              2.5678   YZ=              3.8689

  Exact polarizability:  78.241  -0.440  71.322   3.329   1.080  74.380
 Approx polarizability: 107.803  -0.677 108.326   4.799   2.317 111.122

                      1                      2                      3
                      A                      A                      A
 Frequencies --    169.6628               196.5271               219.1234
 Red. masses --      2.8657                 1.0594                 3.3859
 Frc consts  --      0.0486                 0.0241                 0.0958
 IR Inten    --      0.3618                 0.5020                 0.7593

                      4                      5                      6
                      A                      A                      A
 Frequencies --    237.6891               289.1455               327.2889
 Red. masses --      2.3214                 2.2263                 1.8434
 Frc consts  --      0.0773                 0.1097                 0.1163
 IR Inten    --      6.3365                10.9820                23.0999

                      7                      8                      9
                      A                      A                      A
 Frequencies --    345.8833               452.4918               495.8789
 Red. masses --      1.8528                 2.3261                 3.4809
 Frc consts  --      0.1306                 0.2806                 0.5043
 IR Inten    --     73.8791                 1.7601                 2.6243

                     10                     11                     12
                      A                      A                      A
 Frequencies --    579.0453               636.5466               687.1788
 Red. masses --      3.4815                 4.1468                 3.8335
 Frc consts  --      0.6878                 0.9900                 1.0666
 IR Inten    --      7.7578                 5.4866                 2.9401

                     13                     14                     15
                      A                      A                      A
 Frequencies --    747.6407               798.5527               840.7378
 Red. masses --      3.8860                 4.9149                 2.5126
 Frc consts  --      1.2798                 1.8466                 1.0464
 IR Inten    --      5.1001                17.4241                 4.9166

                     16                     17                     18
                      A                      A                      A
 Frequencies --    904.2105               921.6771               930.7048
 Red. masses --      3.7649                 1.8067                 2.0873
 Frc consts  --      1.8136                 0.9043                 1.0653
 IR Inten    --      6.5011                 4.9101                 2.3536

                     19                     20                     21
                      A                      A                      A
 Frequencies --    957.2591               989.5736              1018.2136
 Red. masses --      2.1768                 1.6919                 1.6596
 Frc consts  --      1.1752                 0.9761                 1.0137
 IR Inten    --     20.6157                 4.9088                 7.2025

                     22                     23                     24
                      A                      A                      A
 Frequencies --   1035.6726              1081.3395              1117.7402
 Red. masses --      2.4629                 1.9369                 2.2241
 Frc consts  --      1.5565                 1.3344                 1.6372
 IR Inten    --     34.5857                 1.0741                45.1912

                     25                     26                     27
                      A                      A                      A
 Frequencies --   1123.7680              1156.8688              1170.3946
 Red. masses --      2.3583                 1.5544                 1.5337
 Frc consts  --      1.7547                 1.2257                 1.2378
 IR Inten    --     13.2786                13.1665                15.6749

                     28                     29                     30
                      A                      A                      A
 Frequencies --   1214.8165              1226.0119              1231.9638
 Red. masses --      1.2807                 1.7741                 2.1778
 Frc consts  --      1.1135                 1.5711                 1.9474
 IR Inten    --      2.9069                15.1020                 5.1387

                     31                     32                     33
                      A                      A                      A
 Frequencies --   1258.3101              1300.8186              1325.6860
 Red. masses --      1.7270                 1.6463                 1.4736
 Frc consts  --      1.6111                 1.6413                 1.5259
 IR Inten    --     12.9624               116.5478                21.7793

                     34                     35                     36
                      A                      A                      A
 Frequencies --   1363.2397              1375.6412              1416.4621
 Red. masses --      2.0282                 1.4995                 1.3573
 Frc consts  --      2.2208                 1.6719                 1.6045
 IR Inten    --      3.6847                18.5609                 0.9084

                     37                     38                     39
                      A                      A                      A
 Frequencies --   1471.4242              1487.0068              1494.6857
 Red. masses --      1.6072                 1.0553                 1.1286
 Frc consts  --      2.0502                 1.3749                 1.4856
 IR Inten    --      9.3267                 6.5248                 2.3746

                     40                     41                     42
                      A                      A                      A
 Frequencies --   1510.6696              1527.5375              3001.1799
 Red. masses --      1.6333                 1.1234                 1.0651
 Frc consts  --      2.1961                 1.5445                 5.6522
 IR Inten    --     23.6717                 4.6570                66.3825

                     43                     44                     45
                      A                      A                      A
 Frequencies --   3019.5109              3034.7251              3053.0436
 Red. masses --      1.0359                 1.0566                 1.0992
 Frc consts  --      5.5647                 5.7334                 6.0365
 IR Inten    --     38.0601                42.5870                46.7458

                     46                     47                     48
                      A                      A                      A
 Frequencies --   3076.8076              3085.1645              3094.5309
 Red. masses --      1.1007                 1.1082                 1.1000
 Frc consts  --      6.1393                 6.2149                 6.2065
 IR Inten    --     21.0223                29.4794                18.8240

                     49                     50                     51
                      A                      A                      A
 Frequencies --   3123.8929              3189.5544              3796.2868
 Red. masses --      1.0906                 1.0903                 1.0661
 Frc consts  --      6.2705                 6.5354                 9.0527
 IR Inten    --     35.1337                 5.6781                22.3012

 - Thermochemistry -
 -------------------
 Temperature   298.150 Kelvin.  Pressure   1.00000 Atm.
 Atom     1 has atomic number  6 and mass  12.00000

 Molecular mass:   126.06808 amu.
 Principal axes and moments of inertia in atomic units:
                           1         2         3
     Eigenvalues --   743.110581056.570901230.99166
           X            0.99949  -0.02936   0.01239
           Y            0.02903   0.99923   0.02646
           Z           -0.01316  -0.02608   0.99957
 This molecule is an asymmetric top.
 Rotational symmetry number  1.
 Warning -- assumption of classical behavior for rotation
           may cause significant error
 Rotational temperatures (Kelvin)      0.11656     0.08198     0.07036
 Rotational constants (GHZ):           2.42863     1.70811     1.46609
 Zero-point vibrational energy     419349.6 (Joules/Mol)
                                  100.22697 (Kcal/Mol)
 Warning -- explicit consideration of  10 degrees of freedom as
           vibrations may cause significant error
 Vibrational temperatures:    244.11   282.76   315.27   341.98   416.02
          (Kelvin)            470.90   497.65   651.03   713.46   833.12
                              915.85   988.70  1075.69  1148.94  1209.63
                             1300.96  1326.09  1339.07  1377.28  1423.77
                             1464.98  1490.10  1555.80  1608.18  1616.85
                             1664.47  1683.93  1747.85  1763.96  1772.52
                             1810.43  1871.59  1907.36  1961.40  1979.24
                             2037.97  2117.05  2139.47  2150.52  2173.51
                             2197.78  4318.02  4344.40  4366.29  4392.64
                             4426.83  4438.86  4452.33  4494.58  4589.05
                             5462.00

 Zero-point correction=                           0.159722 (Hartree/Particle)
 Thermal correction to Energy=                    0.167653
 Thermal correction to Enthalpy=                  0.168597
 Thermal correction to Gibbs Free Energy=         0.127855
 Sum of electronic and zero-point Energies=           -422.996532
 Sum of electronic and thermal Energies=              -422.988601
 Sum of electronic and thermal Enthalpies=            -422.987656
 Sum of electronic and thermal Free Energies=         -423.028399

                     E (Thermal)             CV                S
                      KCal/Mol        Cal/Mol-Kelvin    Cal/Mol-Kelvin
 Total                  105.204             31.615             85.750
 Electronic               0.000              0.000              0.000
 Translational            0.889              2.981             40.409
 Rotational               0.889              2.981             28.360
 Vibrational            103.426             25.653             16.981
 Vibration     1          0.625              1.880              2.439
 Vibration     2          0.636              1.845              2.165
 Vibration     3          0.647              1.812              1.966
 Vibration     4          0.656              1.783              1.820
 Vibration     5          0.686              1.694              1.479
 Vibration     6          0.711              1.621              1.273
 Vibration     7          0.724              1.584              1.185
 Vibration     8          0.811              1.355              0.788
 Vibration     9          0.851              1.259              0.669
 Vibration    10          0.936              1.077              0.487

 Normal termination of Gaussian 09 at Mon Jan 27 19:07:17 2020.
