 Gaussian 09, Revision D.01,
 Gaussian 09:  ES64L-G09RevD.01 24-Apr-2013

 -----------------------------
 # b3lyp 6-31G(2df,p) opt Freq
 -----------------------------

 -----
 titel
 -----
 Symbolic Z-matrix:
 Charge =  0 Multiplicity = 1

 SCF Done:  E(RB3LYP) =  -423.122083694     A.U. after   13 cycles
 Optimization completed.
    -- Stationary point found.
 Normal termination of Gaussian 09 at Mon Jan 27 16:24:43 2020.

 ----------------------------------------------------------------------
 #N Geom=AllCheck Guess=TCheck SCRF=Check GenChk RB3LYP/6-31G(2df,p) Fr
 eq
 ----------------------------------------------------------------------

 Structure from the checkpoint file:  "/scratch/puck/g09_9970d25a-3eb1-45b1-9195-496d0ab6d4e2/Gau-37039.chk"
 -----
 titel
 -----
 Charge =  0 Multiplicity = 1

                         Standard orientation:
 ---------------------------------------------------------------------
 Center     Atomic      Atomic             Coordinates (Angstroms)
 Number     Number       Type             X           Y           Z
 ---------------------------------------------------------------------
      1          8           0       -1.150556   -1.534962   -0.568577
      2          6           0       -1.024353   -0.225643   -0.082679
      3          6           0       -2.076772    0.728520   -0.550461
      4          6           0       -2.079760    0.265221    0.890133
      5          6           0        0.383682    0.184844    0.103031
      6          6           0        1.002445    1.542047    0.147393
      7          6           0        1.546804    0.501384   -0.817351
      8          6           0        2.301816   -0.557539   -0.030670
      9          8           0        1.178211   -0.743341    0.877873
     10          1           0       -0.590702   -2.077753    0.001113
     11          1           0       -1.805024    1.754718   -0.769125
     12          1           0       -2.822390    0.304154   -1.212790
     13          1           0       -1.785027    0.969723    1.659636
     14          1           0       -2.834140   -0.456432    1.180484
     15          1           0        0.444060    2.341026   -0.329581
     16          1           0        1.572805    1.837314    1.024518
     17          1           0        1.571031    0.646660   -1.888276
     18          1           0        2.494104   -1.475442   -0.596560
     19          1           0        3.210879   -0.250550    0.499823
 ---------------------------------------------------------------------

 SCF Done:  E(RB3LYP) =  -423.122083694     A.U. after    1 cycles

 The electronic state is 1-A.
 Alpha  occ. eigenvalues --  -19.14156 -19.13494 -10.24414 -10.24175 -10.23716
 Alpha  occ. eigenvalues --  -10.19753 -10.19449 -10.18770 -10.18235  -1.05520
 Alpha  occ. eigenvalues --   -1.02036  -0.85258  -0.82818  -0.70796  -0.63325
 Alpha  occ. eigenvalues --   -0.60608  -0.58692  -0.54927  -0.52840  -0.48864
 Alpha  occ. eigenvalues --   -0.48290  -0.45889  -0.44895  -0.41815  -0.39349
 Alpha  occ. eigenvalues --   -0.38875  -0.36548  -0.35716  -0.33637  -0.31758
 Alpha  occ. eigenvalues --   -0.29581  -0.28387  -0.24615  -0.23708
 Alpha virt. eigenvalues --    0.07268   0.08636   0.10606   0.11323   0.11739
 Alpha virt. eigenvalues --    0.12437   0.13419   0.14783   0.15357   0.16442
 Alpha virt. eigenvalues --    0.17784   0.19450   0.20411   0.20899   0.23332

 Mulliken charges:
               1
     1  O   -0.469910
     2  C    0.305770
     3  C   -0.319298
     4  C   -0.316343
     5  C    0.447117
     6  C   -0.351383
     7  C   -0.190768
     8  C   -0.091079
     9  O   -0.342970
    10  H    0.287254
    11  H    0.114008
    12  H    0.129048
    13  H    0.117132
    14  H    0.120238
    15  H    0.120865
    16  H    0.114757
    17  H    0.107905
    18  H    0.112374
    19  H    0.105284
 Sum of Mulliken charges =   0.00000

 Dipole moment (field-independent basis, Debye):
    X=              0.9007    Y=              1.1357    Z=             -0.3515  Tot=              1.4915
 Quadrupole moment (field-independent basis, Debye-Ang):
   XX=            -51.2123   YY=            -51.4598   ZZ=            -54.4947
   XY=             -1.5977   XZ=             -2.2460   YZ=             -0.8806

  Exact polarizability:  87.440  -3.691  73.649  -1.461   0.580  65.521
 Approx polarizability: 113.626  -4.438 110.513  -2.774  -0.580 103.286

                      1                      2                      3
                      A                      A                      A
 Frequencies --     69.3867               148.6487               190.6679
 Red. masses --      3.8993                 3.2472                 3.1911
 Frc consts  --      0.0111                 0.0423                 0.0684
 IR Inten    --      1.8675                 1.3989                 5.2272

                      4                      5                      6
                      A                      A                      A
 Frequencies --    289.6305               311.2378               347.3622
 Red. masses --      3.0634                 2.3874                 2.3279
 Frc consts  --      0.1514                 0.1363                 0.1655
 IR Inten    --      3.7147                24.4610                 0.8021

                      7                      8                      9
                      A                      A                      A
 Frequencies --    420.3832               430.8176               484.1357
 Red. masses --      1.5836                 1.6362                 3.7538
 Frc consts  --      0.1649                 0.1789                 0.5184
 IR Inten    --     25.4997                57.2682                34.9533

                     10                     11                     12
                      A                      A                      A
 Frequencies --    515.0599               582.6880               750.6129
 Red. masses --      3.2521                 3.4717                 2.7397
 Frc consts  --      0.5083                 0.6945                 0.9095
 IR Inten    --      4.1676                 5.6094                 1.7329

                     13                     14                     15
                      A                      A                      A
 Frequencies --    771.0887               816.8024               857.2132
 Red. masses --      1.1025                 2.0311                 2.4655
 Frc consts  --      0.3862                 0.7984                 1.0674
 IR Inten    --      0.3587                 2.2947                22.8271

                     16                     17                     18
                      A                      A                      A
 Frequencies --    887.4398               915.8789               933.4318
 Red. masses --      1.8860                 1.6480                 2.2934
 Frc consts  --      0.8751                 0.8145                 1.1773
 IR Inten    --     13.3184                 4.5350                13.8175

                     19                     20                     21
                      A                      A                      A
 Frequencies --    952.7327               971.4940               984.0568
 Red. masses --      1.9505                 4.4791                 2.2040
 Frc consts  --      1.0431                 2.4907                 1.2575
 IR Inten    --     11.3712                78.8437                 5.1476

                     22                     23                     24
                      A                      A                      A
 Frequencies --    996.0418              1007.7308              1023.6071
 Red. masses --      2.6828                 1.6498                 1.7960
 Frc consts  --      1.5682                 0.9871                 1.1087
 IR Inten    --     10.9049                 2.2242                 7.5366

                     25                     26                     27
                      A                      A                      A
 Frequencies --   1048.9247              1077.9836              1081.8268
 Red. masses --      1.4589                 1.5201                 1.4485
 Frc consts  --      0.9457                 1.0408                 0.9988
 IR Inten    --     16.8341                 4.4434                 1.5510

                     28                     29                     30
                      A                      A                      A
 Frequencies --   1127.4423              1139.0011              1168.1255
 Red. masses --      1.7894                 2.6366                 1.2114
 Frc consts  --      1.3401                 2.0153                 0.9739
 IR Inten    --      6.0390                47.4119                 4.6455

                     31                     32                     33
                      A                      A                      A
 Frequencies --   1190.0475              1211.2323              1262.4148
 Red. masses --      1.2964                 1.8997                 2.3197
 Frc consts  --      1.0818                 1.6421                 2.1781
 IR Inten    --      0.6781                 2.7775               122.9049

                     34                     35                     36
                      A                      A                      A
 Frequencies --   1297.4123              1341.4439              1381.5631
 Red. masses --      2.0634                 1.4533                 1.6407
 Frc consts  --      2.0464                 1.5408                 1.8451
 IR Inten    --      3.6423                 4.9581                27.0505

                     37                     38                     39
                      A                      A                      A
 Frequencies --   1437.6840              1452.0468              1487.5411
 Red. masses --      1.3155                 1.1343                 1.5843
 Frc consts  --      1.6021                 1.4090                 2.0655
 IR Inten    --     21.1561                 8.4421                10.7516

                     40                     41                     42
                      A                      A                      A
 Frequencies --   1509.5171              1521.5185              3026.3390
 Red. masses --      1.5376                 1.5359                 1.0551
 Frc consts  --      2.0642                 2.0950                 5.6937
 IR Inten    --      0.6509                 0.3946                81.3130

                     43                     44                     45
                      A                      A                      A
 Frequencies --   3076.5005              3112.7824              3139.3171
 Red. masses --      1.1111                 1.0554                 1.0506
 Frc consts  --      6.1961                 6.0252                 6.1005
 IR Inten    --     32.6938                10.5378                11.8942

                     46                     47                     48
                      A                      A                      A
 Frequencies --   3142.6880              3205.4648              3214.2776
 Red. masses --      1.0575                 1.1099                 1.0988
 Frc consts  --      6.1538                 6.7190                 6.6884
 IR Inten    --      5.4803                 4.4774                10.2993

                     49                     50                     51
                      A                      A                      A
 Frequencies --   3225.0167              3239.1126              3776.1877
 Red. masses --      1.1185                 1.1163                 1.0652
 Frc consts  --      6.8540                 6.9007                 8.9494
 IR Inten    --      0.4098                 9.5721                33.1632

 - Thermochemistry -
 -------------------
 Temperature   298.150 Kelvin.  Pressure   1.00000 Atm.
 Atom     1 has atomic number  8 and mass  15.99491

 Molecular mass:   126.06808 amu.
 Principal axes and moments of inertia in atomic units:
                           1         2         3
     Eigenvalues --   574.753991290.439091502.82077
           X            0.99984  -0.01379  -0.01097
           Y            0.01379   0.99990   0.00023
           Z            0.01096  -0.00039   0.99994
 This molecule is an asymmetric top.
 Rotational symmetry number  1.
 Warning -- assumption of classical behavior for rotation
           may cause significant error
 Rotational temperatures (Kelvin)      0.15070     0.06712     0.05763
 Rotational constants (GHZ):           3.14002     1.39855     1.20090
 Zero-point vibrational energy     416010.7 (Joules/Mol)
                                   99.42895 (Kcal/Mol)
 Warning -- explicit consideration of  11 degrees of freedom as
           vibrations may cause significant error
 Vibrational temperatures:     99.83   213.87   274.33   416.71   447.80
          (Kelvin)            499.78   604.84   619.85   696.56   741.06
                              838.36  1079.96  1109.42  1175.19  1233.34
                             1276.83  1317.74  1343.00  1370.77  1397.76
                             1415.84  1433.08  1449.90  1472.74  1509.17
                             1550.98  1556.51  1622.14  1638.77  1680.67
                             1712.21  1742.69  1816.33  1866.68  1930.04
                             1987.76  2068.50  2089.17  2140.24  2171.86
                             2189.12  4354.22  4426.39  4478.59  4516.77
                             4521.62  4611.94  4624.62  4640.07  4660.35
                             5433.09

 Zero-point correction=                           0.158450 (Hartree/Particle)
 Thermal correction to Energy=                    0.166646
 Thermal correction to Enthalpy=                  0.167590
 Thermal correction to Gibbs Free Energy=         0.125780
 Sum of electronic and zero-point Energies=           -422.963634
 Sum of electronic and thermal Energies=              -422.955438
 Sum of electronic and thermal Enthalpies=            -422.954494
 Sum of electronic and thermal Free Energies=         -422.996304

                     E (Thermal)             CV                S
                      KCal/Mol        Cal/Mol-Kelvin    Cal/Mol-Kelvin
 Total                  104.572             32.448             87.998
 Electronic               0.000              0.000              0.000
 Translational            0.889              2.981             40.409
 Rotational               0.889              2.981             28.501
 Vibrational            102.794             26.486             19.088
 Vibration     1          0.598              1.969              4.171
 Vibration     2          0.618              1.904              2.689
 Vibration     3          0.634              1.853              2.221
 Vibration     4          0.686              1.693              1.476
 Vibration     5          0.700              1.652              1.356
 Vibration     6          0.725              1.581              1.178
 Vibration     7          0.783              1.426              0.891
 Vibration     8          0.792              1.403              0.856
 Vibration     9          0.840              1.285              0.699
 Vibration    10          0.870              1.217              0.622
 Vibration    11          0.940              1.069              0.480

 Optimization completed.
    -- Stationary point found.
 Normal termination of Gaussian 09 at Mon Jan 27 17:19:31 2020.
