 Gaussian 09, Revision D.01,
 Gaussian 09:  ES64L-G09RevD.01 24-Apr-2013

 -----------------------------
 # b3lyp 6-31G(2df,p) opt Freq
 -----------------------------

 -----
 titel
 -----
 Symbolic Z-matrix:
 Charge =  0 Multiplicity = 1

 SCF Done:  E(RB3LYP) =  -423.191205306     A.U. after   14 cycles
 Optimization completed.
    -- Stationary point found.
 Normal termination of Gaussian 09 at Tue Jan 28 13:27:09 2020.

 ----------------------------------------------------------------------
 #N Geom=AllCheck Guess=TCheck SCRF=Check GenChk RB3LYP/6-31G(2df,p) Fr
 eq
 ----------------------------------------------------------------------

 Structure from the checkpoint file:  "/scratch/puck/g09_b5a00087-2538-49c9-b3ec-b5eda177ddd7/Gau-30993.chk"
 -----
 titel
 -----
 Charge =  0 Multiplicity = 1

                         Standard orientation:
 ---------------------------------------------------------------------
 Center     Atomic      Atomic             Coordinates (Angstroms)
 Number     Number       Type             X           Y           Z
 ---------------------------------------------------------------------
      1          6           0        2.709681   -1.162469   -0.125591
      2          8           0        1.686508   -0.341176   -0.643406
      3          6           0        1.167397    0.597247    0.296375
      4          6           0        0.080706   -0.006010    1.223970
      5          6           0       -1.277292    0.330856    0.553374
      6          6           0       -1.782346   -0.820449   -0.310664
      7          8           0       -2.915537   -1.224008   -0.324854
      8          6           0       -0.913366    1.499628   -0.341005
      9          6           0        0.403449    1.643775   -0.477464
     10          1           0        2.362113   -1.795809    0.704769
     11          1           0        3.045656   -1.810042   -0.938943
     12          1           0        3.564406   -0.567665    0.232262
     13          1           0        2.005504    1.018825    0.872099
     14          1           0        0.232470   -1.078383    1.378668
     15          1           0        0.117497    0.474962    2.205499
     16          1           0       -2.065435    0.572826    1.272087
     17          1           0       -0.990607   -1.261543   -0.957264
     18          1           0       -1.670735    2.097906   -0.834764
     19          1           0        0.901986    2.374920   -1.102310
 ---------------------------------------------------------------------

 SCF Done:  E(RB3LYP) =  -423.191205306     A.U. after    1 cycles

 The electronic state is 1-A.
 Alpha  occ. eigenvalues --  -19.14595 -19.13587 -10.26546 -10.24272 -10.22940
 Alpha  occ. eigenvalues --  -10.20109 -10.19911 -10.19477 -10.19143  -1.04281
 Alpha  occ. eigenvalues --   -1.03677  -0.85605  -0.74097  -0.72398  -0.67698
 Alpha  occ. eigenvalues --   -0.60674  -0.56929  -0.54668  -0.52117  -0.49632
 Alpha  occ. eigenvalues --   -0.45964  -0.45008  -0.44187  -0.43872  -0.40545
 Alpha  occ. eigenvalues --   -0.39119  -0.37512  -0.37198  -0.35987  -0.34514
 Alpha  occ. eigenvalues --   -0.31951  -0.27925  -0.26052  -0.24033
 Alpha virt. eigenvalues --   -0.02884   0.01799   0.08252   0.10529   0.12273
 Alpha virt. eigenvalues --    0.13386   0.14058   0.14448   0.16164   0.16451
 Alpha virt. eigenvalues --    0.16629   0.17372   0.18345   0.20070   0.20623

 Mulliken charges:
               1
     1  C   -0.238273
     2  O   -0.250027
     3  C    0.095913
     4  C   -0.274806
     5  C   -0.115771
     6  C    0.153020
     7  O   -0.251903
     8  C   -0.083703
     9  C   -0.079599
    10  H    0.105905
    11  H    0.131267
    12  H    0.106550
    13  H    0.067477
    14  H    0.111855
    15  H    0.114271
    16  H    0.093256
    17  H    0.093623
    18  H    0.113631
    19  H    0.107313
 Sum of Mulliken charges =   0.00000

 Dipole moment (field-independent basis, Debye):
    X=              2.7893    Y=              1.3075    Z=              1.3117  Tot=              3.3482
 Quadrupole moment (field-independent basis, Debye-Ang):
   XX=            -59.2381   YY=            -52.2187   ZZ=            -52.9793
   XY=             -6.1291   XZ=              0.2987   YZ=             -1.4989

  Exact polarizability:  99.175   0.980  74.093  -1.097  -1.572  62.828
 Approx polarizability: 146.240   8.295 106.211  -2.864  -1.615  95.100

                      1                      2                      3
                      A                      A                      A
 Frequencies --     52.3496                81.0315               118.5762
 Red. masses --      4.7811                 3.9540                 2.2217
 Frc consts  --      0.0077                 0.0153                 0.0184
 IR Inten    --      0.5857                 3.6254                 4.0685

                      4                      5                      6
                      A                      A                      A
 Frequencies --    170.2415               188.9669               305.9525
 Red. masses --      3.1992                 1.2667                 3.0182
 Frc consts  --      0.0546                 0.0266                 0.1665
 IR Inten    --      2.3501                 1.3113                 1.4424

                      7                      8                      9
                      A                      A                      A
 Frequencies --    316.0512               362.6883               434.4894
 Red. masses --      2.1576                 2.4891                 2.8657
 Frc consts  --      0.1270                 0.1929                 0.3187
 IR Inten    --      3.6338                 1.8304                 2.5879

                     10                     11                     12
                      A                      A                      A
 Frequencies --    460.4621               528.4469               751.1747
 Red. masses --      5.1627                 3.2152                 1.8048
 Frc consts  --      0.6449                 0.5290                 0.6000
 IR Inten    --      7.3732                 8.0582                22.9345

                     13                     14                     15
                      A                      A                      A
 Frequencies --    769.5573               793.2413               824.8838
 Red. masses --      3.4653                 4.0113                 2.0436
 Frc consts  --      1.2091                 1.4871                 0.8193
 IR Inten    --      4.8429                 0.8121                11.1736

                     16                     17                     18
                      A                      A                      A
 Frequencies --    911.2624               953.3602               960.3814
 Red. masses --      2.1713                 2.7908                 2.6351
 Frc consts  --      1.0623                 1.4945                 1.4320
 IR Inten    --      2.2744                14.7311                52.9666

                     19                     20                     21
                      A                      A                      A
 Frequencies --    982.1557               984.3853              1039.1861
 Red. masses --      1.9116                 1.5816                 2.0519
 Frc consts  --      1.0864                 0.9030                 1.3055
 IR Inten    --      1.5648                 1.5061                 8.7615

                     22                     23                     24
                      A                      A                      A
 Frequencies --   1081.5446              1086.9498              1126.0332
 Red. masses --      1.8678                 2.8334                 2.3459
 Frc consts  --      1.2873                 1.9723                 1.7525
 IR Inten    --      0.2726                 9.3634               101.5164

                     25                     26                     27
                      A                      A                      A
 Frequencies --   1137.3720              1180.3030              1202.8336
 Red. masses --      1.5133                 1.2971                 1.2722
 Frc consts  --      1.1534                 1.0646                 1.0844
 IR Inten    --     63.5144                 5.0565                 1.2843

                     28                     29                     30
                      A                      A                      A
 Frequencies --   1225.4914              1240.5102              1276.4603
 Red. masses --      1.4507                 1.6895                 1.4497
 Frc consts  --      1.2837                 1.5318                 1.3917
 IR Inten    --     40.9846                 4.7722                 1.8985

                     31                     32                     33
                      A                      A                      A
 Frequencies --   1313.4559              1324.3103              1362.7685
 Red. masses --      1.3185                 1.5959                 1.3031
 Frc consts  --      1.3402                 1.6490                 1.4258
 IR Inten    --      0.3110                 1.3549                 7.5159

                     34                     35                     36
                      A                      A                      A
 Frequencies --   1391.4323              1415.2577              1470.2511
 Red. masses --      1.5267                 1.1732                 1.0930
 Frc consts  --      1.7416                 1.3845                 1.3921
 IR Inten    --     33.5860                 7.0839                 2.9703

                     37                     38                     39
                      A                      A                      A
 Frequencies --   1476.9112              1487.1297              1508.9969
 Red. masses --      1.1304                 1.0591                 1.0607
 Frc consts  --      1.4528                 1.3800                 1.4230
 IR Inten    --      0.5379                 5.4373                 6.4911

                     40                     41                     42
                      A                      A                      A
 Frequencies --   1677.1140              1830.2941              2887.8971
 Red. masses --      6.4531                10.1481                 1.0839
 Frc consts  --     10.6941                20.0299                 5.3259
 IR Inten    --      5.5081               230.3386                57.3766

                     43                     44                     45
                      A                      A                      A
 Frequencies --   2973.3176              2984.8783              3021.5524
 Red. masses --      1.0429                 1.0768                 1.1029
 Frc consts  --      5.4320                 5.6523                 5.9325
 IR Inten    --     35.1349                75.3870                51.0170

                     46                     47                     48
                      A                      A                      A
 Frequencies --   3057.8652              3074.9101              3102.8601
 Red. masses --      1.0622                 1.0840                 1.1044
 Frc consts  --      5.8518                 6.0387                 6.2648
 IR Inten    --     20.4872                18.6850                19.6805

                     49                     50                     51
                      A                      A                      A
 Frequencies --   3116.0614              3193.6629              3219.4585
 Red. masses --      1.0961                 1.0854                 1.1042
 Frc consts  --      6.2708                 6.5226                 6.7434
 IR Inten    --     25.5678                 3.1564                12.8250

 - Thermochemistry -
 -------------------
 Temperature   298.150 Kelvin.  Pressure   1.00000 Atm.
 Atom     1 has atomic number  6 and mass  12.00000

 Molecular mass:   126.06808 amu.
 Principal axes and moments of inertia in atomic units:
                           1         2         3
     Eigenvalues --   664.089851594.208521901.86829
           X            0.99908  -0.04267   0.00306
           Y            0.04272   0.99889  -0.01961
           Z           -0.00222   0.01973   0.99980
 This molecule is an asymmetric top.
 Rotational symmetry number  1.
 Warning -- assumption of classical behavior for rotation
           may cause significant error
 Rotational temperatures (Kelvin)      0.13042     0.05433     0.04554
 Rotational constants (GHZ):           2.71762     1.13206     0.94893
 Zero-point vibrational energy     415323.9 (Joules/Mol)
                                   99.26479 (Kcal/Mol)
 Warning -- explicit consideration of  11 degrees of freedom as
           vibrations may cause significant error
 Vibrational temperatures:     75.32   116.59   170.60   244.94   271.88
          (Kelvin)            440.20   454.73   521.83   625.13   662.50
                              760.32  1080.77  1107.22  1141.30  1186.82
                             1311.10  1371.67  1381.77  1413.10  1416.31
                             1495.16  1556.10  1563.88  1620.11  1636.42
                             1698.19  1730.61  1763.21  1784.82  1836.54
                             1889.77  1905.38  1960.72  2001.96  2036.24
                             2115.36  2124.94  2139.65  2171.11  2412.99
                             2633.38  4155.03  4277.94  4294.57  4347.33
                             4399.58  4424.10  4464.32  4483.31  4594.96
                             4632.08

 Zero-point correction=                           0.158189 (Hartree/Particle)
 Thermal correction to Energy=                    0.167231
 Thermal correction to Enthalpy=                  0.168175
 Thermal correction to Gibbs Free Energy=         0.123500
 Sum of electronic and zero-point Energies=           -423.033017
 Sum of electronic and thermal Energies=              -423.023975
 Sum of electronic and thermal Enthalpies=            -423.023031
 Sum of electronic and thermal Free Energies=         -423.067705

                     E (Thermal)             CV                S
                      KCal/Mol        Cal/Mol-Kelvin    Cal/Mol-Kelvin
 Total                  104.939             32.551             94.026
 Electronic               0.000              0.000              0.000
 Translational            0.889              2.981             40.409
 Rotational               0.889              2.981             29.089
 Vibrational            103.161             26.589             24.529
 Vibration     1          0.596              1.977              4.727
 Vibration     2          0.600              1.962              3.866
 Vibration     3          0.609              1.934              3.123
 Vibration     4          0.625              1.879              2.433
 Vibration     5          0.633              1.855              2.238
 Vibration     6          0.696              1.662              1.384
 Vibration     7          0.703              1.643              1.330
 Vibration     8          0.737              1.549              1.111
 Vibration     9          0.795              1.395              0.844
 Vibration    10          0.818              1.338              0.765
 Vibration    11          0.883              1.187              0.591

 Optimization completed.
    -- Stationary point found.
 Normal termination of Gaussian 09 at Tue Jan 28 14:08:00 2020.
