 Gaussian 09, Revision D.01,
 Gaussian 09:  ES64L-G09RevD.01 24-Apr-2013

 -----------------------------
 # b3lyp 6-31G(2df,p) opt Freq
 -----------------------------

 -----
 titel
 -----
 Symbolic Z-matrix:
 Charge =  0 Multiplicity = 1

 SCF Done:  E(RB3LYP) =  -423.156595829     A.U. after   14 cycles
 Optimization completed.
    -- Stationary point found.
 Normal termination of Gaussian 09 at Mon Jan 27 13:45:34 2020.

 ----------------------------------------------------------------------
 #N Geom=AllCheck Guess=TCheck SCRF=Check GenChk RB3LYP/6-31G(2df,p) Fr
 eq
 ----------------------------------------------------------------------

 Structure from the checkpoint file:  "/scratch/puck/g09_f81f3b30-6579-4dd8-b47b-ec56c2940bd3/Gau-157574.chk"
 -----
 titel
 -----
 Charge =  0 Multiplicity = 1

                         Standard orientation:
 ---------------------------------------------------------------------
 Center     Atomic      Atomic             Coordinates (Angstroms)
 Number     Number       Type             X           Y           Z
 ---------------------------------------------------------------------
      1          8           0       -4.048488    0.339779   -0.273752
      2          6           0       -3.018684   -0.195987    0.044998
      3          6           0       -1.758216    0.540835    0.459713
      4          6           0       -0.550389    0.057588   -0.316621
      5          8           0       -0.071020   -1.252336    0.014471
      6          6           0        0.770091   -0.124955    0.302498
      7          6           0        2.042881   -0.015579   -0.461005
      8          6           0        3.064104    1.021238   -0.052531
      9          6           0        3.341329   -0.438432    0.184939
     10          1           0       -2.921074   -1.303887    0.057203
     11          1           0       -1.916334    1.614879    0.323042
     12          1           0       -1.592372    0.340812    1.526591
     13          1           0       -0.579143    0.257767   -1.389363
     14          1           0        0.853841    0.099195    1.369039
     15          1           0        1.939813   -0.214184   -1.523373
     16          1           0        3.607243    1.534067   -0.837874
     17          1           0        2.838996    1.642839    0.808129
     18          1           0        4.077693   -0.934699   -0.436553
     19          1           0        3.300704   -0.804593    1.205471
 ---------------------------------------------------------------------

 SCF Done:  E(RB3LYP) =  -423.156595829     A.U. after    1 cycles

 The electronic state is 1-A.
 Alpha  occ. eigenvalues --  -19.15646 -19.14131 -10.27314 -10.24947 -10.24774
 Alpha  occ. eigenvalues --  -10.20378 -10.20267 -10.19757 -10.19551  -1.07715
 Alpha  occ. eigenvalues --   -1.04776  -0.86820  -0.78031  -0.69394  -0.63136
 Alpha  occ. eigenvalues --   -0.60918  -0.59120  -0.57196  -0.51509  -0.50793
 Alpha  occ. eigenvalues --   -0.47211  -0.46672  -0.44227  -0.42882  -0.41899
 Alpha  occ. eigenvalues --   -0.38614  -0.37796  -0.37376  -0.36169  -0.34279
 Alpha  occ. eigenvalues --   -0.30859  -0.28527  -0.27464  -0.24780
 Alpha virt. eigenvalues --   -0.02547   0.08466   0.09029   0.09427   0.11039
 Alpha virt. eigenvalues --    0.11732   0.12651   0.13342   0.14227   0.14907
 Alpha virt. eigenvalues --    0.16742   0.17568   0.18937   0.21527   0.21772

 Mulliken charges:
               1
     1  O   -0.237135
     2  C    0.160022
     3  C   -0.312400
     4  C    0.029702
     5  O   -0.263557
     6  C    0.067559
     7  C   -0.011575
     8  C   -0.270610
     9  C   -0.264753
    10  H    0.096665
    11  H    0.125232
    12  H    0.126032
    13  H    0.101330
    14  H    0.086547
    15  H    0.092461
    16  H    0.119974
    17  H    0.115720
    18  H    0.120367
    19  H    0.118419
 Sum of Mulliken charges =   0.00000

 Dipole moment (field-independent basis, Debye):
    X=              3.1119    Y=              0.9597    Z=              0.5902  Tot=              3.3096
 Quadrupole moment (field-independent basis, Debye-Ang):
   XX=            -64.8889   YY=            -55.6622   ZZ=            -49.8698
   XY=              2.5831   XZ=             -3.2072   YZ=              0.2274

  Exact polarizability: 104.729  -1.748  67.586   3.697  -0.504  63.159
 Approx polarizability: 128.870  -5.541 106.873   9.436  -2.105  97.012

                      1                      2                      3
                      A                      A                      A
 Frequencies --     45.6990                58.8988                90.4349
 Red. masses --      4.6923                 4.4519                 3.7690
 Frc consts  --      0.0058                 0.0091                 0.0182
 IR Inten    --      2.2672                 4.8630                 3.7006

                      4                      5                      6
                      A                      A                      A
 Frequencies --    130.0512               163.7003               248.5473
 Red. masses --      2.5325                 2.7305                 3.1836
 Frc consts  --      0.0252                 0.0431                 0.1159
 IR Inten    --      0.2853                 2.0741                 3.8960

                      7                      8                      9
                      A                      A                      A
 Frequencies --    332.9436               382.0328               415.9722
 Red. masses --      3.8268                 3.0311                 3.6482
 Frc consts  --      0.2499                 0.2606                 0.3719
 IR Inten    --      1.2912                 2.7729                10.3520

                     10                     11                     12
                      A                      A                      A
 Frequencies --    487.9088               552.1170               765.0860
 Red. masses --      2.9652                 2.3739                 1.3587
 Frc consts  --      0.4159                 0.4264                 0.4686
 IR Inten    --      6.1699                11.1628                 6.5420

                     13                     14                     15
                      A                      A                      A
 Frequencies --    796.4309               819.3150               832.1747
 Red. masses --      2.0056                 1.8363                 1.4620
 Frc consts  --      0.7495                 0.7263                 0.5965
 IR Inten    --     10.8482                 2.3848                 2.9511

                     16                     17                     18
                      A                      A                      A
 Frequencies --    877.4006               908.5294               935.6009
 Red. masses --      1.9547                 4.8215                 2.9815
 Frc consts  --      0.8866                 2.3448                 1.5377
 IR Inten    --      1.2019                30.3394                 4.4415

                     19                     20                     21
                      A                      A                      A
 Frequencies --    945.6402              1000.6894              1054.8248
 Red. masses --      2.8302                 2.0724                 1.9413
 Frc consts  --      1.4911                 1.2227                 1.2726
 IR Inten    --      4.6623                46.6738                14.1476

                     22                     23                     24
                      A                      A                      A
 Frequencies --   1065.0576              1076.3370              1084.8149
 Red. masses --      1.3997                 1.7207                 1.5267
 Frc consts  --      0.9355                 1.1745                 1.0586
 IR Inten    --      7.9488                26.2397                10.0781

                     25                     26                     27
                      A                      A                      A
 Frequencies --   1126.6901              1131.9508              1147.4575
 Red. masses --      1.1822                 1.6279                 1.4201
 Frc consts  --      0.8842                 1.2290                 1.1017
 IR Inten    --      1.4472                 7.1636                 4.6128

                     28                     29                     30
                      A                      A                      A
 Frequencies --   1198.0906              1206.7645              1225.0436
 Red. masses --      1.3774                 1.9686                 1.7755
 Frc consts  --      1.1649                 1.6891                 1.5699
 IR Inten    --      0.2931                 1.6793                 2.2337

                     31                     32                     33
                      A                      A                      A
 Frequencies --   1236.9748              1272.8143              1296.5964
 Red. masses --      1.3890                 1.5377                 1.4504
 Frc consts  --      1.2522                 1.4677                 1.4367
 IR Inten    --      4.8453                 7.2214                 0.8485

                     34                     35                     36
                      A                      A                      A
 Frequencies --   1328.0735              1405.5263              1422.8056
 Red. masses --      1.3082                 1.4805                 1.2011
 Frc consts  --      1.3595                 1.7232                 1.4326
 IR Inten    --     14.0169                15.7549                 7.0196

                     37                     38                     39
                      A                      A                      A
 Frequencies --   1445.6605              1471.4814              1496.4989
 Red. masses --      1.0957                 1.0859                 1.5450
 Frc consts  --      1.3492                 1.3853                 2.0386
 IR Inten    --      6.2718                 1.5420                 7.5116

                     40                     41                     42
                      A                      A                      A
 Frequencies --   1516.8621              1833.5816              2896.7323
 Red. masses --      2.2470                 9.9067                 1.0835
 Frc consts  --      3.0461                19.6236                 5.3568
 IR Inten    --      5.6697               200.5100                77.8940

                     43                     44                     45
                      A                      A                      A
 Frequencies --   3028.6754              3076.4071              3091.2619
 Red. masses --      1.0619                 1.0875                 1.0885
 Frc consts  --      5.7388                 6.0640                 6.1286
 IR Inten    --      4.2715                12.6703                16.2280

                     46                     47                     48
                      A                      A                      A
 Frequencies --   3105.5567              3133.8626              3138.0844
 Red. masses --      1.0974                 1.0510                 1.0585
 Frc consts  --      6.2358                 6.0816                 6.1415
 IR Inten    --     22.1782                17.2588                10.6176

                     49                     50                     51
                      A                      A                      A
 Frequencies --   3157.6459              3213.0367              3228.0498
 Red. masses --      1.0895                 1.1176                 1.1153
 Frc consts  --      6.4003                 6.7976                 6.8472
 IR Inten    --      7.5763                 0.3607                16.0558

 - Thermochemistry -
 -------------------
 Temperature   298.150 Kelvin.  Pressure   1.00000 Atm.
 Atom     1 has atomic number  8 and mass  15.99491

 Molecular mass:   126.06808 amu.
 Principal axes and moments of inertia in atomic units:
                           1         2         3
     Eigenvalues --   277.817782874.152103004.24878
           X            0.99998   0.00494  -0.00336
           Y           -0.00489   0.99987   0.01520
           Z            0.00343  -0.01519   0.99988
 This molecule is an asymmetric top.
 Rotational symmetry number  1.
 Rotational temperatures (Kelvin)      0.31176     0.03014     0.02883
 Rotational constants (GHZ):           6.49613     0.62792     0.60073
 Zero-point vibrational energy     412127.8 (Joules/Mol)
                                   98.50091 (Kcal/Mol)
 Warning -- explicit consideration of  11 degrees of freedom as
           vibrations may cause significant error
 Vibrational temperatures:     65.75    84.74   130.12   187.11   235.53
          (Kelvin)            357.60   479.03   549.66   598.49   701.99
                              794.37  1100.79  1145.89  1178.81  1197.31
                             1262.38  1307.17  1346.12  1360.56  1439.77
                             1517.66  1532.38  1548.61  1560.80  1621.05
                             1628.62  1650.93  1723.78  1736.26  1762.56
                             1779.73  1831.29  1865.51  1910.80  2022.24
                             2047.10  2079.98  2117.13  2153.13  2182.42
                             2638.11  4167.75  4357.58  4426.26  4447.63
                             4468.20  4508.92  4515.00  4543.14  4622.84
                             4644.44

 Zero-point correction=                           0.156971 (Hartree/Particle)
 Thermal correction to Energy=                    0.166290
 Thermal correction to Enthalpy=                  0.167234
 Thermal correction to Gibbs Free Energy=         0.121324
 Sum of electronic and zero-point Energies=           -422.999625
 Sum of electronic and thermal Energies=              -422.990306
 Sum of electronic and thermal Enthalpies=            -422.989362
 Sum of electronic and thermal Free Energies=         -423.035272

                     E (Thermal)             CV                S
                      KCal/Mol        Cal/Mol-Kelvin    Cal/Mol-Kelvin
 Total                  104.348             33.036             96.626
 Electronic               0.000              0.000              0.000
 Translational            0.889              2.981             40.409
 Rotational               0.889              2.981             29.263
 Vibrational            102.571             27.075             26.954
 Vibration     1          0.595              1.979              4.995
 Vibration     2          0.596              1.974              4.494
 Vibration     3          0.602              1.956              3.651
 Vibration     4          0.612              1.923              2.945
 Vibration     5          0.623              1.887              2.507
 Vibration     6          0.662              1.765              1.741
 Vibration     7          0.715              1.610              1.246
 Vibration     8          0.751              1.509              1.031
 Vibration     9          0.779              1.436              0.906
 Vibration    10          0.844              1.277              0.689
 Vibration    11          0.907              1.135              0.540

 Optimization completed.
    -- Stationary point found.
 Normal termination of Gaussian 09 at Mon Jan 27 14:19:33 2020.
