 Gaussian 09, Revision D.01,
 Gaussian 09:  ES64L-G09RevD.01 24-Apr-2013

 -----------------------------
 # b3lyp 6-31G(2df,p) opt Freq
 -----------------------------

 -----
 titel
 -----
 Symbolic Z-matrix:
 Charge =  0 Multiplicity = 1

 SCF Done:  E(RB3LYP) =  -423.148256283     A.U. after   15 cycles
 Optimization completed.
    -- Stationary point found.
 Normal termination of Gaussian 09 at Tue Jan 28 12:09:44 2020.

 ----------------------------------------------------------------------
 #N Geom=AllCheck Guess=TCheck SCRF=Check GenChk RB3LYP/6-31G(2df,p) Fr
 eq
 ----------------------------------------------------------------------

 Structure from the checkpoint file:  "/scratch/puck/g09_b30501e1-8ba8-453c-bbc8-d2c0b5c9b69b/Gau-113942.chk"
 -----
 titel
 -----
 Charge =  0 Multiplicity = 1

                         Standard orientation:
 ---------------------------------------------------------------------
 Center     Atomic      Atomic             Coordinates (Angstroms)
 Number     Number       Type             X           Y           Z
 ---------------------------------------------------------------------
      1          6           0       -0.737221    0.065377    1.805694
      2          6           0       -0.613785    0.014973    0.259013
      3          6           0        0.736429   -0.564223   -0.213128
      4          6           0        1.956245    0.262594    0.174974
      5          8           0        3.088341   -0.391379   -0.379370
      6          6           0       -1.768153   -0.883954   -0.234048
      7          8           0       -1.627558   -1.931675   -0.800632
      8          6           0       -0.872480    1.343462   -0.301668
      9          6           0       -1.131888    2.418321   -0.775110
     10          1           0       -0.051190    0.804956    2.223443
     11          1           0       -1.751070    0.347186    2.105176
     12          1           0       -0.504424   -0.914568    2.233219
     13          1           0        0.839665   -1.575893    0.190698
     14          1           0        0.719276   -0.666198   -1.301861
     15          1           0        1.852102    1.286104   -0.215395
     16          1           0        2.042895    0.334738    1.270512
     17          1           0        3.868779    0.128356   -0.166717
     18          1           0       -2.774416   -0.471290   -0.000015
     19          1           0       -1.342764    3.371748   -1.193394
 ---------------------------------------------------------------------

 SCF Done:  E(RB3LYP) =  -423.148256283     A.U. after    1 cycles

 The electronic state is 1-A.
 Alpha  occ. eigenvalues --  -19.15007 -19.13402 -10.27861 -10.23353 -10.22858
 Alpha  occ. eigenvalues --  -10.19903 -10.19362 -10.18621 -10.18620  -1.05840
 Alpha  occ. eigenvalues --   -1.01522  -0.84424  -0.74794  -0.73171  -0.67406
 Alpha  occ. eigenvalues --   -0.61654  -0.58395  -0.53131  -0.50947  -0.49753
 Alpha  occ. eigenvalues --   -0.47506  -0.45476  -0.44384  -0.42217  -0.40079
 Alpha  occ. eigenvalues --   -0.38857  -0.37931  -0.37087  -0.35119  -0.32869
 Alpha  occ. eigenvalues --   -0.29291  -0.27918  -0.26623  -0.25265
 Alpha virt. eigenvalues --   -0.03118   0.04166   0.05532   0.07727   0.08902
 Alpha virt. eigenvalues --    0.11785   0.12545   0.13580   0.13843   0.15690
 Alpha virt. eigenvalues --    0.17122   0.18068   0.19091   0.20862   0.22428

 Mulliken charges:
               1
     1  C   -0.424099
     2  C   -0.039321
     3  C   -0.184513
     4  C   -0.098811
     5  O   -0.417460
     6  C    0.154740
     7  O   -0.242687
     8  C    0.335476
     9  C   -0.496807
    10  H    0.139280
    11  H    0.129900
    12  H    0.132317
    13  H    0.119401
    14  H    0.126763
    15  H    0.098834
    16  H    0.083195
    17  H    0.286516
    18  H    0.092568
    19  H    0.204707
 Sum of Mulliken charges =   0.00000

 Dipole moment (field-independent basis, Debye):
    X=              0.4174    Y=              2.9086    Z=              2.0213  Tot=              3.5665
 Quadrupole moment (field-independent basis, Debye-Ang):
   XX=            -49.4355   YY=            -55.3208   ZZ=            -53.2974
   XY=              0.3335   XZ=              0.5631   YZ=             -4.7205

  Exact polarizability:  79.858  -3.808  88.167   1.156  -4.585  66.877
 Approx polarizability: 102.484  -8.864 144.617   2.627  -7.098 100.716

                      1                      2                      3
                      A                      A                      A
 Frequencies --     68.3005                78.4332                91.2206
 Red. masses --      3.0956                 3.6188                 2.9734
 Frc consts  --      0.0085                 0.0131                 0.0146
 IR Inten    --      0.3065                 9.4326                 2.1045

                      4                      5                      6
                      A                      A                      A
 Frequencies --    137.3419               174.0777               183.6265
 Red. masses --      4.6039                 2.9284                 3.4365
 Frc consts  --      0.0512                 0.0523                 0.0683
 IR Inten    --      0.4555                 1.5720                 1.2232

                      7                      8                      9
                      A                      A                      A
 Frequencies --    243.4401               256.9561               285.7832
 Red. masses --      1.0596                 1.0983                 3.2900
 Frc consts  --      0.0370                 0.0427                 0.1583
 IR Inten    --      9.4203                91.2470                 4.1919

                     10                     11                     12
                      A                      A                      A
 Frequencies --    340.4376               361.7741               402.1454
 Red. masses --      3.2030                 2.3253                 4.5152
 Frc consts  --      0.2187                 0.1793                 0.4302
 IR Inten    --     12.3554                 1.2872                 3.9257

                     13                     14                     15
                      A                      A                      A
 Frequencies --    498.5092               560.5456               615.0467
 Red. masses --      6.6780                 4.7419                 4.4125
 Frc consts  --      0.9778                 0.8779                 0.9834
 IR Inten    --      2.9175                11.5988                 8.4018

                     16                     17                     18
                      A                      A                      A
 Frequencies --    628.9599               651.7551               760.6656
 Red. masses --      1.2502                 1.2362                 3.5617
 Frc consts  --      0.2914                 0.3094                 1.2142
 IR Inten    --     46.5377                50.9037                 5.5931

                     19                     20                     21
                      A                      A                      A
 Frequencies --    794.4159               901.2606               937.0816
 Red. masses --      1.2024                 1.9413                 2.2713
 Frc consts  --      0.4471                 0.9291                 1.1751
 IR Inten    --      0.4738                23.0061                 1.9201

                     22                     23                     24
                      A                      A                      A
 Frequencies --    990.0868              1027.4363              1043.5394
 Red. masses --      1.5936                 2.3043                 1.9699
 Frc consts  --      0.9204                 1.4331                 1.2639
 IR Inten    --     14.5609                10.5698                16.5661

                     25                     26                     27
                      A                      A                      A
 Frequencies --   1075.0228              1144.1807              1178.8951
 Red. masses --      4.5760                 2.5186                 2.2026
 Frc consts  --      3.1158                 1.9427                 1.8036
 IR Inten    --     70.2377                 2.4160                 5.6336

                     28                     29                     30
                      A                      A                      A
 Frequencies --   1214.5194              1254.0551              1262.8162
 Red. masses --      2.2212                 1.2703                 1.4919
 Frc consts  --      1.9304                 1.1770                 1.4017
 IR Inten    --      7.6601                40.7402                 3.0780

                     31                     32                     33
                      A                      A                      A
 Frequencies --   1319.1921              1344.4355              1398.9129
 Red. masses --      1.1305                 1.4411                 1.1871
 Frc consts  --      1.1591                 1.5347                 1.3687
 IR Inten    --      0.3619                14.1077                 4.1798

                     34                     35                     36
                      A                      A                      A
 Frequencies --   1417.4115              1464.7890              1479.7105
 Red. masses --      1.1889                 1.4410                 1.0810
 Frc consts  --      1.4072                 1.8216                 1.3945
 IR Inten    --      6.6204                 5.2751                 1.0771

                     37                     38                     39
                      A                      A                      A
 Frequencies --   1492.0251              1501.0573              1530.6154
 Red. masses --      1.0589                 1.0577                 1.0840
 Frc consts  --      1.3888                 1.4041                 1.4963
 IR Inten    --      4.9370                 6.3388                 2.7716

                     40                     41                     42
                      A                      A                      A
 Frequencies --   1840.2131              2225.0625              2889.6260
 Red. masses --     10.8805                 5.9378                 1.0847
 Frc consts  --     21.7088                17.3204                 5.3363
 IR Inten    --    176.3744                 0.3103                92.6325

                     43                     44                     45
                      A                      A                      A
 Frequencies --   2973.2232              3006.9324              3042.7253
 Red. masses --      1.0577                 1.1022                 1.0347
 Frc consts  --      5.5088                 5.8714                 5.6439
 IR Inten    --     50.1800                41.2806                18.5487

                     46                     47                     48
                      A                      A                      A
 Frequencies --   3063.9016              3109.3369              3115.7106
 Red. masses --      1.0594                 1.1039                 1.1025
 Frc consts  --      5.8595                 6.2880                 6.3059
 IR Inten    --     11.1780                15.1440                19.8295

                     49                     50                     51
                      A                      A                      A
 Frequencies --   3132.0397              3499.3630              3831.4006
 Red. masses --      1.1016                 1.1614                 1.0664
 Frc consts  --      6.3668                 8.3791                 9.2233
 IR Inten    --     11.6201                71.0782                21.9901

 - Thermochemistry -
 -------------------
 Temperature   298.150 Kelvin.  Pressure   1.00000 Atm.
 Atom     1 has atomic number  6 and mass  12.00000

 Molecular mass:   126.06808 amu.
 Principal axes and moments of inertia in atomic units:
                           1         2         3
     Eigenvalues --   955.306911566.684441940.49715
           X            0.99992  -0.00950  -0.00859
           Y            0.00928   0.99962  -0.02582
           Z            0.00883   0.02573   0.99963
 This molecule is an asymmetric top.
 Rotational symmetry number  1.
 Warning -- assumption of classical behavior for rotation
           may cause significant error
 Rotational temperatures (Kelvin)      0.09067     0.05528     0.04463
 Rotational constants (GHZ):           1.88917     1.15195     0.93004
 Zero-point vibrational energy     405773.4 (Joules/Mol)
                                   96.98217 (Kcal/Mol)
 Warning -- explicit consideration of  15 degrees of freedom as
           vibrations may cause significant error
 Vibrational temperatures:     98.27   112.85   131.25   197.60   250.46
          (Kelvin)            264.20   350.26   369.70   411.18   489.81
                              520.51   578.60   717.24   806.50   884.91
                              904.93   937.73  1094.43  1142.99  1296.71
                             1348.25  1424.51  1478.25  1501.42  1546.72
                             1646.22  1696.17  1747.42  1804.30  1816.91
                             1898.02  1934.34  2012.72  2039.34  2107.50
                             2128.97  2146.69  2159.68  2202.21  2647.65
                             3201.36  4157.52  4277.80  4326.30  4377.80
                             4408.27  4473.64  4482.81  4506.30  5034.80
                             5512.52

 Zero-point correction=                           0.154551 (Hartree/Particle)
 Thermal correction to Energy=                    0.165384
 Thermal correction to Enthalpy=                  0.166329
 Thermal correction to Gibbs Free Energy=         0.118265
 Sum of electronic and zero-point Energies=           -422.993705
 Sum of electronic and thermal Energies=              -422.982872
 Sum of electronic and thermal Enthalpies=            -422.981928
 Sum of electronic and thermal Free Energies=         -423.029991

                     E (Thermal)             CV                S
                      KCal/Mol        Cal/Mol-Kelvin    Cal/Mol-Kelvin
 Total                  103.780             38.185            101.157
 Electronic               0.000              0.000              0.000
 Translational            0.889              2.981             40.409
 Rotational               0.889              2.981             29.453
 Vibrational            102.003             32.223             31.296
 Vibration     1          0.598              1.969              4.202
 Vibration     2          0.600              1.964              3.930
 Vibration     3          0.602              1.955              3.634
 Vibration     4          0.614              1.916              2.841
 Vibration     5          0.627              1.874              2.391
 Vibration     6          0.631              1.862              2.291
 Vibration     7          0.659              1.774              1.778
 Vibration     8          0.667              1.751              1.682
 Vibration     9          0.684              1.700              1.499
 Vibration    10          0.720              1.595              1.210
 Vibration    11          0.736              1.551              1.114
 Vibration    12          0.768              1.465              0.955
 Vibration    13          0.854              1.253              0.662
 Vibration    14          0.916              1.117              0.523
 Vibration    15          0.975              1.000              0.424

 Optimization completed.
    -- Stationary point found.
 Normal termination of Gaussian 09 at Tue Jan 28 12:48:18 2020.
