 Gaussian 09, Revision D.01,
 Gaussian 09:  ES64L-G09RevD.01 24-Apr-2013

 -----------------------------
 # b3lyp 6-31G(2df,p) opt Freq
 -----------------------------

 -----
 titel
 -----
 Symbolic Z-matrix:
 Charge =  0 Multiplicity = 1

 SCF Done:  E(RB3LYP) =  -423.162175749     A.U. after   14 cycles
 Optimization completed.
    -- Stationary point found.
 Normal termination of Gaussian 09 at Mon Jan 27 12:58:55 2020.

 ----------------------------------------------------------------------
 #N Geom=AllCheck Guess=TCheck SCRF=Check GenChk RB3LYP/6-31G(2df,p) Fr
 eq
 ----------------------------------------------------------------------

 Structure from the checkpoint file:  "/scratch/puck/g09_25f2b439-8f13-4c1d-bb84-6831e3cd8fb9/Gau-44673.chk"
 -----
 titel
 -----
 Charge =  0 Multiplicity = 1

                         Standard orientation:
 ---------------------------------------------------------------------
 Center     Atomic      Atomic             Coordinates (Angstroms)
 Number     Number       Type             X           Y           Z
 ---------------------------------------------------------------------
      1          8           0        0.933622    1.883847   -0.240372
      2          6           0        1.322208    0.789303    0.048106
      3          6           0        2.697037    0.096105    0.012291
      4          6           0        1.929078   -1.252715   -0.117021
      5          6           0        0.619198   -0.561226    0.356540
      6          8           0       -0.544007   -0.898240   -0.339790
      7          6           0       -1.738415   -0.596827    0.330709
      8          6           0       -2.878572   -0.150013   -0.524824
      9          6           0       -2.206450    0.831254    0.414497
     10          1           0        3.360989    0.394916   -0.800897
     11          1           0        3.231895    0.202457    0.961286
     12          1           0        1.829895   -1.566659   -1.158130
     13          1           0        2.280597   -2.089733    0.486011
     14          1           0        0.491355   -0.669187    1.445029
     15          1           0       -1.941479   -1.259920    1.172197
     16          1           0       -2.668928   -0.043687   -1.582834
     17          1           0       -3.873593   -0.510469   -0.289829
     18          1           0       -1.554468    1.579394   -0.020858
     19          1           0       -2.737681    1.142747    1.307545
 ---------------------------------------------------------------------

 SCF Done:  E(RB3LYP) =  -423.162175749     A.U. after    1 cycles

 The electronic state is 1-A.
 Alpha  occ. eigenvalues --  -19.15325 -19.14369 -10.27031 -10.24329 -10.23470
 Alpha  occ. eigenvalues --  -10.19821 -10.19803 -10.18259 -10.17785  -1.05649
 Alpha  occ. eigenvalues --   -1.04254  -0.85705  -0.83161  -0.67861  -0.63436
 Alpha  occ. eigenvalues --   -0.59906  -0.59467  -0.54493  -0.51872  -0.48557
 Alpha  occ. eigenvalues --   -0.46870  -0.45894  -0.44427  -0.41210  -0.40130
 Alpha  occ. eigenvalues --   -0.39385  -0.36392  -0.36101  -0.35666  -0.33090
 Alpha  occ. eigenvalues --   -0.32010  -0.28292  -0.27488  -0.22862
 Alpha virt. eigenvalues --   -0.02561   0.09159   0.09743   0.11732   0.12753
 Alpha virt. eigenvalues --    0.13665   0.14559   0.14795   0.16146   0.16564
 Alpha virt. eigenvalues --    0.17384   0.17626   0.19598   0.20567   0.23256

 Mulliken charges:
               1
     1  O   -0.294067
     2  C    0.369999
     3  C   -0.337270
     4  C   -0.271243
     5  C    0.055908
     6  O   -0.253188
     7  C    0.118588
     8  C   -0.283842
     9  C   -0.294809
    10  H    0.135007
    11  H    0.132848
    12  H    0.130958
    13  H    0.112656
    14  H    0.091958
    15  H    0.084688
    16  H    0.127700
    17  H    0.112521
    18  H    0.151983
    19  H    0.109605
 Sum of Mulliken charges =   0.00000

 Dipole moment (field-independent basis, Debye):
    X=              0.8204    Y=             -1.8254    Z=              1.4093  Tot=              2.4478
 Quadrupole moment (field-independent basis, Debye-Ang):
   XX=            -46.9596   YY=            -59.1020   ZZ=            -50.8716
   XY=             -1.7802   XZ=             -0.5025   YZ=             -0.3610

  Exact polarizability:  94.655  -2.503  72.945   0.232  -1.077  63.541
 Approx polarizability: 115.295  -4.610 114.350   1.860  -2.600  98.359

                      1                      2                      3
                      A                      A                      A
 Frequencies --     58.7599                92.4592               106.7412
 Red. masses --      2.9424                 4.1339                 2.7793
 Frc consts  --      0.0060                 0.0208                 0.0187
 IR Inten    --      1.0574                 3.8278                 1.7590

                      4                      5                      6
                      A                      A                      A
 Frequencies --    184.3940               213.5802               332.7535
 Red. masses --      2.7958                 5.9696                 3.5782
 Frc consts  --      0.0560                 0.1604                 0.2334
 IR Inten    --      0.4181                 2.7026                 3.2607

                      7                      8                      9
                      A                      A                      A
 Frequencies --    369.6076               450.2561               469.2769
 Red. masses --      3.1084                 2.5412                 3.0009
 Frc consts  --      0.2502                 0.3035                 0.3894
 IR Inten    --      1.7449                 3.4031                 3.7368

                     10                     11                     12
                      A                      A                      A
 Frequencies --    579.5193               684.1697               720.0447
 Red. masses --      2.5035                 2.6117                 2.2645
 Frc consts  --      0.4954                 0.7203                 0.6917
 IR Inten    --      3.8595                 3.7337                 4.5955

                     13                     14                     15
                      A                      A                      A
 Frequencies --    762.5996               771.3590               823.9863
 Red. masses --      1.2957                 1.5198                 1.5192
 Frc consts  --      0.4440                 0.5328                 0.6077
 IR Inten    --      4.0639                 0.9088                 6.0127

                     16                     17                     18
                      A                      A                      A
 Frequencies --    839.3005               911.2964               930.9024
 Red. masses --      2.0474                 2.4538                 2.1220
 Frc consts  --      0.8497                 1.2006                 1.0834
 IR Inten    --     10.7869                10.1007                 8.7746

                     19                     20                     21
                      A                      A                      A
 Frequencies --    984.2445               990.5748              1011.3562
 Red. masses --      2.2865                 2.8769                 2.7274
 Frc consts  --      1.3050                 1.6632                 1.6436
 IR Inten    --      2.9669                12.9730                48.0072

                     22                     23                     24
                      A                      A                      A
 Frequencies --   1060.6547              1066.1021              1080.1628
 Red. masses --      1.4039                 2.3447                 1.3642
 Frc consts  --      0.9306                 1.5701                 0.9378
 IR Inten    --     24.8137                42.4371                 0.9315

                     25                     26                     27
                      A                      A                      A
 Frequencies --   1095.9437              1124.6185              1153.4111
 Red. masses --      2.3367                 1.3107                 2.4654
 Frc consts  --      1.6536                 0.9767                 1.9325
 IR Inten    --      5.9184                 2.1675                48.6930

                     28                     29                     30
                      A                      A                      A
 Frequencies --   1187.2226              1194.7800              1205.1052
 Red. masses --      1.5287                 1.3244                 2.3300
 Frc consts  --      1.2695                 1.1139                 1.9937
 IR Inten    --      6.2925                 0.8113                77.6094

                     31                     32                     33
                      A                      A                      A
 Frequencies --   1226.3238              1244.2701              1247.3057
 Red. masses --      1.1680                 1.4711                 2.0842
 Frc consts  --      1.0349                 1.3419                 1.9105
 IR Inten    --      4.3384                 1.2015                54.3256

                     34                     35                     36
                      A                      A                      A
 Frequencies --   1257.1181              1357.6320              1409.6415
 Red. masses --      1.4921                 1.4406                 1.3890
 Frc consts  --      1.3893                 1.5644                 1.6262
 IR Inten    --      0.8449                72.4849                 7.2660

                     37                     38                     39
                      A                      A                      A
 Frequencies --   1447.2405              1458.9734              1488.1053
 Red. masses --      1.1020                 1.0933                 1.1100
 Frc consts  --      1.3599                 1.3711                 1.4482
 IR Inten    --      9.6286                 1.4204                 4.5424

                     40                     41                     42
                      A                      A                      A
 Frequencies --   1499.6322              1884.8452              2984.9859
 Red. masses --      1.4078                12.7077                 1.0821
 Frc consts  --      1.8653                26.5992                 5.6805
 IR Inten    --     16.7811               206.2719                21.0725

                     43                     44                     45
                      A                      A                      A
 Frequencies --   3064.9142              3085.5767              3094.9581
 Red. masses --      1.0612                 1.0591                 1.0866
 Frc consts  --      5.8734                 5.9407                 6.1326
 IR Inten    --      8.6896                15.2430                36.1031

                     46                     47                     48
                      A                      A                      A
 Frequencies --   3125.3543              3137.5382              3142.9086
 Red. masses --      1.1034                 1.0530                 1.0581
 Frc consts  --      6.3502                 6.1073                 6.1582
 IR Inten    --      4.9261                12.0161                12.5744

                     49                     50                     51
                      A                      A                      A
 Frequencies --   3148.0696              3225.9114              3238.9529
 Red. masses --      1.1086                 1.1181                 1.1154
 Frc consts  --      6.4729                 6.8557                 6.8943
 IR Inten    --     17.1046                 4.2987                 6.2691

 - Thermochemistry -
 -------------------
 Temperature   298.150 Kelvin.  Pressure   1.00000 Atm.
 Atom     1 has atomic number  8 and mass  15.99491

 Molecular mass:   126.06808 amu.
 Principal axes and moments of inertia in atomic units:
                           1         2         3
     Eigenvalues --   527.975541640.745712010.58619
           X            0.99975  -0.02222  -0.00089
           Y            0.02222   0.99975  -0.00112
           Z            0.00092   0.00109   1.00000
 This molecule is an asymmetric top.
 Rotational symmetry number  1.
 Warning -- assumption of classical behavior for rotation
           may cause significant error
 Rotational temperatures (Kelvin)      0.16405     0.05279     0.04308
 Rotational constants (GHZ):           3.41823     1.09995     0.89762
 Zero-point vibrational energy     414060.1 (Joules/Mol)
                                   98.96273 (Kcal/Mol)
 Warning -- explicit consideration of  10 degrees of freedom as
           vibrations may cause significant error
 Vibrational temperatures:     84.54   133.03   153.58   265.30   307.29
          (Kelvin)            478.76   531.78   647.82   675.18   833.80
                              984.37  1035.98  1097.21  1109.81  1185.53
                             1207.56  1311.15  1339.36  1416.11  1425.21
                             1455.11  1526.04  1533.88  1554.11  1576.82
                             1618.07  1659.50  1708.15  1719.02  1733.88
                             1764.40  1790.22  1794.59  1808.71  1953.33
                             2028.16  2082.25  2099.13  2141.05  2157.63
                             2711.87  4294.72  4409.72  4439.45  4452.95
                             4496.68  4514.21  4521.94  4529.36  4641.36
                             4660.12

 Zero-point correction=                           0.157707 (Hartree/Particle)
 Thermal correction to Energy=                    0.166409
 Thermal correction to Enthalpy=                  0.167353
 Thermal correction to Gibbs Free Energy=         0.123564
 Sum of electronic and zero-point Energies=           -423.004469
 Sum of electronic and thermal Energies=              -422.995767
 Sum of electronic and thermal Enthalpies=            -422.994823
 Sum of electronic and thermal Free Energies=         -423.038612

                     E (Thermal)             CV                S
                      KCal/Mol        Cal/Mol-Kelvin    Cal/Mol-Kelvin
 Total                  104.423             32.383             92.162
 Electronic               0.000              0.000              0.000
 Translational            0.889              2.981             40.409
 Rotational               0.889              2.981             28.945
 Vibrational            102.646             26.422             22.809
 Vibration     1          0.596              1.974              4.498
 Vibration     2          0.602              1.955              3.607
 Vibration     3          0.606              1.944              3.327
 Vibration     4          0.631              1.861              2.283
 Vibration     5          0.644              1.820              2.013
 Vibration     6          0.715              1.610              1.247
 Vibration     7          0.742              1.535              1.081
 Vibration     8          0.809              1.360              0.795
 Vibration     9          0.826              1.318              0.740
 Vibration    10          0.936              1.076              0.486

 Optimization completed.
    -- Stationary point found.
 Normal termination of Gaussian 09 at Mon Jan 27 13:34:27 2020.
