 Gaussian 09, Revision D.01,
 Gaussian 09:  ES64L-G09RevD.01 24-Apr-2013

 -----------------------------
 # b3lyp 6-31G(2df,p) opt Freq
 -----------------------------

 -----
 titel
 -----
 Symbolic Z-matrix:
 Charge =  0 Multiplicity = 1

 SCF Done:  E(RB3LYP) =  -423.174515048     A.U. after   14 cycles
 Optimization completed.
    -- Stationary point found.
 Normal termination of Gaussian 09 at Mon Jan 27 17:26:14 2020.

 ----------------------------------------------------------------------
 #N Geom=AllCheck Guess=TCheck SCRF=Check GenChk RB3LYP/6-31G(2df,p) Fr
 eq
 ----------------------------------------------------------------------

 Structure from the checkpoint file:  "/scratch/puck/g09_10708126-ccf3-4c70-9a83-032c2767a246/Gau-168393.chk"
 -----
 titel
 -----
 Charge =  0 Multiplicity = 1

                         Standard orientation:
 ---------------------------------------------------------------------
 Center     Atomic      Atomic             Coordinates (Angstroms)
 Number     Number       Type             X           Y           Z
 ---------------------------------------------------------------------
      1          6           0        2.622221    0.166288    0.394055
      2          6           0        1.201886   -0.113543    0.036156
      3          8           0        0.875716   -1.358705   -0.638440
      4          6           0        0.165898   -1.047360    0.555615
      5          6           0       -1.022663   -0.144692    0.149678
      6          6           0       -1.728470    0.508621    1.342058
      7          6           0       -1.999857   -0.723382   -0.868173
      8          6           0        0.079592    0.830308   -0.397172
      9          8           0        0.045735    1.948634   -0.819784
     10          1           0        3.191182    0.458077   -0.494423
     11          1           0        2.680835    0.987535    1.114729
     12          1           0        3.090319   -0.721477    0.827193
     13          1           0        0.245579   -1.733505    1.391967
     14          1           0       -1.015297    0.891894    2.079911
     15          1           0       -2.342921    1.347882    1.003833
     16          1           0       -2.381203   -0.213325    1.844502
     17          1           0       -1.466253   -1.255167   -1.658942
     18          1           0       -2.699200   -1.417882   -0.388979
     19          1           0       -2.586291    0.079099   -1.327292
 ---------------------------------------------------------------------

 SCF Done:  E(RB3LYP) =  -423.174515048     A.U. after    1 cycles

 The electronic state is 1-A.
 Alpha  occ. eigenvalues --  -19.16833 -19.14331 -10.27164 -10.25192 -10.24865
 Alpha  occ. eigenvalues --  -10.20955 -10.19650 -10.18902 -10.17893  -1.09333
 Alpha  occ. eigenvalues --   -1.04923  -0.82678  -0.76304  -0.71099  -0.69504
 Alpha  occ. eigenvalues --   -0.63200  -0.58028  -0.50222  -0.49240  -0.48807
 Alpha  occ. eigenvalues --   -0.45115  -0.44180  -0.43261  -0.42401  -0.40845
 Alpha  occ. eigenvalues --   -0.39866  -0.38463  -0.38097  -0.37042  -0.35167
 Alpha  occ. eigenvalues --   -0.34703  -0.31444  -0.27748  -0.23398
 Alpha virt. eigenvalues --   -0.02341   0.08420   0.08931   0.10956   0.11795
 Alpha virt. eigenvalues --    0.12847   0.13131   0.14415   0.15154   0.16913
 Alpha virt. eigenvalues --    0.17633   0.18453   0.19106   0.20353   0.20860

 Mulliken charges:
               1
     1  C   -0.514741
     2  C    0.277340
     3  O   -0.280089
     4  C   -0.076975
     5  C    0.146904
     6  C   -0.444332
     7  C   -0.449025
     8  C    0.359801
     9  O   -0.313357
    10  H    0.147207
    11  H    0.137338
    12  H    0.138391
    13  H    0.110839
    14  H    0.117804
    15  H    0.140162
    16  H    0.120299
    17  H    0.138288
    18  H    0.113994
    19  H    0.130153
 Sum of Mulliken charges =   0.00000

 Dipole moment (field-independent basis, Debye):
    X=             -0.0509    Y=             -1.2795    Z=              2.3827  Tot=              2.7050
 Quadrupole moment (field-independent basis, Debye-Ang):
   XX=            -48.8143   YY=            -59.3863   ZZ=            -53.0750
   XY=              1.4318   XZ=              1.0515   YZ=              0.1740

  Exact polarizability:  87.884   2.336  74.409  -0.543  -3.185  65.922
 Approx polarizability: 112.606   3.057 124.754  -4.114  -7.840 101.170

                      1                      2                      3
                      A                      A                      A
 Frequencies --     94.3269               160.0638               172.3405
 Red. masses --      3.7361                 1.0750                 2.9614
 Frc consts  --      0.0196                 0.0162                 0.0518
 IR Inten    --      3.3956                 0.0816                 0.7963

                      4                      5                      6
                      A                      A                      A
 Frequencies --    197.4849               204.5852               218.6478
 Red. masses --      1.8303                 1.1577                 1.6609
 Frc consts  --      0.0421                 0.0285                 0.0468
 IR Inten    --      1.0634                 0.5902                 2.4811

                      7                      8                      9
                      A                      A                      A
 Frequencies --    259.4473               284.6028               318.2215
 Red. masses --      2.6460                 2.3668                 2.7059
 Frc consts  --      0.1049                 0.1130                 0.1614
 IR Inten    --      1.0498                 0.2755                 1.7368

                     10                     11                     12
                      A                      A                      A
 Frequencies --    336.4318               513.5673               536.5592
 Red. masses --      2.8838                 3.6289                 4.1482
 Frc consts  --      0.1923                 0.5639                 0.7036
 IR Inten    --      2.6766                 9.2851                 8.4912

                     13                     14                     15
                      A                      A                      A
 Frequencies --    578.6722               668.5663               758.1224
 Red. masses --      3.7660                 5.2918                 4.2360
 Frc consts  --      0.7430                 1.3936                 1.4344
 IR Inten    --      1.1039                 1.6112                 2.4033

                     16                     17                     18
                      A                      A                      A
 Frequencies --    770.4443               814.2423               884.7645
 Red. masses --      4.3842                 3.5322                 3.2216
 Frc consts  --      1.5333                 1.3798                 1.4859
 IR Inten    --      1.7193                 5.5716                34.0968

                     19                     20                     21
                      A                      A                      A
 Frequencies --    904.3761               958.4663               968.5754
 Red. masses --      3.3549                 1.3991                 1.5926
 Frc consts  --      1.6167                 0.7573                 0.8803
 IR Inten    --     18.2285                 5.4259                17.5142

                     22                     23                     24
                      A                      A                      A
 Frequencies --   1003.0256              1026.6304              1037.5267
 Red. masses --      1.7722                 1.4365                 2.0146
 Frc consts  --      1.0505                 0.8921                 1.2777
 IR Inten    --     17.6511                 2.1991                 4.9118

                     25                     26                     27
                      A                      A                      A
 Frequencies --   1089.6775              1184.7453              1193.4548
 Red. masses --      1.6542                 2.1477                 2.3427
 Frc consts  --      1.1573                 1.7761                 1.9660
 IR Inten    --     11.2659                 6.3835                 2.6163

                     28                     29                     30
                      A                      A                      A
 Frequencies --   1217.4703              1234.6670              1310.2086
 Red. masses --      2.1896                 3.5956                 2.6053
 Frc consts  --      1.9122                 3.2294                 2.6350
 IR Inten    --      4.2882                 3.2328                 2.3469

                     31                     32                     33
                      A                      A                      A
 Frequencies --   1391.7492              1397.3246              1412.5854
 Red. masses --      1.2548                 1.3588                 1.2274
 Frc consts  --      1.4320                 1.5631                 1.4430
 IR Inten    --      5.8572                 0.2869                 3.1110

                     34                     35                     36
                      A                      A                      A
 Frequencies --   1448.2097              1478.0150              1482.1902
 Red. masses --      3.3777                 1.1066                 1.0493
 Frc consts  --      4.1738                 1.4243                 1.3582
 IR Inten    --      7.0145                 6.6640                 5.4647

                     37                     38                     39
                      A                      A                      A
 Frequencies --   1485.9273              1489.1612              1500.6806
 Red. masses --      1.0469                 1.0549                 1.0738
 Frc consts  --      1.3620                 1.3783                 1.4248
 IR Inten    --      0.1120                 4.9518                 3.4156

                     40                     41                     42
                      A                      A                      A
 Frequencies --   1509.1581              1888.0510              3029.3297
 Red. masses --      1.0565                12.7690                 1.0353
 Frc consts  --      1.4177                26.8184                 5.5976
 IR Inten    --      8.5075               235.4347                19.1442

                     43                     44                     45
                      A                      A                      A
 Frequencies --   3033.5214              3042.8178              3095.3588
 Red. masses --      1.0370                 1.0349                 1.1013
 Frc consts  --      5.6226                 5.6457                 6.2171
 IR Inten    --     30.4736                14.2222                14.3103

                     46                     47                     48
                      A                      A                      A
 Frequencies --   3097.4143              3109.5922              3113.5075
 Red. masses --      1.1002                 1.1007                 1.1009
 Frc consts  --      6.2191                 6.2708                 6.2876
 IR Inten    --     24.1112                 9.2355                14.5109

                     49                     50                     51
                      A                      A                      A
 Frequencies --   3125.3487              3128.4957              3181.5934
 Red. masses --      1.1020                 1.1002                 1.0940
 Frc consts  --      6.3420                 6.3446                 6.5245
 IR Inten    --      8.4637                11.1942                 9.8852

 - Thermochemistry -
 -------------------
 Temperature   298.150 Kelvin.  Pressure   1.00000 Atm.
 Atom     1 has atomic number  6 and mass  12.00000

 Molecular mass:   126.06808 amu.
 Principal axes and moments of inertia in atomic units:
                           1         2         3
     Eigenvalues --   735.307291205.869101419.97462
           X            0.99962   0.02465   0.01257
           Y           -0.02528   0.99828   0.05283
           Z           -0.01125  -0.05313   0.99852
 This molecule is an asymmetric top.
 Rotational symmetry number  1.
 Warning -- assumption of classical behavior for rotation
           may cause significant error
 Rotational temperatures (Kelvin)      0.11779     0.07183     0.06100
 Rotational constants (GHZ):           2.45440     1.49663     1.27097
 Zero-point vibrational energy     408763.7 (Joules/Mol)
                                   97.69686 (Kcal/Mol)
 Warning -- explicit consideration of  13 degrees of freedom as
           vibrations may cause significant error
 Vibrational temperatures:    135.72   230.30   247.96   284.14   294.35
          (Kelvin)            314.58   373.29   409.48   457.85   484.05
                              738.91   771.99   832.58   961.92  1090.77
                             1108.50  1171.51  1272.98  1301.19  1379.02
                             1393.56  1443.13  1477.09  1492.77  1567.80
                             1704.58  1717.11  1751.67  1776.41  1885.10
                             2002.41  2010.44  2032.39  2083.65  2126.53
                             2132.54  2137.92  2142.57  2159.14  2171.34
                             2716.48  4358.52  4364.56  4377.93  4453.53
                             4456.48  4474.00  4479.64  4496.67  4501.20
                             4577.60

 Zero-point correction=                           0.155690 (Hartree/Particle)
 Thermal correction to Energy=                    0.165260
 Thermal correction to Enthalpy=                  0.166204
 Thermal correction to Gibbs Free Energy=         0.121848
 Sum of electronic and zero-point Energies=           -423.018825
 Sum of electronic and thermal Energies=              -423.009255
 Sum of electronic and thermal Enthalpies=            -423.008311
 Sum of electronic and thermal Free Energies=         -423.052667

                     E (Thermal)             CV                S
                      KCal/Mol        Cal/Mol-Kelvin    Cal/Mol-Kelvin
 Total                  103.702             35.308             93.355
 Electronic               0.000              0.000              0.000
 Translational            0.889              2.981             40.409
 Rotational               0.889              2.981             28.623
 Vibrational            101.925             29.346             24.324
 Vibration     1          0.603              1.953              3.568
 Vibration     2          0.622              1.891              2.549
 Vibration     3          0.626              1.877              2.410
 Vibration     4          0.637              1.843              2.156
 Vibration     5          0.640              1.833              2.091
 Vibration     6          0.646              1.813              1.970
 Vibration     7          0.668              1.747              1.665
 Vibration     8          0.683              1.702              1.506
 Vibration     9          0.705              1.639              1.319
 Vibration    10          0.717              1.603              1.229
 Vibration    11          0.869              1.220              0.625
 Vibration    12          0.892              1.169              0.573
 Vibration    13          0.935              1.077              0.488

 Optimization completed.
    -- Stationary point found.
 Normal termination of Gaussian 09 at Mon Jan 27 18:08:23 2020.
