 Gaussian 09, Revision D.01,
 Gaussian 09:  ES64L-G09RevD.01 24-Apr-2013

 -----------------------------
 # b3lyp 6-31G(2df,p) opt Freq
 -----------------------------

 -----
 titel
 -----
 Symbolic Z-matrix:
 Charge =  0 Multiplicity = 1

 SCF Done:  E(RB3LYP) =  -423.190093736     A.U. after   13 cycles
 Optimization completed.
    -- Stationary point found.
 Normal termination of Gaussian 09 at Mon Jan 27 22:07:11 2020.

 ----------------------------------------------------------------------
 #N Geom=AllCheck Guess=TCheck SCRF=Check GenChk RB3LYP/6-31G(2df,p) Fr
 eq
 ----------------------------------------------------------------------

 Structure from the checkpoint file:  "/scratch/puck/g09_abcffec8-d387-4063-970e-59eea23c75cc/Gau-116804.chk"
 -----
 titel
 -----
 Charge =  0 Multiplicity = 1

                         Standard orientation:
 ---------------------------------------------------------------------
 Center     Atomic      Atomic             Coordinates (Angstroms)
 Number     Number       Type             X           Y           Z
 ---------------------------------------------------------------------
      1          8           0       -2.041267   -1.303505   -0.041435
      2          6           0       -1.347097   -0.137954   -0.442672
      3          6           0        0.026364   -0.383203   -1.053857
      4          6           0        0.842288    0.883899   -0.817004
      5          6           0       -0.067733    1.860296   -0.073755
      6          6           0       -0.874567    0.797688    0.711689
      7          6           0        0.244589   -0.043936    1.365071
      8          6           0        1.024395   -0.326486    0.081579
      9          8           0        2.144853   -1.144327    0.046136
     10          1           0       -1.393650   -1.945359    0.266432
     11          1           0       -2.025620    0.390039   -1.121312
     12          1           0        0.189864   -1.014737   -1.917062
     13          1           0        1.615213    1.184992   -1.512272
     14          1           0        0.480473    2.547145    0.580213
     15          1           0       -0.698112    2.454949   -0.743618
     16          1           0       -1.662476    1.162010    1.369221
     17          1           0        0.826439    0.526089    2.098601
     18          1           0       -0.124695   -0.951622    1.852865
     19          1           0        2.874440   -0.672682    0.463018
 ---------------------------------------------------------------------

 SCF Done:  E(RB3LYP) =  -423.190093736     A.U. after    1 cycles

 The electronic state is 1-A.
 Alpha  occ. eigenvalues --  -19.14865 -19.13133 -10.23689 -10.22788 -10.18789
 Alpha  occ. eigenvalues --  -10.18533 -10.18495 -10.18312 -10.18266  -1.03503
 Alpha  occ. eigenvalues --   -1.01510  -0.90305  -0.75303  -0.71097  -0.69430
 Alpha  occ. eigenvalues --   -0.57126  -0.56874  -0.56141  -0.53477  -0.49124
 Alpha  occ. eigenvalues --   -0.46161  -0.44697  -0.43168  -0.40745  -0.38906
 Alpha  occ. eigenvalues --   -0.37431  -0.36591  -0.35531  -0.34015  -0.33289
 Alpha  occ. eigenvalues --   -0.30733  -0.26965  -0.25497  -0.24428
 Alpha virt. eigenvalues --    0.07540   0.07869   0.09832   0.13154   0.14192
 Alpha virt. eigenvalues --    0.14347   0.14679   0.16265   0.16896   0.17692
 Alpha virt. eigenvalues --    0.18461   0.19926   0.21149   0.21696   0.23244

 Mulliken charges:
               1
     1  O   -0.456457
     2  C    0.176772
     3  C   -0.160021
     4  C   -0.140553
     5  C   -0.231411
     6  C   -0.083873
     7  C   -0.302014
     8  C    0.408670
     9  O   -0.482375
    10  H    0.285260
    11  H    0.080690
    12  H    0.094092
    13  H    0.086347
    14  H    0.092985
    15  H    0.098851
    16  H    0.070024
    17  H    0.087777
    18  H    0.093011
    19  H    0.282224
 Sum of Mulliken charges =   0.00000

 Dipole moment (field-independent basis, Debye):
    X=              1.7597    Y=              1.4190    Z=              0.6566  Tot=              2.3540
 Quadrupole moment (field-independent basis, Debye-Ang):
   XX=            -54.6205   YY=            -53.4908   ZZ=            -51.6835
   XY=              0.1546   XZ=              1.5581   YZ=             -0.8570

  Exact polarizability:  75.724   0.073  73.958   1.561  -0.881  69.194
 Approx polarizability: 110.245   1.308 111.271   4.206  -1.989 103.804

                      1                      2                      3
                      A                      A                      A
 Frequencies --    161.6063               258.5579               292.8714
 Red. masses --      4.1885                 1.7297                 1.1893
 Frc consts  --      0.0645                 0.0681                 0.0601
 IR Inten    --      3.1767                58.8318                43.3622

                      4                      5                      6
                      A                      A                      A
 Frequencies --    296.5966               350.7220               383.0057
 Red. masses --      1.5843                 3.9411                 3.4955
 Frc consts  --      0.0821                 0.2856                 0.3021
 IR Inten    --     49.9370                 4.3736                30.9681

                      7                      8                      9
                      A                      A                      A
 Frequencies --    422.7577               487.1792               529.6517
 Red. masses --      1.9478                 2.0578                 4.3969
 Frc consts  --      0.2051                 0.2878                 0.7267
 IR Inten    --      4.7881                 2.7951                 1.9836

                     10                     11                     12
                      A                      A                      A
 Frequencies --    595.0258               650.1454               735.5086
 Red. masses --      4.9072                 3.9047                 3.8335
 Frc consts  --      1.0237                 0.9724                 1.2219
 IR Inten    --      7.0578                 3.8857                 1.5539

                     13                     14                     15
                      A                      A                      A
 Frequencies --    791.2179               854.9190               871.0974
 Red. masses --      4.2895                 1.5053                 2.8910
 Frc consts  --      1.5822                 0.6482                 1.2925
 IR Inten    --      4.4183                 6.5019                 5.9892

                     16                     17                     18
                      A                      A                      A
 Frequencies --    906.6963               914.5237               921.2340
 Red. masses --      2.0954                 2.3799                 2.3447
 Frc consts  --      1.0149                 1.1727                 1.1724
 IR Inten    --      6.0841                 3.0837                 0.9362

                     19                     20                     21
                      A                      A                      A
 Frequencies --    946.4312               990.8743              1001.5466
 Red. masses --      1.9547                 1.7468                 1.2120
 Frc consts  --      1.0316                 1.0105                 0.7163
 IR Inten    --      1.9023                 4.3619                 8.1803

                     22                     23                     24
                      A                      A                      A
 Frequencies --   1013.5438              1045.1590              1076.0860
 Red. masses --      1.9856                 1.6031                 1.7129
 Frc consts  --      1.2018                 1.0317                 1.1686
 IR Inten    --     10.0556                 2.4019                28.1291

                     25                     26                     27
                      A                      A                      A
 Frequencies --   1082.7895              1131.4412              1139.0596
 Red. masses --      2.2555                 1.2854                 1.6566
 Frc consts  --      1.5580                 0.9695                 1.2664
 IR Inten    --     75.9664                19.5688                 4.7160

                     28                     29                     30
                      A                      A                      A
 Frequencies --   1172.1737              1205.9619              1224.1431
 Red. masses --      1.5797                 1.8123                 1.7565
 Frc consts  --      1.2788                 1.5529                 1.5509
 IR Inten    --     35.0742                 8.9601                10.9946

                     31                     32                     33
                      A                      A                      A
 Frequencies --   1264.6147              1268.6222              1285.6390
 Red. masses --      1.4421                 2.2472                 1.8016
 Frc consts  --      1.3588                 2.1309                 1.7544
 IR Inten    --      6.8584                15.8214                32.5598

                     34                     35                     36
                      A                      A                      A
 Frequencies --   1302.3736              1307.3744              1332.8228
 Red. masses --      1.8106                 1.6258                 1.4897
 Frc consts  --      1.8095                 1.6373                 1.5592
 IR Inten    --      2.8885                37.7576                21.4673

                     37                     38                     39
                      A                      A                      A
 Frequencies --   1344.8342              1430.9309              1445.9279
 Red. masses --      1.8089                 1.3336                 2.5353
 Frc consts  --      1.9275                 1.6089                 3.1230
 IR Inten    --     44.1827                75.8229                19.2307

                     40                     41                     42
                      A                      A                      A
 Frequencies --   1496.5708              1516.2262              3036.4708
 Red. masses --      1.1131                 1.1377                 1.0588
 Frc consts  --      1.4689                 1.5410                 5.7520
 IR Inten    --      2.7568                 1.4277                43.0735

                     43                     44                     45
                      A                      A                      A
 Frequencies --   3039.8891              3054.5893              3079.3796
 Red. masses --      1.0598                 1.0851                 1.1060
 Frc consts  --      5.7704                 5.9653                 6.1791
 IR Inten    --     36.0486                33.1790                31.6866

                     46                     47                     48
                      A                      A                      A
 Frequencies --   3083.8724              3130.0903              3198.5156
 Red. masses --      1.1040                 1.0897                 1.0911
 Frc consts  --      6.1863                 6.2900                 6.5769
 IR Inten    --     30.3489                30.2631                 8.5071

                     49                     50                     51
                      A                      A                      A
 Frequencies --   3210.4998              3792.3314              3821.4014
 Red. masses --      1.0940                 1.0660                 1.0659
 Frc consts  --      6.6440                 9.0329                 9.1708
 IR Inten    --      7.6476                18.0198                16.1117

 - Thermochemistry -
 -------------------
 Temperature   298.150 Kelvin.  Pressure   1.00000 Atm.
 Atom     1 has atomic number  8 and mass  15.99491

 Molecular mass:   126.06808 amu.
 Principal axes and moments of inertia in atomic units:
                           1         2         3
     Eigenvalues --   722.990731017.523601236.54124
           X            0.99999  -0.00183   0.00312
           Y            0.00186   0.99997  -0.00795
           Z           -0.00311   0.00796   0.99996
 This molecule is an asymmetric top.
 Rotational symmetry number  1.
 Warning -- assumption of classical behavior for rotation
           may cause significant error
 Rotational temperatures (Kelvin)      0.11980     0.08512     0.07005
 Rotational constants (GHZ):           2.49622     1.77366     1.45951
 Zero-point vibrational energy     424049.3 (Joules/Mol)
                                  101.35021 (Kcal/Mol)
 Warning -- explicit consideration of  10 degrees of freedom as
           vibrations may cause significant error
 Vibrational temperatures:    232.52   372.01   421.38   426.74   504.61
          (Kelvin)            551.06   608.25   700.94   762.05   856.11
                              935.41  1058.23  1138.38  1230.04  1253.31
                             1304.53  1315.79  1325.45  1361.70  1425.65
                             1441.00  1458.26  1503.75  1548.25  1557.89
                             1627.89  1638.85  1686.49  1735.11  1761.27
                             1819.50  1825.26  1849.75  1873.82  1881.02
                             1917.63  1934.91  2058.79  2080.37  2153.23
                             2181.51  4368.80  4373.72  4394.87  4430.53
                             4437.00  4503.50  4601.94  4619.19  5456.31
                             5498.14

 Zero-point correction=                           0.161512 (Hartree/Particle)
 Thermal correction to Energy=                    0.168897
 Thermal correction to Enthalpy=                  0.169841
 Thermal correction to Gibbs Free Energy=         0.130276
 Sum of electronic and zero-point Energies=           -423.028582
 Sum of electronic and thermal Energies=              -423.021197
 Sum of electronic and thermal Enthalpies=            -423.020253
 Sum of electronic and thermal Free Energies=         -423.059818

                     E (Thermal)             CV                S
                      KCal/Mol        Cal/Mol-Kelvin    Cal/Mol-Kelvin
 Total                  105.984             30.856             83.271
 Electronic               0.000              0.000              0.000
 Translational            0.889              2.981             40.409
 Rotational               0.889              2.981             28.300
 Vibrational            104.207             24.894             14.563
 Vibration     1          0.622              1.889              2.531
 Vibration     2          0.667              1.748              1.671
 Vibration     3          0.688              1.687              1.457
 Vibration     4          0.690              1.680              1.436
 Vibration     5          0.728              1.574              1.163
 Vibration     6          0.752              1.506              1.027
 Vibration     7          0.785              1.421              0.883
 Vibration     8          0.843              1.278              0.691
 Vibration     9          0.885              1.184              0.588
 Vibration    10          0.953              1.042              0.458

 Optimization completed.
    -- Stationary point found.
 Normal termination of Gaussian 09 at Mon Jan 27 23:06:48 2020.
