 Gaussian 09, Revision D.01,
 Gaussian 09:  ES64L-G09RevD.01 24-Apr-2013

 -----------------------------
 # b3lyp 6-31G(2df,p) opt Freq
 -----------------------------

 -----
 titel
 -----
 Symbolic Z-matrix:
 Charge =  0 Multiplicity = 1

 SCF Done:  E(RB3LYP) =  -423.147519378     A.U. after   13 cycles
 Optimization completed.
    -- Stationary point found.
 Normal termination of Gaussian 09 at Mon Jan 27 17:00:03 2020.

 ----------------------------------------------------------------------
 #N Geom=AllCheck Guess=TCheck SCRF=Check GenChk RB3LYP/6-31G(2df,p) Fr
 eq
 ----------------------------------------------------------------------

 Structure from the checkpoint file:  "/scratch/puck/g09_9fc6859e-bcfe-47e2-806e-21ca81e9c2d1/Gau-41867.chk"
 -----
 titel
 -----
 Charge =  0 Multiplicity = 1

                         Standard orientation:
 ---------------------------------------------------------------------
 Center     Atomic      Atomic             Coordinates (Angstroms)
 Number     Number       Type             X           Y           Z
 ---------------------------------------------------------------------
      1          6           0       -0.010876    2.246714   -0.625507
      2          6           0       -0.248138    0.876707   -0.067400
      3          6           0       -0.750933    0.317526    1.244763
      4          8           0        0.302210   -0.632080    1.386435
      5          6           0        0.736498   -0.333560    0.011849
      6          6           0        2.225639   -0.141529   -0.094797
      7          6           0        0.077092   -1.395094   -0.864362
      8          8           0       -1.327200   -1.221464   -0.645823
      9          6           0       -1.497141    0.044414   -0.052139
     10          1           0        0.877557    2.715490   -0.187807
     11          1           0        0.123333    2.218951   -1.713352
     12          1           0       -0.864096    2.900737   -0.418972
     13          1           0       -1.155760    0.775558    2.141142
     14          1           0        2.560043    0.649615    0.581141
     15          1           0        2.746407   -1.064543    0.179309
     16          1           0        2.512536    0.125582   -1.116983
     17          1           0        0.323537   -1.257192   -1.929522
     18          1           0        0.359584   -2.406231   -0.555344
     19          1           0       -2.476068    0.479311   -0.218961
 ---------------------------------------------------------------------

 SCF Done:  E(RB3LYP) =  -423.147519378     A.U. after    1 cycles

 The electronic state is 1-A.
 Alpha  occ. eigenvalues --  -19.13847 -19.13396 -10.24570 -10.23354 -10.23150
 Alpha  occ. eigenvalues --  -10.22603 -10.19654 -10.19075 -10.18707  -1.07186
 Alpha  occ. eigenvalues --   -1.01141  -0.83122  -0.78043  -0.71717  -0.69350
 Alpha  occ. eigenvalues --   -0.62056  -0.58272  -0.51968  -0.50666  -0.49846
 Alpha  occ. eigenvalues --   -0.45486  -0.44021  -0.42668  -0.41437  -0.41162
 Alpha  occ. eigenvalues --   -0.40115  -0.39657  -0.37850  -0.35848  -0.32954
 Alpha  occ. eigenvalues --   -0.30927  -0.29681  -0.24563  -0.21194
 Alpha virt. eigenvalues --    0.07599   0.08406   0.11148   0.11930   0.12680
 Alpha virt. eigenvalues --    0.13205   0.13853   0.15389   0.15777   0.15884
 Alpha virt. eigenvalues --    0.17254   0.18775   0.19676   0.21099   0.21688

 Mulliken charges:
               1
     1  C   -0.518119
     2  C    0.160654
     3  C    0.009785
     4  O   -0.338790
     5  C    0.341944
     6  C   -0.491284
     7  C   -0.097269
     8  O   -0.269157
     9  C    0.029826
    10  H    0.124704
    11  H    0.124624
    12  H    0.126642
    13  H    0.099903
    14  H    0.133188
    15  H    0.134286
    16  H    0.123246
    17  H    0.086699
    18  H    0.115477
    19  H    0.103638
 Sum of Mulliken charges =   0.00000

 Dipole moment (field-independent basis, Debye):
    X=              0.9754    Y=              2.0584    Z=             -0.9787  Tot=              2.4792
 Quadrupole moment (field-independent basis, Debye-Ang):
   XX=            -51.6227   YY=            -53.0411   ZZ=            -54.5143
   XY=             -3.9471   XZ=             -2.9682   YZ=              1.6410

  Exact polarizability:  77.128  -3.526  75.057  -3.637   1.713  69.369
 Approx polarizability: 109.767  -2.928 105.494  -3.681   0.819 108.959

                      1                      2                      3
                      A                      A                      A
 Frequencies --    173.1264               184.1712               189.1201
 Red. masses --      1.0606                 1.3277                 2.3073
 Frc consts  --      0.0187                 0.0265                 0.0486
 IR Inten    --      0.0884                 0.2176                 0.1567

                      4                      5                      6
                      A                      A                      A
 Frequencies --    207.3017               248.3877               299.6357
 Red. masses --      1.6504                 3.4622                 2.4892
 Frc consts  --      0.0418                 0.1259                 0.1317
 IR Inten    --      0.1541                 2.7723                 0.8401

                      7                      8                      9
                      A                      A                      A
 Frequencies --    364.7847               424.8707               551.0137
 Red. masses --      3.2797                 2.8889                 4.0080
 Frc consts  --      0.2571                 0.3073                 0.7170
 IR Inten    --      4.9666                 2.1867                 1.4904

                     10                     11                     12
                      A                      A                      A
 Frequencies --    579.6540               634.4711               691.1674
 Red. masses --      3.6546                 3.5567                 4.6207
 Frc consts  --      0.7235                 0.8436                 1.3005
 IR Inten    --      2.0968                 6.6410                 1.4340

                     13                     14                     15
                      A                      A                      A
 Frequencies --    756.1020               784.5848               837.6631
 Red. masses --      4.5551                 3.3319                 3.9357
 Frc consts  --      1.5343                 1.2084                 1.6271
 IR Inten    --     25.7825                 4.3879                30.1740

                     16                     17                     18
                      A                      A                      A
 Frequencies --    880.0843               917.1159               934.8012
 Red. masses --      1.9104                 1.8542                 1.8694
 Frc consts  --      0.8718                 0.9189                 0.9625
 IR Inten    --      6.6853                 5.2934                 5.6985

                     19                     20                     21
                      A                      A                      A
 Frequencies --    978.9984               991.9765              1000.2575
 Red. masses --      2.5659                 1.5618                 1.6614
 Frc consts  --      1.4489                 0.9055                 0.9794
 IR Inten    --      9.4376                16.0949                14.4084

                     22                     23                     24
                      A                      A                      A
 Frequencies --   1035.7366              1043.3323              1108.4098
 Red. masses --      3.0416                 1.7950                 5.4761
 Frc consts  --      1.9224                 1.1512                 3.9639
 IR Inten    --      9.5284                17.9825               109.3119

                     25                     26                     27
                      A                      A                      A
 Frequencies --   1133.8649              1136.4122              1182.8705
 Red. masses --      1.8851                 2.0440                 1.8653
 Frc consts  --      1.4280                 1.5553                 1.5377
 IR Inten    --      2.8863                 2.9830                 5.4544

                     28                     29                     30
                      A                      A                      A
 Frequencies --   1203.4371              1233.0098              1258.0671
 Red. masses --      2.1802                 1.5287                 1.7026
 Frc consts  --      1.8603                 1.3693                 1.5877
 IR Inten    --      9.4238                 2.8506                 3.4078

                     31                     32                     33
                      A                      A                      A
 Frequencies --   1275.3402              1301.0603              1382.4396
 Red. masses --      3.0622                 1.6548                 1.5459
 Frc consts  --      2.9345                 1.6504                 1.7406
 IR Inten    --      8.7520                16.4228                 0.3739

                     34                     35                     36
                      A                      A                      A
 Frequencies --   1410.1140              1415.9355              1459.8089
 Red. masses --      1.4728                 1.2317                 2.7001
 Frc consts  --      1.7254                 1.4549                 3.3902
 IR Inten    --      9.8704                 0.8930                11.1322

                     37                     38                     39
                      A                      A                      A
 Frequencies --   1482.5236              1484.9022              1494.1571
 Red. masses --      1.1552                 1.0865                 1.0636
 Frc consts  --      1.4959                 1.4115                 1.3991
 IR Inten    --      0.4535                 1.7441                 6.5968

                     40                     41                     42
                      A                      A                      A
 Frequencies --   1496.5453              1498.5351              2975.0845
 Red. masses --      1.0568                 1.0974                 1.0691
 Frc consts  --      1.3945                 1.4520                 5.5755
 IR Inten    --      4.5702                 2.9944                66.8682

                     43                     44                     45
                      A                      A                      A
 Frequencies --   3023.1627              3040.5106              3080.3285
 Red. masses --      1.0360                 1.0354                 1.0941
 Frc consts  --      5.5784                 5.6398                 6.1166
 IR Inten    --     33.5510                15.5425                21.4400

                     46                     47                     48
                      A                      A                      A
 Frequencies --   3083.1322              3097.7062              3110.0918
 Red. masses --      1.1007                 1.0998                 1.1009
 Frc consts  --      6.1646                 6.2177                 6.2743
 IR Inten    --     20.5169                17.6662                15.6281

                     49                     50                     51
                      A                      A                      A
 Frequencies --   3121.6807              3167.0721              3185.6584
 Red. masses --      1.1014                 1.0920                 1.0933
 Frc consts  --      6.3238                 6.4532                 6.5370
 IR Inten    --     13.8858                19.9552                21.8583

 - Thermochemistry -
 -------------------
 Temperature   298.150 Kelvin.  Pressure   1.00000 Atm.
 Atom     1 has atomic number  6 and mass  12.00000

 Molecular mass:   126.06808 amu.
 Principal axes and moments of inertia in atomic units:
                           1         2         3
     Eigenvalues --   847.18248 877.398911130.78064
           X            0.82858  -0.55780  -0.04803
           Y            0.55839   0.82958  -0.00141
           Z            0.04063  -0.02565   0.99885
 This molecule is an asymmetric top.
 Rotational symmetry number  1.
 Warning -- assumption of classical behavior for rotation
           may cause significant error
 Rotational temperatures (Kelvin)      0.10224     0.09872     0.07660
 Rotational constants (GHZ):           2.13029     2.05692     1.59601
 Zero-point vibrational energy     416002.7 (Joules/Mol)
                                   99.42703 (Kcal/Mol)
 Warning -- explicit consideration of  10 degrees of freedom as
           vibrations may cause significant error
 Vibrational temperatures:    249.09   264.98   272.10   298.26   357.37
          (Kelvin)            431.11   524.84   611.29   792.78   833.99
                              912.86   994.43  1087.86  1128.84  1205.21
                             1266.24  1319.52  1344.97  1408.56  1427.23
                             1439.15  1490.19  1501.12  1594.75  1631.38
                             1635.04  1701.88  1731.48  1774.02  1810.08
                             1834.93  1871.93  1989.02  2028.84  2037.21
                             2100.34  2133.02  2136.44  2149.76  2153.19
                             2156.06  4280.48  4349.65  4374.61  4431.90
                             4435.93  4456.90  4474.72  4491.40  4556.70
                             4583.45

 Zero-point correction=                           0.158447 (Hartree/Particle)
 Thermal correction to Energy=                    0.166540
 Thermal correction to Enthalpy=                  0.167485
 Thermal correction to Gibbs Free Energy=         0.126383
 Sum of electronic and zero-point Energies=           -422.989072
 Sum of electronic and thermal Energies=              -422.980979
 Sum of electronic and thermal Enthalpies=            -422.980035
 Sum of electronic and thermal Free Energies=         -423.021136

                     E (Thermal)             CV                S
                      KCal/Mol        Cal/Mol-Kelvin    Cal/Mol-Kelvin
 Total                  104.506             31.735             86.505
 Electronic               0.000              0.000              0.000
 Translational            0.889              2.981             40.409
 Rotational               0.889              2.981             28.221
 Vibrational            102.728             25.773             17.875
 Vibration     1          0.627              1.876              2.401
 Vibration     2          0.631              1.861              2.286
 Vibration     3          0.633              1.855              2.236
 Vibration     4          0.641              1.829              2.067
 Vibration     5          0.662              1.765              1.742
 Vibration     6          0.692              1.674              1.419
 Vibration     7          0.738              1.545              1.102
 Vibration     8          0.787              1.416              0.876
 Vibration     9          0.906              1.137              0.542
 Vibration    10          0.936              1.075              0.486

 Optimization completed.
    -- Stationary point found.
 Normal termination of Gaussian 09 at Mon Jan 27 17:44:13 2020.
