 Gaussian 09, Revision D.01,
 Gaussian 09:  ES64L-G09RevD.01 24-Apr-2013

 -----------------------------
 # b3lyp 6-31G(2df,p) opt Freq
 -----------------------------

 -----
 titel
 -----
 Symbolic Z-matrix:
 Charge =  0 Multiplicity = 1

 SCF Done:  E(RB3LYP) =  -423.164165479     A.U. after   14 cycles
 Optimization completed.
    -- Stationary point found.
 Normal termination of Gaussian 09 at Tue Jan 28 09:15:03 2020.

 ----------------------------------------------------------------------
 #N Geom=AllCheck Guess=TCheck SCRF=Check GenChk RB3LYP/6-31G(2df,p) Fr
 eq
 ----------------------------------------------------------------------

 Structure from the checkpoint file:  "/scratch/puck/g09_22c5e2b1-fef3-46da-abaa-41473368da7e/Gau-129683.chk"
 -----
 titel
 -----
 Charge =  0 Multiplicity = 1

                         Standard orientation:
 ---------------------------------------------------------------------
 Center     Atomic      Atomic             Coordinates (Angstroms)
 Number     Number       Type             X           Y           Z
 ---------------------------------------------------------------------
      1          6           0       -2.354071   -1.324680    0.094151
      2          8           0       -1.351550   -0.755369   -0.737361
      3          6           0       -0.273023   -0.274418   -0.034872
      4          6           0        0.823354   -1.167759    0.579070
      5          6           0        1.851825   -0.173437   -0.032121
      6          8           0        3.046264   -0.197376   -0.124355
      7          6           0        0.779214    0.703530   -0.596085
      8          6           0       -0.201666    1.103646    0.531555
      9          6           0       -1.261294    2.112925    0.142376
     10          1           0       -2.757827   -0.587612    0.800785
     11          1           0       -3.153255   -1.667436   -0.565744
     12          1           0       -1.965122   -2.181322    0.661213
     13          1           0        0.827876   -1.312838    1.663273
     14          1           0        0.906200   -2.135412    0.074583
     15          1           0        0.800755    1.272919   -1.517280
     16          1           0        0.207899    1.237272    1.531514
     17          1           0       -0.845905    3.124824    0.107579
     18          1           0       -1.685481    1.879290   -0.837479
     19          1           0       -2.078881    2.113437    0.870834
 ---------------------------------------------------------------------

 SCF Done:  E(RB3LYP) =  -423.164165479     A.U. after    1 cycles

 The electronic state is 1-A.
 Alpha  occ. eigenvalues --  -19.16397 -19.12732 -10.26858 -10.25773 -10.23809
 Alpha  occ. eigenvalues --  -10.21318 -10.20028 -10.19408 -10.19013  -1.06003
 Alpha  occ. eigenvalues --   -1.03773  -0.90363  -0.76386  -0.71134  -0.68957
 Alpha  occ. eigenvalues --   -0.62716  -0.56875  -0.53310  -0.50723  -0.48453
 Alpha  occ. eigenvalues --   -0.47034  -0.44749  -0.44255  -0.42638  -0.41100
 Alpha  occ. eigenvalues --   -0.40342  -0.39254  -0.37913  -0.36971  -0.35423
 Alpha  occ. eigenvalues --   -0.31643  -0.27395  -0.26113  -0.23980
 Alpha virt. eigenvalues --   -0.00779   0.07133   0.09662   0.11323   0.11953
 Alpha virt. eigenvalues --    0.12406   0.13199   0.14680   0.15307   0.16184
 Alpha virt. eigenvalues --    0.16649   0.17085   0.18482   0.19098   0.20552

 Mulliken charges:
               1
     1  C   -0.261903
     2  O   -0.279535
     3  C    0.438271
     4  C   -0.438005
     5  C    0.432256
     6  O   -0.317356
     7  C   -0.281338
     8  C   -0.080225
     9  C   -0.426946
    10  H    0.116749
    11  H    0.135030
    12  H    0.119901
    13  H    0.115275
    14  H    0.136194
    15  H    0.113236
    16  H    0.091781
    17  H    0.127595
    18  H    0.136015
    19  H    0.123005
 Sum of Mulliken charges =   0.00000

 Dipole moment (field-independent basis, Debye):
    X=             -3.6669    Y=              0.1171    Z=              1.1977  Tot=              3.8594
 Quadrupole moment (field-independent basis, Debye-Ang):
   XX=            -62.7994   YY=            -49.8003   ZZ=            -52.5121
   XY=              1.3529   XZ=             -0.8934   YZ=             -1.1068

  Exact polarizability:  91.568  -1.849  78.888  -2.152  -2.788  62.224
 Approx polarizability: 131.659  -0.629 108.682  -4.654  -3.070  99.247

                      1                      2                      3
                      A                      A                      A
 Frequencies --     85.6931               108.8537               174.6121
 Red. masses --      3.2002                 4.0285                 1.3378
 Frc consts  --      0.0138                 0.0281                 0.0240
 IR Inten    --      0.4913                 5.4669                 0.0533

                      4                      5                      6
                      A                      A                      A
 Frequencies --    189.2150               211.2729               242.3012
 Red. masses --      1.5296                 1.2956                 2.4387
 Frc consts  --      0.0323                 0.0341                 0.0844
 IR Inten    --      0.4245                 0.4285                 0.1269

                      7                      8                      9
                      A                      A                      A
 Frequencies --    260.1185               362.2137               410.4553
 Red. masses --      2.8852                 3.4456                 3.3334
 Frc consts  --      0.1150                 0.2663                 0.3309
 IR Inten    --      6.9036                 5.9433                 1.3772

                     10                     11                     12
                      A                      A                      A
 Frequencies --    483.6263               495.4922               552.1077
 Red. masses --      4.4212                 3.4361                 2.7964
 Frc consts  --      0.6093                 0.4970                 0.5022
 IR Inten    --      2.7502                 1.5107                 1.5299

                     13                     14                     15
                      A                      A                      A
 Frequencies --    644.6722               686.6654               792.9456
 Red. masses --      2.9814                 3.5537                 2.7331
 Frc consts  --      0.7300                 0.9872                 1.0125
 IR Inten    --      2.9392                12.4440                23.4937

                     16                     17                     18
                      A                      A                      A
 Frequencies --    826.7765               923.4234               939.4453
 Red. masses --      3.0085                 1.7201                 2.3973
 Frc consts  --      1.2116                 0.8642                 1.2466
 IR Inten    --      9.7051                23.2208                 1.2408

                     19                     20                     21
                      A                      A                      A
 Frequencies --    982.5982              1014.8811              1036.2823
 Red. masses --      1.8209                 2.0652                 2.4837
 Frc consts  --      1.0358                 1.2532                 1.5715
 IR Inten    --      8.0984                12.7810                13.4206

                     22                     23                     24
                      A                      A                      A
 Frequencies --   1052.5889              1083.3729              1112.0224
 Red. masses --      2.3047                 1.8413                 1.8494
 Frc consts  --      1.5045                 1.2733                 1.3475
 IR Inten    --     25.0891                29.0739                 9.0131

                     25                     26                     27
                      A                      A                      A
 Frequencies --   1133.0343              1143.6817              1179.9930
 Red. masses --      2.0908                 1.6956                 1.2856
 Frc consts  --      1.5814                 1.3067                 1.0546
 IR Inten    --     47.3713                 3.7700                 2.8765

                     28                     29                     30
                      A                      A                      A
 Frequencies --   1189.3797              1214.9981              1224.3236
 Red. masses --      1.4866                 1.6958                 2.1156
 Frc consts  --      1.2391                 1.4749                 1.8685
 IR Inten    --      9.6768                11.1988                28.0118

                     31                     32                     33
                      A                      A                      A
 Frequencies --   1243.3926              1348.9647              1412.3796
 Red. masses --      2.0803                 1.9473                 1.9777
 Frc consts  --      1.8949                 2.0877                 2.3244
 IR Inten    --     27.8305               109.8528                25.3185

                     34                     35                     36
                      A                      A                      A
 Frequencies --   1415.8581              1454.4646              1487.5443
 Red. masses --      1.3826                 1.1375                 1.0871
 Frc consts  --      1.6329                 1.4178                 1.4173
 IR Inten    --     27.9333                 5.3617                 6.7146

                     37                     38                     39
                      A                      A                      A
 Frequencies --   1489.6245              1496.0776              1501.5660
 Red. masses --      1.1691                 1.0858                 1.1287
 Frc consts  --      1.5284                 1.4319                 1.4993
 IR Inten    --      4.8668                 8.3030                 6.3630

                     40                     41                     42
                      A                      A                      A
 Frequencies --   1507.7272              1883.5820              3000.4342
 Red. masses --      1.0554                12.4170                 1.0344
 Frc consts  --      1.4136                25.9560                 5.4866
 IR Inten    --     15.8918               371.1436                44.6104

                     43                     44                     45
                      A                      A                      A
 Frequencies --   3038.9083              3052.9724              3057.7719
 Red. masses --      1.0361                 1.0602                 1.1010
 Frc consts  --      5.6375                 5.8220                 6.0652
 IR Inten    --     23.5555                 7.4691                50.0772

                     46                     47                     48
                      A                      A                      A
 Frequencies --   3099.5946              3107.3801              3111.7399
 Red. masses --      1.1005                 1.0909                 1.1067
 Frc consts  --      6.2297                 6.2061                 6.3135
 IR Inten    --     18.2851                 5.7398                10.2788

                     49                     50                     51
                      A                      A                      A
 Frequencies --   3127.3991              3130.6844              3196.6805
 Red. masses --      1.0990                 1.0992                 1.0940
 Frc consts  --      6.3329                 6.3474                 6.5869
 IR Inten    --     22.9043                24.4904                 2.9858

 - Thermochemistry -
 -------------------
 Temperature   298.150 Kelvin.  Pressure   1.00000 Atm.
 Atom     1 has atomic number  6 and mass  12.00000

 Molecular mass:   126.06808 amu.
 Principal axes and moments of inertia in atomic units:
                           1         2         3
     Eigenvalues --   675.609571369.263031821.74718
           X            0.99997  -0.00488  -0.00574
           Y            0.00476   0.99977  -0.02114
           Z            0.00584   0.02112   0.99976
 This molecule is an asymmetric top.
 Rotational symmetry number  1.
 Warning -- assumption of classical behavior for rotation
           may cause significant error
 Rotational temperatures (Kelvin)      0.12820     0.06326     0.04754
 Rotational constants (GHZ):           2.67128     1.31804     0.99067
 Zero-point vibrational energy     412243.9 (Joules/Mol)
                                   98.52865 (Kcal/Mol)
 Warning -- explicit consideration of  12 degrees of freedom as
           vibrations may cause significant error
 Vibrational temperatures:    123.29   156.62   251.23   272.24   303.97
          (Kelvin)            348.62   374.25   521.14   590.55   695.83
                              712.90   794.36   927.54   987.96  1140.87
                             1189.55  1328.60  1351.65  1413.74  1460.19
                             1490.98  1514.44  1558.73  1599.95  1630.18
                             1645.50  1697.74  1711.25  1748.11  1761.53
                             1788.96  1940.86  2032.10  2037.10  2092.65
                             2140.24  2143.23  2152.52  2160.42  2169.28
                             2710.05  4316.95  4372.31  4392.54  4399.45
                             4459.62  4470.82  4477.09  4499.62  4504.35
                             4599.30

 Zero-point correction=                           0.157015 (Hartree/Particle)
 Thermal correction to Energy=                    0.166188
 Thermal correction to Enthalpy=                  0.167132
 Thermal correction to Gibbs Free Energy=         0.123102
 Sum of electronic and zero-point Energies=           -423.007150
 Sum of electronic and thermal Energies=              -422.997977
 Sum of electronic and thermal Enthalpies=            -422.997033
 Sum of electronic and thermal Free Energies=         -423.041064

                     E (Thermal)             CV                S
                      KCal/Mol        Cal/Mol-Kelvin    Cal/Mol-Kelvin
 Total                  104.285             33.886             92.670
 Electronic               0.000              0.000              0.000
 Translational            0.889              2.981             40.409
 Rotational               0.889              2.981             28.912
 Vibrational            102.507             27.924             23.349
 Vibration     1          0.601              1.959              3.756
 Vibration     2          0.606              1.942              3.289
 Vibration     3          0.627              1.874              2.385
 Vibration     4          0.633              1.855              2.236
 Vibration     5          0.643              1.824              2.033
 Vibration     6          0.658              1.775              1.786
 Vibration     7          0.668              1.746              1.661
 Vibration     8          0.736              1.550              1.113
 Vibration     9          0.775              1.448              0.925
 Vibration    10          0.840              1.286              0.700
 Vibration    11          0.851              1.260              0.669
 Vibration    12          0.907              1.135              0.540

 Optimization completed.
    -- Stationary point found.
 Normal termination of Gaussian 09 at Tue Jan 28 09:59:55 2020.
