 Gaussian 09, Revision D.01,
 Gaussian 09:  ES64L-G09RevD.01 24-Apr-2013

 -----------------------------
 # b3lyp 6-31G(2df,p) opt Freq
 -----------------------------

 -----
 titel
 -----
 Symbolic Z-matrix:
 Charge =  0 Multiplicity = 1

 SCF Done:  E(RB3LYP) =  -423.129466318     A.U. after   14 cycles
 Optimization completed.
    -- Stationary point found.
 Normal termination of Gaussian 09 at Mon Jan 27 23:03:39 2020.

 ----------------------------------------------------------------------
 #N Geom=AllCheck Guess=TCheck SCRF=Check GenChk RB3LYP/6-31G(2df,p) Fr
 eq
 ----------------------------------------------------------------------

 Structure from the checkpoint file:  "/scratch/puck/g09_e4230618-0092-46b5-94c0-6bce5b2a6a33/Gau-29546.chk"
 -----
 titel
 -----
 Charge =  0 Multiplicity = 1

                         Standard orientation:
 ---------------------------------------------------------------------
 Center     Atomic      Atomic             Coordinates (Angstroms)
 Number     Number       Type             X           Y           Z
 ---------------------------------------------------------------------
      1          6           0        2.774134    0.911846   -0.405952
      2          6           0        1.921098   -0.247476    0.078548
      3          6           0        0.674168   -0.089969    0.995196
      4          8           0        0.265813   -1.457522    0.596439
      5          6           0        0.652127   -0.767661   -0.661423
      6          6           0       -0.150470    0.478252   -0.199988
      7          6           0       -1.669243    0.481384   -0.071027
      8          6           0       -2.452212   -0.742611   -0.489278
      9          8           0       -2.206353    1.480447    0.353904
     10          1           0        3.432152    1.258116    0.397900
     11          1           0        3.413819    0.589557   -1.234397
     12          1           0        2.191383    1.769545   -0.750235
     13          1           0        2.533285   -1.088238    0.415625
     14          1           0        0.603637    0.171166    2.051383
     15          1           0        0.574466   -1.339029   -1.587565
     16          1           0        0.167108    1.453980   -0.571261
     17          1           0       -3.518130   -0.565794   -0.340524
     18          1           0       -2.259794   -0.967742   -1.545446
     19          1           0       -2.111219   -1.607554    0.085317
 ---------------------------------------------------------------------

 SCF Done:  E(RB3LYP) =  -423.129466318     A.U. after    1 cycles

 The electronic state is 1-A.
 Alpha  occ. eigenvalues --  -19.14392 -19.12424 -10.26815 -10.26050 -10.25861
 Alpha  occ. eigenvalues --  -10.20960 -10.20580 -10.19028 -10.17974  -1.06764
 Alpha  occ. eigenvalues --   -1.03457  -0.81355  -0.75631  -0.72474  -0.66574
 Alpha  occ. eigenvalues --   -0.66085  -0.56731  -0.53160  -0.50845  -0.47144
 Alpha  occ. eigenvalues --   -0.44918  -0.43467  -0.43435  -0.42612  -0.41270
 Alpha  occ. eigenvalues --   -0.39815  -0.38380  -0.36038  -0.35846  -0.33254
 Alpha  occ. eigenvalues --   -0.32778  -0.31812  -0.25550  -0.23676
 Alpha virt. eigenvalues --   -0.01417   0.07566   0.09694   0.10778   0.11623
 Alpha virt. eigenvalues --    0.12181   0.12842   0.13526   0.14348   0.16000
 Alpha virt. eigenvalues --    0.16843   0.17232   0.18033   0.19726   0.20676

 Mulliken charges:
               1
     1  C   -0.444926
     2  C    0.045083
     3  C    0.028930
     4  O   -0.313517
     5  C   -0.005011
     6  C   -0.082033
     7  C    0.356394
     8  C   -0.484908
     9  O   -0.305195
    10  H    0.129620
    11  H    0.127696
    12  H    0.127680
    13  H    0.091174
    14  H    0.106147
    15  H    0.096845
    16  H    0.097445
    17  H    0.133205
    18  H    0.129879
    19  H    0.165491
 Sum of Mulliken charges =   0.00000

 Dipole moment (field-independent basis, Debye):
    X=              2.4078    Y=             -0.6241    Z=             -1.4474  Tot=              2.8778
 Quadrupole moment (field-independent basis, Debye-Ang):
   XX=            -54.1651   YY=            -59.1202   ZZ=            -50.5474
   XY=              5.9442   XZ=              1.9833   YZ=              1.0159

  Exact polarizability:  91.506   0.738  72.104  -0.246   3.668  65.679
 Approx polarizability: 115.004  -4.979 118.060  -2.300   6.405 105.476

                      1                      2                      3
                      A                      A                      A
 Frequencies --     22.1897               147.0217               158.5945
 Red. masses --      4.1564                 1.9917                 1.8420
 Frc consts  --      0.0012                 0.0254                 0.0273
 IR Inten    --      5.6663                 2.6697                 0.0353

                      4                      5                      6
                      A                      A                      A
 Frequencies --    180.5171               181.3230               274.9395
 Red. masses --      1.4428                 1.4036                 3.5627
 Frc consts  --      0.0277                 0.0272                 0.1587
 IR Inten    --      0.3590                 2.1858                 2.8263

                      7                      8                      9
                      A                      A                      A
 Frequencies --    303.8963               392.6824               472.6638
 Red. masses --      2.5080                 3.7343                 4.7122
 Frc consts  --      0.1365                 0.3393                 0.6203
 IR Inten    --      0.1711                 0.4235                 8.2584

                     10                     11                     12
                      A                      A                      A
 Frequencies --    548.8369               587.9826               617.7105
 Red. masses --      2.7369                 4.0931                 3.5110
 Frc consts  --      0.4857                 0.8337                 0.7893
 IR Inten    --      2.7658                15.9536                 3.7510

                     13                     14                     15
                      A                      A                      A
 Frequencies --    746.1034               786.3046               806.6167
 Red. masses --      5.0472                 2.9627                 1.9955
 Frc consts  --      1.6554                 1.0793                 0.7649
 IR Inten    --     10.5367                 3.4536                11.0070

                     16                     17                     18
                      A                      A                      A
 Frequencies --    831.2484               864.8959               888.8828
 Red. masses --      3.0850                 2.5807                 3.1985
 Frc consts  --      1.2559                 1.1374                 1.4890
 IR Inten    --      0.9818                 5.8282                37.4563

                     19                     20                     21
                      A                      A                      A
 Frequencies --    961.3336              1001.4934              1030.2796
 Red. masses --      2.8732                 1.5611                 1.2501
 Frc consts  --      1.5645                 0.9225                 0.7818
 IR Inten    --      1.5379                 1.5762                 1.1131

                     22                     23                     24
                      A                      A                      A
 Frequencies --   1037.0935              1065.6222              1109.3124
 Red. masses --      1.4908                 1.9664                 1.5849
 Frc consts  --      0.9447                 1.3156                 1.1491
 IR Inten    --      0.5621                 1.4759                15.6553

                     25                     26                     27
                      A                      A                      A
 Frequencies --   1114.1184              1123.7607              1153.7811
 Red. masses --      2.6331                 1.6164                 2.5413
 Frc consts  --      1.9257                 1.2026                 1.9932
 IR Inten    --      4.2587                 9.6613                 6.4666

                     28                     29                     30
                      A                      A                      A
 Frequencies --   1173.4860              1223.9732              1250.0336
 Red. masses --      1.3408                 1.4926                 2.4493
 Frc consts  --      1.0879                 1.3174                 2.2549
 IR Inten    --      2.4346                10.5849                83.0354

                     31                     32                     33
                      A                      A                      A
 Frequencies --   1259.6371              1265.1431              1358.5839
 Red. masses --      1.4520                 1.8341                 1.6846
 Frc consts  --      1.3574                 1.7296                 1.8320
 IR Inten    --      1.0812                11.4791                 9.3201

                     34                     35                     36
                      A                      A                      A
 Frequencies --   1376.6336              1389.7817              1419.1441
 Red. masses --      1.3486                 1.5330                 1.2634
 Frc consts  --      1.5058                 1.7446                 1.4991
 IR Inten    --     49.9185                 7.7191                 7.0633

                     37                     38                     39
                      A                      A                      A
 Frequencies --   1467.5097              1470.0068              1493.4080
 Red. masses --      1.0534                 1.0531                 1.0462
 Frc consts  --      1.3366                 1.3408                 1.3747
 IR Inten    --      8.6411                13.9643                 3.8046

                     40                     41                     42
                      A                      A                      A
 Frequencies --   1500.9297              1798.4957              3036.9342
 Red. masses --      1.0544                10.7801                 1.0401
 Frc consts  --      1.3995                20.5443                 5.6517
 IR Inten    --      4.1868               165.3632                 4.0851

                     43                     44                     45
                      A                      A                      A
 Frequencies --   3039.7210              3079.1123              3099.3891
 Red. masses --      1.0371                 1.0850                 1.1004
 Frc consts  --      5.6458                 6.0607                 6.2282
 IR Inten    --     19.5905                12.7235                15.0371

                     46                     47                     48
                      A                      A                      A
 Frequencies --   3100.6215              3109.5367              3110.4845
 Red. masses --      1.0858                 1.0911                 1.0913
 Frc consts  --      6.1502                 6.2160                 6.2211
 IR Inten    --     17.5552                45.2106                15.7870

                     49                     50                     51
                      A                      A                      A
 Frequencies --   3122.2582              3123.6175              3158.0496
 Red. masses --      1.0954                 1.0963                 1.1047
 Frc consts  --      6.2915                 6.3025                 6.4916
 IR Inten    --     21.6165                32.2627                 9.0201

 - Thermochemistry -
 -------------------
 Temperature   298.150 Kelvin.  Pressure   1.00000 Atm.
 Atom     1 has atomic number  6 and mass  12.00000

 Molecular mass:   126.06808 amu.
 Principal axes and moments of inertia in atomic units:
                           1         2         3
     Eigenvalues --   552.557481545.034331795.68396
           X            0.99864   0.05200   0.00409
           Y           -0.05206   0.99849   0.01757
           Z           -0.00317  -0.01776   0.99984
 This molecule is an asymmetric top.
 Rotational symmetry number  1.
 Warning -- assumption of classical behavior for rotation
           may cause significant error
 Rotational temperatures (Kelvin)      0.15675     0.05606     0.04823
 Rotational constants (GHZ):           3.26616     1.16809     1.00504
 Zero-point vibrational energy     411728.9 (Joules/Mol)
                                   98.40557 (Kcal/Mol)
 Warning -- explicit consideration of  12 degrees of freedom as
           vibrations may cause significant error
 Vibrational temperatures:     31.93   211.53   228.18   259.72   260.88
          (Kelvin)            395.58   437.24   564.98   680.06   789.65
                              845.97   888.75  1073.48  1131.32  1160.54
                             1195.98  1244.39  1278.90  1383.14  1440.92
                             1482.34  1492.14  1533.19  1596.05  1602.97
                             1616.84  1660.03  1688.38  1761.02  1798.52
                             1812.33  1820.26  1954.70  1980.67  1999.58
                             2041.83  2111.42  2115.01  2148.68  2159.50
                             2587.63  4369.47  4373.48  4430.15  4459.32
                             4461.10  4473.92  4475.29  4492.23  4494.18
                             4543.72

 Zero-point correction=                           0.156819 (Hartree/Particle)
 Thermal correction to Energy=                    0.165776
 Thermal correction to Enthalpy=                  0.166720
 Thermal correction to Gibbs Free Energy=         0.122139
 Sum of electronic and zero-point Energies=           -422.972647
 Sum of electronic and thermal Energies=              -422.963690
 Sum of electronic and thermal Enthalpies=            -422.962746
 Sum of electronic and thermal Free Energies=         -423.007327

                     E (Thermal)             CV                S
                      KCal/Mol        Cal/Mol-Kelvin    Cal/Mol-Kelvin
 Total                  104.026             33.118             93.828
 Electronic               0.000              0.000              0.000
 Translational            0.889              2.981             40.409
 Rotational               0.889              2.981             28.818
 Vibrational            102.249             27.156             24.601
 Vibration     1          0.593              1.985              6.428
 Vibration     2          0.617              1.906              2.710
 Vibration     3          0.621              1.893              2.566
 Vibration     4          0.629              1.866              2.323
 Vibration     5          0.630              1.865              2.315
 Vibration     6          0.677              1.720              1.565
 Vibration     7          0.695              1.666              1.395
 Vibration     8          0.760              1.486              0.990
 Vibration     9          0.830              1.311              0.730
 Vibration    10          0.904              1.142              0.547
 Vibration    11          0.945              1.057              0.471
 Vibration    12          0.977              0.994              0.420

 Optimization completed.
    -- Stationary point found.
 Normal termination of Gaussian 09 at Mon Jan 27 23:47:15 2020.
