 Gaussian 09, Revision D.01,
 Gaussian 09:  ES64L-G09RevD.01 24-Apr-2013

 -----------------------------
 # b3lyp 6-31G(2df,p) opt Freq
 -----------------------------

 -----
 titel
 -----
 Symbolic Z-matrix:
 Charge =  0 Multiplicity = 1

 SCF Done:  E(RB3LYP) =  -423.162053210     A.U. after   14 cycles
 Optimization completed.
    -- Stationary point found.
 Normal termination of Gaussian 09 at Mon Jan 27 22:55:53 2020.

 ----------------------------------------------------------------------
 #N Geom=AllCheck Guess=TCheck SCRF=Check GenChk RB3LYP/6-31G(2df,p) Fr
 eq
 ----------------------------------------------------------------------

 Structure from the checkpoint file:  "/scratch/puck/g09_505a3827-34db-4aae-b214-535d6848f701/Gau-65115.chk"
 -----
 titel
 -----
 Charge =  0 Multiplicity = 1

                         Standard orientation:
 ---------------------------------------------------------------------
 Center     Atomic      Atomic             Coordinates (Angstroms)
 Number     Number       Type             X           Y           Z
 ---------------------------------------------------------------------
      1          6           0        2.419222   -0.481436   -0.852655
      2          6           0        1.382758   -0.797634    0.201779
      3          6           0        0.806786    0.206293    1.122979
      4          8           0        0.685930    1.488010    0.533538
      5          6           0       -0.260876    0.986079   -0.471591
      6          6           0       -1.616467    1.639236   -0.305601
      7          6           0       -0.110456   -0.442061    0.060137
      8          6           0       -1.152156   -1.457747    0.213111
      9          8           0       -2.260562   -1.401221   -0.270020
     10          1           0        2.272759   -1.087086   -1.752200
     11          1           0        2.385819    0.574076   -1.129596
     12          1           0        3.421478   -0.690213   -0.464821
     13          1           0        1.488509   -1.774753    0.672797
     14          1           0        0.784016    0.140250    2.205801
     15          1           0        0.130153    1.151158   -1.482561
     16          1           0       -1.996581    1.496701    0.709309
     17          1           0       -1.530059    2.712503   -0.499533
     18          1           0       -2.332990    1.200991   -1.004168
     19          1           0       -0.838917   -2.334323    0.827880
 ---------------------------------------------------------------------

 SCF Done:  E(RB3LYP) =  -423.162053210     A.U. after    1 cycles

 The electronic state is 1-A.
 Alpha  occ. eigenvalues --  -19.15233 -19.13269 -10.27104 -10.26154 -10.24966
 Alpha  occ. eigenvalues --  -10.21796 -10.21234 -10.18963 -10.17673  -1.06706
 Alpha  occ. eigenvalues --   -1.03920  -0.85922  -0.76579  -0.73020  -0.66544
 Alpha  occ. eigenvalues --   -0.63538  -0.58711  -0.53847  -0.51349  -0.49387
 Alpha  occ. eigenvalues --   -0.47133  -0.44505  -0.42799  -0.41565  -0.40173
 Alpha  occ. eigenvalues --   -0.39482  -0.39020  -0.37291  -0.37150  -0.35759
 Alpha  occ. eigenvalues --   -0.32693  -0.27870  -0.26179  -0.24328
 Alpha virt. eigenvalues --   -0.02400   0.07023   0.09039   0.10238   0.11782
 Alpha virt. eigenvalues --    0.11942   0.13113   0.15152   0.15362   0.16265
 Alpha virt. eigenvalues --    0.17713   0.18038   0.18994   0.19632   0.22094

 Mulliken charges:
               1
     1  C   -0.424039
     2  C   -0.094877
     3  C    0.043974
     4  O   -0.291812
     5  C    0.059925
     6  C   -0.395393
     7  C    0.169524
     8  C    0.051567
     9  O   -0.277977
    10  H    0.126145
    11  H    0.144715
    12  H    0.126345
    13  H    0.100825
    14  H    0.116334
    15  H    0.087661
    16  H    0.124053
    17  H    0.121247
    18  H    0.143984
    19  H    0.067801
 Sum of Mulliken charges =   0.00000

 Dipole moment (field-independent basis, Debye):
    X=              2.2544    Y=             -0.5028    Z=              0.4912  Tot=              2.3614
 Quadrupole moment (field-independent basis, Debye-Ang):
   XX=            -59.0049   YY=            -55.1338   ZZ=            -50.4406
   XY=             -6.5717   XZ=             -1.3201   YZ=             -3.2121

  Exact polarizability:  90.605  -1.561  76.540   3.210  -3.300  66.438
 Approx polarizability: 134.647   5.138 112.123  14.358  -0.284 104.350

                      1                      2                      3
                      A                      A                      A
 Frequencies --     99.8470               143.4156               186.7633
 Red. masses --      4.5889                 2.1238                 1.3713
 Frc consts  --      0.0270                 0.0257                 0.0282
 IR Inten    --      5.5355                 0.5256                 1.4426

                      4                      5                      6
                      A                      A                      A
 Frequencies --    190.8176               225.8850               242.7062
 Red. masses --      4.4057                 2.0483                 1.1455
 Frc consts  --      0.0945                 0.0616                 0.0398
 IR Inten    --      6.9499                 2.9037                 1.4072

                      7                      8                      9
                      A                      A                      A
 Frequencies --    259.6928               328.7912               380.9485
 Red. masses --      2.2234                 3.1889                 2.9232
 Frc consts  --      0.0883                 0.2031                 0.2499
 IR Inten    --      0.7095                 1.9215                 1.2135

                     10                     11                     12
                      A                      A                      A
 Frequencies --    436.2146               542.8667               616.1560
 Red. masses --      4.8925                 3.3760                 3.5400
 Frc consts  --      0.5485                 0.5862                 0.7918
 IR Inten    --      6.1663                 2.9500                17.3312

                     13                     14                     15
                      A                      A                      A
 Frequencies --    712.6770               724.9879               787.1420
 Red. masses --      4.2571                 3.3266                 2.3120
 Frc consts  --      1.2739                 1.0302                 0.8440
 IR Inten    --     42.7964                 3.8871                 3.2825

                     16                     17                     18
                      A                      A                      A
 Frequencies --    858.7324               895.1115               956.6320
 Red. masses --      3.3513                 2.8483                 1.6515
 Frc consts  --      1.4561                 1.3446                 0.8905
 IR Inten    --     28.5683                12.2378                30.8395

                     19                     20                     21
                      A                      A                      A
 Frequencies --    976.9210               995.6193              1040.2988
 Red. masses --      2.1029                 1.7108                 1.5894
 Frc consts  --      1.1825                 0.9991                 1.0135
 IR Inten    --     13.6670                29.1742                 1.3522

                     22                     23                     24
                      A                      A                      A
 Frequencies --   1067.9904              1071.2094              1094.8042
 Red. masses --      1.8195                 1.6396                 1.7949
 Frc consts  --      1.2228                 1.1085                 1.2676
 IR Inten    --     23.4345                 5.0022                15.7962

                     25                     26                     27
                      A                      A                      A
 Frequencies --   1103.6248              1118.9129              1154.2459
 Red. masses --      2.5639                 1.8816                 2.5144
 Frc consts  --      1.8399                 1.3879                 1.9737
 IR Inten    --     30.1030                 8.1040                19.3608

                     28                     29                     30
                      A                      A                      A
 Frequencies --   1223.1923              1264.5362              1332.8560
 Red. masses --      1.4716                 1.3669                 2.2328
 Frc consts  --      1.2973                 1.2878                 2.3370
 IR Inten    --      1.4475                 3.8061                20.6315

                     31                     32                     33
                      A                      A                      A
 Frequencies --   1341.4578              1381.8385              1408.3765
 Red. masses --      1.9773                 1.4303                 1.2952
 Frc consts  --      2.0964                 1.6092                 1.5136
 IR Inten    --     38.5931                 6.9975                10.7090

                     34                     35                     36
                      A                      A                      A
 Frequencies --   1411.7307              1428.1195              1456.4195
 Red. masses --      1.2495                 1.2707                 2.3330
 Frc consts  --      1.4672                 1.5270                 2.9156
 IR Inten    --      2.5257                 1.1439                25.7774

                     37                     38                     39
                      A                      A                      A
 Frequencies --   1478.5453              1491.7918              1494.5375
 Red. masses --      1.0635                 1.0572                 1.0791
 Frc consts  --      1.3699                 1.3862                 1.4201
 IR Inten    --      5.7024                 2.1638                 4.5765

                     40                     41                     42
                      A                      A                      A
 Frequencies --   1504.1212              1791.0662              2851.1466
 Red. masses --      1.0822                10.3599                 1.0810
 Frc consts  --      1.4425                19.5807                 5.1776
 IR Inten    --      8.7687               259.5838               115.0396

                     43                     44                     45
                      A                      A                      A
 Frequencies --   3036.7821              3043.8127              3048.3186
 Red. masses --      1.0821                 1.0389                 1.0353
 Frc consts  --      5.8795                 5.6711                 5.6682
 IR Inten    --     26.1931                36.3557                11.6235

                     46                     47                     48
                      A                      A                      A
 Frequencies --   3103.6849              3116.2327              3123.4031
 Red. masses --      1.1010                 1.0868                 1.1024
 Frc consts  --      6.2486                 6.2180                 6.3365
 IR Inten    --     14.8384                 4.9165                20.3857

                     49                     50                     51
                      A                      A                      A
 Frequencies --   3137.5382              3138.0211              3170.9914
 Red. masses --      1.1009                 1.0983                 1.0933
 Frc consts  --      6.3851                 6.3721                 6.4773
 IR Inten    --     10.7179                12.9093                19.6861

 - Thermochemistry -
 -------------------
 Temperature   298.150 Kelvin.  Pressure   1.00000 Atm.
 Atom     1 has atomic number  6 and mass  12.00000

 Molecular mass:   126.06808 amu.
 Principal axes and moments of inertia in atomic units:
                           1         2         3
     Eigenvalues --   784.951541168.694091605.00629
           X            0.99139  -0.12959  -0.01881
           Y            0.12891   0.99109  -0.03364
           Z            0.02301   0.03093   0.99926
 This molecule is an asymmetric top.
 Rotational symmetry number  1.
 Warning -- assumption of classical behavior for rotation
           may cause significant error
 Rotational temperatures (Kelvin)      0.11034     0.07411     0.05396
 Rotational constants (GHZ):           2.29918     1.54424     1.12444
 Zero-point vibrational energy     412661.0 (Joules/Mol)
                                   98.62835 (Kcal/Mol)
 Warning -- explicit consideration of  12 degrees of freedom as
           vibrations may cause significant error
 Vibrational temperatures:    143.66   206.34   268.71   274.54   325.00
          (Kelvin)            349.20   373.64   473.06   548.10   627.61
                              781.06   886.51  1025.38  1043.09  1132.52
                             1235.52  1287.86  1376.38  1405.57  1432.47
                             1496.76  1536.60  1541.23  1575.18  1587.87
                             1609.86  1660.70  1759.90  1819.38  1917.68
                             1930.06  1988.15  2026.34  2031.16  2054.74
                             2095.46  2127.29  2146.35  2150.30  2164.09
                             2576.94  4102.16  4369.25  4379.36  4385.85
                             4465.50  4483.56  4493.87  4514.21  4514.91
                             4562.34

 Zero-point correction=                           0.157174 (Hartree/Particle)
 Thermal correction to Energy=                    0.166197
 Thermal correction to Enthalpy=                  0.167141
 Thermal correction to Gibbs Free Energy=         0.123681
 Sum of electronic and zero-point Energies=           -423.004879
 Sum of electronic and thermal Energies=              -422.995856
 Sum of electronic and thermal Enthalpies=            -422.994912
 Sum of electronic and thermal Free Energies=         -423.038372

                     E (Thermal)             CV                S
                      KCal/Mol        Cal/Mol-Kelvin    Cal/Mol-Kelvin
 Total                  104.290             33.530             91.470
 Electronic               0.000              0.000              0.000
 Translational            0.889              2.981             40.409
 Rotational               0.889              2.981             28.778
 Vibrational            102.513             27.569             22.284
 Vibration     1          0.604              1.949              3.457
 Vibration     2          0.616              1.910              2.758
 Vibration     3          0.632              1.858              2.260
 Vibration     4          0.634              1.853              2.220
 Vibration     5          0.650              1.802              1.911
 Vibration     6          0.659              1.775              1.783
 Vibration     7          0.668              1.746              1.664
 Vibration     8          0.712              1.618              1.266
 Vibration     9          0.751              1.511              1.035
 Vibration    10          0.797              1.391              0.839
 Vibration    11          0.898              1.155              0.559
 Vibration    12          0.976              0.998              0.423

 Normal termination of Gaussian 09 at Mon Jan 27 23:38:20 2020.
