 Gaussian 09, Revision D.01,
 Gaussian 09:  ES64L-G09RevD.01 24-Apr-2013

 -----------------------------
 # b3lyp 6-31G(2df,p) opt Freq
 -----------------------------

 -----
 titel
 -----
 Symbolic Z-matrix:
 Charge =  0 Multiplicity = 1

 SCF Done:  E(RB3LYP) =  -423.203370078     A.U. after   14 cycles
 Optimization completed.
    -- Stationary point found.
 Normal termination of Gaussian 09 at Tue Jan 28 03:22:03 2020.

 ----------------------------------------------------------------------
 #N Geom=AllCheck Guess=TCheck SCRF=Check GenChk RB3LYP/6-31G(2df,p) Fr
 eq
 ----------------------------------------------------------------------

 Structure from the checkpoint file:  "/scratch/puck/g09_8fa0940a-33db-4e25-a372-544980064759/Gau-173915.chk"
 -----
 titel
 -----
 Charge =  0 Multiplicity = 1

                         Standard orientation:
 ---------------------------------------------------------------------
 Center     Atomic      Atomic             Coordinates (Angstroms)
 Number     Number       Type             X           Y           Z
 ---------------------------------------------------------------------
      1          6           0       -1.682334    1.268257    0.895534
      2          6           0       -1.073193    0.664251   -0.386594
      3          6           0        0.251511    1.368848   -0.763994
      4          6           0        1.467403    0.842820   -0.021886
      5          8           0        2.043082   -0.358412   -0.552737
      6          6           0        1.436059   -0.420845    0.738579
      7          6           0        0.177966   -1.254664    0.819215
      8          6           0       -0.876143   -0.839915   -0.206230
      9          8           0       -1.541535   -1.655151   -0.797621
     10          1           0       -1.950501    2.315159    0.722768
     11          1           0       -2.588477    0.733445    1.195835
     12          1           0       -0.976991    1.242039    1.732521
     13          1           0       -1.792195    0.778958   -1.202241
     14          1           0        0.446502    1.254324   -1.835697
     15          1           0        0.147427    2.443285   -0.575607
     16          1           0        2.210679    1.587361    0.263763
     17          1           0        2.143126   -0.553336    1.558726
     18          1           0        0.402063   -2.315429    0.674478
     19          1           0       -0.261614   -1.149822    1.820570
 ---------------------------------------------------------------------

 SCF Done:  E(RB3LYP) =  -423.203370077     A.U. after    1 cycles

 The electronic state is 1-A.
 Alpha  occ. eigenvalues --  -19.15421 -19.12880 -10.26823 -10.24809 -10.24548
 Alpha  occ. eigenvalues --  -10.20151 -10.19917 -10.19754 -10.19304  -1.07763
 Alpha  occ. eigenvalues --   -1.03971  -0.82315  -0.76740  -0.72667  -0.66116
 Alpha  occ. eigenvalues --   -0.62236  -0.60171  -0.52995  -0.49509  -0.48181
 Alpha  occ. eigenvalues --   -0.47006  -0.45587  -0.43170  -0.42245  -0.41437
 Alpha  occ. eigenvalues --   -0.40341  -0.38062  -0.37496  -0.36755  -0.34062
 Alpha  occ. eigenvalues --   -0.33914  -0.29977  -0.27308  -0.24014
 Alpha virt. eigenvalues --   -0.01458   0.07438   0.08856   0.10676   0.11286
 Alpha virt. eigenvalues --    0.11964   0.13229   0.14801   0.16068   0.16546
 Alpha virt. eigenvalues --    0.17482   0.17718   0.19139   0.19674   0.21626

 Mulliken charges:
               1
     1  C   -0.411082
     2  C   -0.077851
     3  C   -0.252969
     4  C    0.040147
     5  O   -0.250968
     6  C    0.054679
     7  C   -0.342830
     8  C    0.392841
     9  O   -0.316149
    10  H    0.125549
    11  H    0.131866
    12  H    0.123061
    13  H    0.097883
    14  H    0.129521
    15  H    0.103245
    16  H    0.096447
    17  H    0.093534
    18  H    0.136406
    19  H    0.126671
 Sum of Mulliken charges =   0.00000

 Dipole moment (field-independent basis, Debye):
    X=              0.3462    Y=              2.7451    Z=              2.4562  Tot=              3.6998
 Quadrupole moment (field-independent basis, Debye-Ang):
   XX=            -57.6511   YY=            -54.0929   ZZ=            -52.6050
   XY=             -2.5941   XZ=              0.6319   YZ=             -4.2189

  Exact polarizability:  75.517   1.161  79.370   3.377  -2.575  67.573
 Approx polarizability: 104.851   4.676 117.767   4.916   1.544 106.771

                      1                      2                      3
                      A                      A                      A
 Frequencies --     75.7131                92.6293               219.5904
 Red. masses --      3.1844                 4.6867                 1.9176
 Frc consts  --      0.0108                 0.0237                 0.0545
 IR Inten    --      1.1998                 2.0449                 1.4960

                      4                      5                      6
                      A                      A                      A
 Frequencies --    248.6993               288.4447               336.9451
 Red. masses --      1.3837                 3.3021                 2.1904
 Frc consts  --      0.0504                 0.1619                 0.1465
 IR Inten    --      0.7016                 1.3412                 1.9118

                      7                      8                      9
                      A                      A                      A
 Frequencies --    387.3105               470.8587               501.0377
 Red. masses --      2.6227                 4.0889                 4.0559
 Frc consts  --      0.2318                 0.5341                 0.5999
 IR Inten    --      8.0385                 8.2179                 3.1278

                     10                     11                     12
                      A                      A                      A
 Frequencies --    544.6661               598.2223               692.1421
 Red. masses --      4.7050                 2.8015                 4.2431
 Frc consts  --      0.8224                 0.5907                 1.1976
 IR Inten    --      5.1044                 0.4939                 2.2388

                     13                     14                     15
                      A                      A                      A
 Frequencies --    782.6199               807.2710               839.6531
 Red. masses --      4.7885                 2.6265                 2.2434
 Frc consts  --      1.7280                 1.0085                 0.9319
 IR Inten    --      6.0444                13.3798                 5.0389

                     16                     17                     18
                      A                      A                      A
 Frequencies --    874.5863               902.3528               946.7617
 Red. masses --      2.3751                 2.2464                 3.4298
 Frc consts  --      1.0704                 1.0777                 1.8113
 IR Inten    --      3.9161                10.4952                 7.7050

                     19                     20                     21
                      A                      A                      A
 Frequencies --    992.9436              1000.8121              1024.6845
 Red. masses --      1.8035                 1.8539                 1.8721
 Frc consts  --      1.0476                 1.0941                 1.1582
 IR Inten    --     11.4151                 7.6061                19.0219

                     22                     23                     24
                      A                      A                      A
 Frequencies --   1075.8868              1078.8672              1116.1595
 Red. masses --      1.2775                 2.1611                 1.5637
 Frc consts  --      0.8713                 1.4820                 1.1478
 IR Inten    --      1.3157                 5.1458                 4.5314

                     25                     26                     27
                      A                      A                      A
 Frequencies --   1156.9262              1208.3653              1225.6617
 Red. masses --      1.5030                 1.9086                 1.4575
 Frc consts  --      1.1853                 1.6419                 1.2901
 IR Inten    --      1.0174                23.9402                17.7162

                     28                     29                     30
                      A                      A                      A
 Frequencies --   1255.6397              1292.7373              1293.2874
 Red. masses --      1.3817                 1.2828                 1.6353
 Frc consts  --      1.2835                 1.2631                 1.6115
 IR Inten    --      8.7057                 3.5068                 3.3575

                     31                     32                     33
                      A                      A                      A
 Frequencies --   1328.9886              1342.4037              1373.0763
 Red. masses --      1.9569                 1.3899                 1.3816
 Frc consts  --      2.0364                 1.4758                 1.5347
 IR Inten    --      5.5883                 1.3439                 8.4891

                     34                     35                     36
                      A                      A                      A
 Frequencies --   1391.5117              1411.8430              1451.7409
 Red. masses --      1.3894                 1.2364                 1.1635
 Frc consts  --      1.5850                 1.4520                 1.4447
 IR Inten    --      4.6728                 2.2526                13.1314

                     37                     38                     39
                      A                      A                      A
 Frequencies --   1470.8639              1480.7373              1502.0534
 Red. masses --      1.8168                 1.2987                 1.0673
 Frc consts  --      2.3158                 1.6777                 1.4187
 IR Inten    --      7.0200                 6.1728                 3.5744

                     40                     41                     42
                      A                      A                      A
 Frequencies --   1502.3177              1822.6316              3027.6464
 Red. masses --      1.0441                11.5317                 1.0639
 Frc consts  --      1.3884                22.5705                 5.7462
 IR Inten    --      5.6837               176.4183                 6.0097

                     43                     44                     45
                      A                      A                      A
 Frequencies --   3035.6318              3038.5897              3071.4151
 Red. masses --      1.0397                 1.0563                 1.0888
 Frc consts  --      5.6450                 5.7464                 6.0518
 IR Inten    --     20.5283                19.2452                 8.2574

                     46                     47                     48
                      A                      A                      A
 Frequencies --   3080.6064              3094.1813              3096.8375
 Red. masses --      1.0993                 1.0924                 1.0888
 Frc consts  --      6.1467                 6.1621                 6.1521
 IR Inten    --     12.5914                 7.0010                27.7630

                     49                     50                     51
                      A                      A                      A
 Frequencies --   3107.2208              3110.7564              3111.9484
 Red. masses --      1.1009                 1.0928                 1.1005
 Frc consts  --      6.2624                 6.2305                 6.2793
 IR Inten    --     24.4462                27.9703                47.6413

 - Thermochemistry -
 -------------------
 Temperature   298.150 Kelvin.  Pressure   1.00000 Atm.
 Atom     1 has atomic number  6 and mass  12.00000

 Molecular mass:   126.06808 amu.
 Principal axes and moments of inertia in atomic units:
                           1         2         3
     Eigenvalues --   786.969511084.020621408.28204
           X            0.99690  -0.07848  -0.00592
           Y            0.07817   0.99609  -0.04110
           Z            0.00913   0.04051   0.99914
 This molecule is an asymmetric top.
 Rotational symmetry number  1.
 Warning -- assumption of classical behavior for rotation
           may cause significant error
 Rotational temperatures (Kelvin)      0.11006     0.07990     0.06150
 Rotational constants (GHZ):           2.29328     1.66486     1.28152
 Zero-point vibrational energy     419796.4 (Joules/Mol)
                                  100.33375 (Kcal/Mol)
 Warning -- explicit consideration of  11 degrees of freedom as
           vibrations may cause significant error
 Vibrational temperatures:    108.93   133.27   315.94   357.82   415.01
          (Kelvin)            484.79   557.25   677.46   720.88   783.65
                              860.71   995.84  1126.01  1161.48  1208.07
                             1258.33  1298.28  1362.18  1428.62  1439.94
                             1474.29  1547.96  1552.25  1605.90  1664.56
                             1738.57  1763.45  1806.58  1859.96  1860.75
                             1912.12  1931.42  1975.55  2002.07  2031.32
                             2088.73  2116.24  2130.45  2161.12  2161.50
                             2622.36  4356.10  4367.59  4371.85  4419.08
                             4432.30  4451.83  4455.65  4470.59  4475.68
                             4477.39

 Zero-point correction=                           0.159892 (Hartree/Particle)
 Thermal correction to Energy=                    0.168077
 Thermal correction to Enthalpy=                  0.169021
 Thermal correction to Gibbs Free Energy=         0.126930
 Sum of electronic and zero-point Energies=           -423.043478
 Sum of electronic and thermal Energies=              -423.035293
 Sum of electronic and thermal Enthalpies=            -423.034349
 Sum of electronic and thermal Free Energies=         -423.076440

                     E (Thermal)             CV                S
                      KCal/Mol        Cal/Mol-Kelvin    Cal/Mol-Kelvin
 Total                  105.470             31.314             88.588
 Electronic               0.000              0.000              0.000
 Translational            0.889              2.981             40.409
 Rotational               0.889              2.981             28.576
 Vibrational            103.692             25.352             19.604
 Vibration     1          0.599              1.965              3.999
 Vibration     2          0.602              1.954              3.604
 Vibration     3          0.647              1.811              1.962
 Vibration     4          0.662              1.765              1.740
 Vibration     5          0.685              1.695              1.483
 Vibration     6          0.718              1.602              1.227
 Vibration     7          0.756              1.497              1.010
 Vibration     8          0.828              1.315              0.735
 Vibration     9          0.856              1.248              0.656
 Vibration    10          0.900              1.151              0.555
 Vibration    11          0.956              1.036              0.453

 Normal termination of Gaussian 09 at Tue Jan 28 03:58:05 2020.
