 Gaussian 09, Revision D.01,
 Gaussian 09:  ES64L-G09RevD.01 24-Apr-2013

 -----------------------------
 # b3lyp 6-31G(2df,p) opt Freq
 -----------------------------

 -----
 titel
 -----
 Symbolic Z-matrix:
 Charge =  0 Multiplicity = 1

 SCF Done:  E(RB3LYP) =  -423.229605422     A.U. after   14 cycles
 Optimization completed.
    -- Stationary point found.
 Normal termination of Gaussian 09 at Tue Jan 28 03:56:54 2020.

 ----------------------------------------------------------------------
 #N Geom=AllCheck Guess=TCheck SCRF=Check GenChk RB3LYP/6-31G(2df,p) Fr
 eq
 ----------------------------------------------------------------------

 Structure from the checkpoint file:  "/scratch/puck/g09_534b6232-d0c6-4eb2-8b22-f128a7be523a/Gau-3138.chk"
 -----
 titel
 -----
 Charge =  0 Multiplicity = 1

                         Standard orientation:
 ---------------------------------------------------------------------
 Center     Atomic      Atomic             Coordinates (Angstroms)
 Number     Number       Type             X           Y           Z
 ---------------------------------------------------------------------
      1          6           0        2.100935    1.581091    0.171290
      2          6           0        0.861889    0.736060    0.159419
      3          6           0       -0.368640    1.242839   -0.030657
      4          6           0       -1.599221    0.426771   -0.094124
      5          8           0       -2.695335    0.939645   -0.207435
      6          6           0       -1.411885   -1.085030   -0.056415
      7          6           0       -0.184955   -1.494361    0.765252
      8          6           0        1.080372   -0.760091    0.310645
      9          8           0        1.625894   -1.287768   -0.904514
     10          1           0        2.587587    1.538240    1.154156
     11          1           0        2.824817    1.189358   -0.552242
     12          1           0        1.889511    2.626261   -0.064929
     13          1           0       -0.521630    2.311745   -0.156539
     14          1           0       -2.333249   -1.538946    0.315757
     15          1           0       -1.300939   -1.424217   -1.096758
     16          1           0       -0.360266   -1.257043    1.821625
     17          1           0       -0.008971   -2.572091    0.698515
     18          1           0        1.873120   -0.930551    1.047943
     19          1           0        1.034578   -1.041454   -1.624402
 ---------------------------------------------------------------------

 SCF Done:  E(RB3LYP) =  -423.229605422     A.U. after    1 cycles

 The electronic state is 1-A.
 Alpha  occ. eigenvalues --  -19.15034 -19.12006 -10.26275 -10.24785 -10.21874
 Alpha  occ. eigenvalues --  -10.19476 -10.19367 -10.19290 -10.19125  -1.03140
 Alpha  occ. eigenvalues --   -1.02866  -0.84057  -0.78277  -0.72695  -0.69879
 Alpha  occ. eigenvalues --   -0.62196  -0.58513  -0.53925  -0.49055  -0.47578
 Alpha  occ. eigenvalues --   -0.46395  -0.44767  -0.43038  -0.42416  -0.40871
 Alpha  occ. eigenvalues --   -0.39832  -0.39131  -0.38230  -0.35751  -0.34708
 Alpha  occ. eigenvalues --   -0.33172  -0.28398  -0.26810  -0.23908
 Alpha virt. eigenvalues --   -0.05311   0.05832   0.06338   0.09250   0.11746
 Alpha virt. eigenvalues --    0.12909   0.13820   0.15383   0.16184   0.16591
 Alpha virt. eigenvalues --    0.17072   0.18327   0.20583   0.21309   0.23438

 Mulliken charges:
               1
     1  C   -0.482125
     2  C    0.289253
     3  C   -0.254813
     4  C    0.380907
     5  O   -0.331470
     6  C   -0.330745
     7  C   -0.243184
     8  C    0.048613
     9  O   -0.435089
    10  H    0.136399
    11  H    0.150270
    12  H    0.129647
    13  H    0.101427
    14  H    0.126947
    15  H    0.117233
    16  H    0.109461
    17  H    0.112318
    18  H    0.091554
    19  H    0.283399
 Sum of Mulliken charges =   0.00000

 Dipole moment (field-independent basis, Debye):
    X=              2.3424    Y=             -0.5025    Z=              0.4018  Tot=              2.4292
 Quadrupole moment (field-independent basis, Debye-Ang):
   XX=            -64.0120   YY=            -53.4553   ZZ=            -50.2959
   XY=              7.9267   XZ=              1.0022   YZ=             -0.4689

  Exact polarizability: 101.973  -0.740  79.188   3.638  -1.311  58.701
 Approx polarizability: 164.591 -15.459 110.556   7.093  -0.552  92.698

                      1                      2                      3
                      A                      A                      A
 Frequencies --     75.6128               148.9465               187.4770
 Red. masses --      4.7883                 2.4665                 1.6878
 Frc consts  --      0.0161                 0.0322                 0.0350
 IR Inten    --      6.1639                 1.4222                 3.1224

                      4                      5                      6
                      A                      A                      A
 Frequencies --    202.0367               248.4976               295.5427
 Red. masses --      1.7284                 2.8695                 2.1217
 Frc consts  --      0.0416                 0.1044                 0.1092
 IR Inten    --      2.4265                 0.8591                 9.9753

                      7                      8                      9
                      A                      A                      A
 Frequencies --    327.4167               381.7983               426.2890
 Red. masses --      1.3329                 2.5931                 3.4868
 Frc consts  --      0.0842                 0.2227                 0.3733
 IR Inten    --     61.4792                21.4513                 2.5712

                     10                     11                     12
                      A                      A                      A
 Frequencies --    488.1570               521.8375               557.8532
 Red. masses --      4.2616                 4.8414                 2.5718
 Frc consts  --      0.5983                 0.7768                 0.4715
 IR Inten    --      4.4181                 1.1242                 4.5181

                     13                     14                     15
                      A                      A                      A
 Frequencies --    631.7021               669.8278               766.9056
 Red. masses --      3.0907                 3.6951                 2.0445
 Frc consts  --      0.7267                 0.9768                 0.7085
 IR Inten    --      4.0808                 0.6535                 3.8507

                     16                     17                     18
                      A                      A                      A
 Frequencies --    831.9520               885.7999               914.6043
 Red. masses --      2.5779                 3.0908                 1.3896
 Frc consts  --      1.0513                 1.4289                 0.6848
 IR Inten    --      5.9021                10.6820                 9.5894

                     19                     20                     21
                      A                      A                      A
 Frequencies --    970.4275               975.3602              1025.6834
 Red. masses --      2.1451                 2.2708                 1.6132
 Frc consts  --      1.1902                 1.2728                 0.9999
 IR Inten    --     42.1754                 4.8901                16.7749

                     22                     23                     24
                      A                      A                      A
 Frequencies --   1061.1758              1072.6627              1087.1552
 Red. masses --      1.5541                 2.6109                 1.9710
 Frc consts  --      1.0311                 1.7700                 1.3725
 IR Inten    --      4.5220                38.2500                 8.4044

                     25                     26                     27
                      A                      A                      A
 Frequencies --   1163.7331              1167.4460              1211.6335
 Red. masses --      2.1258                 1.3015                 1.7093
 Frc consts  --      1.6962                 1.0451                 1.4785
 IR Inten    --      3.1587                27.2021                42.3905

                     28                     29                     30
                      A                      A                      A
 Frequencies --   1259.3192              1265.4817              1326.5020
 Red. masses --      1.7135                 1.4209                 1.6362
 Frc consts  --      1.6011                 1.3407                 1.6963
 IR Inten    --     43.7660                21.5951                21.0820

                     31                     32                     33
                      A                      A                      A
 Frequencies --   1346.6987              1369.2301              1392.8108
 Red. masses --      1.4800                 1.9824                 1.4664
 Frc consts  --      1.5814                 2.1897                 1.6760
 IR Inten    --      3.8051                 6.9923                 0.9148

                     34                     35                     36
                      A                      A                      A
 Frequencies --   1403.6048              1422.4290              1465.3656
 Red. masses --      1.3384                 1.2073                 1.0801
 Frc consts  --      1.5536                 1.4393                 1.3665
 IR Inten    --     10.5361                46.6560                 8.3153

                     37                     38                     39
                      A                      A                      A
 Frequencies --   1474.3500              1480.9019              1484.6490
 Red. masses --      1.0499                 1.0955                 1.0662
 Frc consts  --      1.3447                 1.4155                 1.3846
 IR Inten    --     10.5660                 7.4005                13.0558

                     40                     41                     42
                      A                      A                      A
 Frequencies --   1690.9340              1775.1021              3012.6844
 Red. masses --      7.1857                11.5184                 1.0703
 Frc consts  --     12.1052                21.3839                 5.7237
 IR Inten    --     42.8407               232.8581                 9.3066

                     43                     44                     45
                      A                      A                      A
 Frequencies --   3024.4014              3034.2081              3049.9715
 Red. masses --      1.0400                 1.0663                 1.0798
 Frc consts  --      5.6050                 5.7841                 5.9183
 IR Inten    --      9.4709                12.6177                46.2197

                     46                     47                     48
                      A                      A                      A
 Frequencies --   3080.2303              3089.6287              3104.8488
 Red. masses --      1.0953                 1.1005                 1.0917
 Frc consts  --      6.1227                 6.1895                 6.2006
 IR Inten    --      9.3469                22.1307                12.7867

                     49                     50                     51
                      A                      A                      A
 Frequencies --   3126.1381              3166.1649              3805.4279
 Red. masses --      1.1013                 1.0905                 1.0661
 Frc consts  --      6.3412                 6.4410                 9.0959
 IR Inten    --     13.6902                 9.5602                13.2532

 - Thermochemistry -
 -------------------
 Temperature   298.150 Kelvin.  Pressure   1.00000 Atm.
 Atom     1 has atomic number  6 and mass  12.00000

 Molecular mass:   126.06808 amu.
 Principal axes and moments of inertia in atomic units:
                           1         2         3
     Eigenvalues --   744.615481271.465461778.11306
           X            0.99541   0.09554   0.00551
           Y           -0.09547   0.99537  -0.01135
           Z           -0.00657   0.01077   0.99992
 This molecule is an asymmetric top.
 Rotational symmetry number  1.
 Warning -- assumption of classical behavior for rotation
           may cause significant error
 Rotational temperatures (Kelvin)      0.11632     0.06812     0.04871
 Rotational constants (GHZ):           2.42372     1.41942     1.01498
 Zero-point vibrational energy     418385.6 (Joules/Mol)
                                   99.99657 (Kcal/Mol)
 Warning -- explicit consideration of  12 degrees of freedom as
           vibrations may cause significant error
 Vibrational temperatures:    108.79   214.30   269.74   290.69   357.53
          (Kelvin)            425.22   471.08   549.32   613.33   702.35
                              750.81   802.63   908.88   963.73  1103.40
                             1196.99  1274.47  1315.91  1396.23  1403.32
                             1475.73  1526.79  1543.32  1564.17  1674.35
                             1679.69  1743.27  1811.88  1820.74  1908.54
                             1937.60  1970.01  2003.94  2019.47  2046.56
                             2108.33  2121.26  2130.68  2136.08  2432.87
                             2553.97  4334.58  4351.43  4365.54  4388.22
                             4431.76  4445.28  4467.18  4497.81  4555.40
                             5475.16

 Zero-point correction=                           0.159355 (Hartree/Particle)
 Thermal correction to Energy=                    0.168181
 Thermal correction to Enthalpy=                  0.169125
 Thermal correction to Gibbs Free Energy=         0.125947
 Sum of electronic and zero-point Energies=           -423.070251
 Sum of electronic and thermal Energies=              -423.061424
 Sum of electronic and thermal Enthalpies=            -423.060480
 Sum of electronic and thermal Free Energies=         -423.103658

                     E (Thermal)             CV                S
                      KCal/Mol        Cal/Mol-Kelvin    Cal/Mol-Kelvin
 Total                  105.535             33.424             90.877
 Electronic               0.000              0.000              0.000
 Translational            0.889              2.981             40.409
 Rotational               0.889              2.981             28.911
 Vibrational            103.758             27.462             21.557
 Vibration     1          0.599              1.965              4.002
 Vibration     2          0.618              1.904              2.686
 Vibration     3          0.632              1.857              2.253
 Vibration     4          0.639              1.837              2.114
 Vibration     5          0.662              1.765              1.741
 Vibration     6          0.690              1.682              1.442
 Vibration     7          0.711              1.621              1.273
 Vibration     8          0.751              1.509              1.032
 Vibration     9          0.788              1.413              0.871
 Vibration    10          0.844              1.276              0.688
 Vibration    11          0.877              1.202              0.606
 Vibration    12          0.913              1.123              0.528

 Optimization completed.
    -- Stationary point found.
 Normal termination of Gaussian 09 at Tue Jan 28 04:42:25 2020.
