 Gaussian 09, Revision D.01,
 Gaussian 09:  ES64L-G09RevD.01 24-Apr-2013

 -----------------------------
 # b3lyp 6-31G(2df,p) opt Freq
 -----------------------------

 -----
 titel
 -----
 Symbolic Z-matrix:
 Charge =  0 Multiplicity = 1

 SCF Done:  E(RB3LYP) =  -423.209308273     A.U. after   14 cycles
 Optimization completed.
    -- Stationary point found.
 Normal termination of Gaussian 09 at Tue Jan 28 00:38:42 2020.

 ----------------------------------------------------------------------
 #N Geom=AllCheck Guess=TCheck SCRF=Check GenChk RB3LYP/6-31G(2df,p) Fr
 eq
 ----------------------------------------------------------------------

 Structure from the checkpoint file:  "/scratch/puck/g09_50c292de-56fa-40d6-b8b2-26ee164f4f5f/Gau-189508.chk"
 -----
 titel
 -----
 Charge =  0 Multiplicity = 1

                         Standard orientation:
 ---------------------------------------------------------------------
 Center     Atomic      Atomic             Coordinates (Angstroms)
 Number     Number       Type             X           Y           Z
 ---------------------------------------------------------------------
      1          6           0       -2.246368   -0.572809   -0.585751
      2          6           0       -0.912779   -0.420709    0.105296
      3          6           0       -0.353295   -1.540722    0.918985
      4          6           0        0.346494   -1.137010   -0.377882
      5          6           0        1.495930   -0.204088   -0.200857
      6          8           0        2.576951   -0.282101   -0.728410
      7          6           0        1.034095    0.926026    0.736360
      8          6           0       -0.496758    0.982909    0.563154
      9          8           0       -0.862042    1.872176   -0.486072
     10          1           0       -2.310447    0.081192   -1.457611
     11          1           0       -2.400521   -1.606591   -0.909416
     12          1           0       -3.066401   -0.310038    0.092782
     13          1           0        0.141884   -1.351641    1.865833
     14          1           0       -0.887088   -2.484162    0.883232
     15          1           0        0.357965   -1.827684   -1.211481
     16          1           0        1.326935    0.689963    1.765797
     17          1           0        1.521589    1.865864    0.468332
     18          1           0       -1.013547    1.260574    1.494576
     19          1           0       -0.593549    2.760336   -0.232017
 ---------------------------------------------------------------------

 SCF Done:  E(RB3LYP) =  -423.209308273     A.U. after    1 cycles

 The electronic state is 1-A.
 Alpha  occ. eigenvalues --  -19.14453 -19.12036 -10.26295 -10.24587 -10.21130
 Alpha  occ. eigenvalues --  -10.20313 -10.19733 -10.19023 -10.18093  -1.03370
 Alpha  occ. eigenvalues --   -1.02710  -0.89424  -0.76468  -0.72829  -0.66113
 Alpha  occ. eigenvalues --   -0.63807  -0.55499  -0.54465  -0.51924  -0.47360
 Alpha  occ. eigenvalues --   -0.46476  -0.44983  -0.41977  -0.41321  -0.41040
 Alpha  occ. eigenvalues --   -0.39675  -0.38878  -0.37979  -0.35578  -0.32974
 Alpha  occ. eigenvalues --   -0.30346  -0.28688  -0.28182  -0.23362
 Alpha virt. eigenvalues --   -0.00733   0.06564   0.09573   0.09924   0.11607
 Alpha virt. eigenvalues --    0.12915   0.14012   0.15213   0.16602   0.16635
 Alpha virt. eigenvalues --    0.18591   0.19846   0.20339   0.20825   0.23372

 Mulliken charges:
               1
     1  C   -0.478705
     2  C    0.343544
     3  C   -0.347862
     4  C   -0.178310
     5  C    0.438145
     6  O   -0.336302
     7  C   -0.385013
     8  C    0.057997
     9  O   -0.435957
    10  H    0.145517
    11  H    0.112779
    12  H    0.118341
    13  H    0.117811
    14  H    0.123839
    15  H    0.103844
    16  H    0.125456
    17  H    0.120662
    18  H    0.067411
    19  H    0.286804
 Sum of Mulliken charges =   0.00000

 Dipole moment (field-independent basis, Debye):
    X=             -2.3943    Y=              0.6303    Z=              2.2455  Tot=              3.3425
 Quadrupole moment (field-independent basis, Debye-Ang):
   XX=            -62.9196   YY=            -46.2558   ZZ=            -52.9742
   XY=              3.0813   XZ=              3.0376   YZ=              1.7305

  Exact polarizability:  84.248   3.010  76.642  -2.032   1.018  66.492
 Approx polarizability: 123.068   1.791 108.146  -9.598  -0.173 105.664

                      1                      2                      3
                      A                      A                      A
 Frequencies --     96.8744               130.2495               206.4745
 Red. masses --      4.9275                 3.6308                 1.0831
 Frc consts  --      0.0272                 0.0363                 0.0272
 IR Inten    --      1.8657                 1.3919                 0.1042

                      4                      5                      6
                      A                      A                      A
 Frequencies --    269.9274               279.8759               314.9244
 Red. masses --      2.3208                 1.2381                 2.8730
 Frc consts  --      0.0996                 0.0571                 0.1679
 IR Inten    --     22.6523                75.6458                10.9558

                      7                      8                      9
                      A                      A                      A
 Frequencies --    384.7757               409.3277               445.1148
 Red. masses --      2.2920                 2.6079                 4.4471
 Frc consts  --      0.1999                 0.2574                 0.5191
 IR Inten    --      0.5148                 3.3372                 6.3849

                     10                     11                     12
                      A                      A                      A
 Frequencies --    474.1700               532.4229               598.3921
 Red. masses --      3.8612                 2.8589                 3.5396
 Frc consts  --      0.5115                 0.4775                 0.7467
 IR Inten    --      5.0012                 1.2432                 1.8755

                     13                     14                     15
                      A                      A                      A
 Frequencies --    657.3413               749.9209               786.4074
 Red. masses --      3.6975                 3.9307                 2.9783
 Frc consts  --      0.9413                 1.3024                 1.0852
 IR Inten    --      7.1516                 7.7260                 9.7566

                     16                     17                     18
                      A                      A                      A
 Frequencies --    846.2781               877.9940               921.1295
 Red. masses --      2.0530                 2.3854                 1.9705
 Frc consts  --      0.8663                 1.0834                 0.9851
 IR Inten    --      1.9255                 8.3261                13.8743

                     19                     20                     21
                      A                      A                      A
 Frequencies --    931.9476               964.9443              1006.1131
 Red. masses --      1.5135                 1.7367                 2.1977
 Frc consts  --      0.7745                 0.9528                 1.3107
 IR Inten    --      7.7662                19.4041                 1.1031

                     22                     23                     24
                      A                      A                      A
 Frequencies --   1027.8353              1062.8956              1069.9729
 Red. masses --      1.5498                 1.7127                 1.2655
 Frc consts  --      0.9646                 1.1400                 0.8536
 IR Inten    --      2.3940                18.0582                 6.9333

                     25                     26                     27
                      A                      A                      A
 Frequencies --   1085.7444              1111.3261              1176.5220
 Red. masses --      2.8487                 1.5527                 1.6139
 Frc consts  --      1.9785                 1.1298                 1.3162
 IR Inten    --     49.9892                25.6669                29.1475

                     28                     29                     30
                      A                      A                      A
 Frequencies --   1189.9141              1227.2818              1230.5172
 Red. masses --      2.1475                 1.6635                 1.2876
 Frc consts  --      1.7915                 1.4762                 1.1487
 IR Inten    --     34.5141                11.2408                31.2049

                     31                     32                     33
                      A                      A                      A
 Frequencies --   1269.3635              1307.5132              1349.2637
 Red. masses --      1.6913                 2.3152                 1.6509
 Frc consts  --      1.6056                 2.3320                 1.7707
 IR Inten    --     13.9922                21.5558                16.4795

                     34                     35                     36
                      A                      A                      A
 Frequencies --   1384.3516              1419.5816              1422.8637
 Red. masses --      1.8081                 1.6160                 1.4132
 Frc consts  --      2.0416                 1.9187                 1.6857
 IR Inten    --      3.0074                 3.1875                15.0133

                     37                     38                     39
                      A                      A                      A
 Frequencies --   1449.5325              1484.0261              1500.3833
 Red. masses --      1.1309                 1.0460                 1.1661
 Frc consts  --      1.4000                 1.3573                 1.5467
 IR Inten    --      5.4277                 4.1513                 5.3801

                     40                     41                     42
                      A                      A                      A
 Frequencies --   1504.7372              1837.1963              2980.1749
 Red. masses --      1.1363                12.2161                 1.0840
 Frc consts  --      1.5158                24.2938                 5.6723
 IR Inten    --      4.1815               296.1331                60.9039

                     43                     44                     45
                      A                      A                      A
 Frequencies --   3034.4004              3052.1270              3096.3377
 Red. masses --      1.0393                 1.0658                 1.0984
 Frc consts  --      5.6380                 5.8497                 6.2047
 IR Inten    --     30.3308                 8.6126                21.0746

                     46                     47                     48
                      A                      A                      A
 Frequencies --   3114.1811              3131.1735              3132.7195
 Red. masses --      1.0979                 1.0598                 1.0939
 Frc consts  --      6.2732                 6.1221                 6.3250
 IR Inten    --      8.2539                 5.8930                18.4357

                     49                     50                     51
                      A                      A                      A
 Frequencies --   3199.2773              3215.3304              3826.2996
 Red. masses --      1.0940                 1.1141                 1.0663
 Frc consts  --      6.5972                 6.7864                 9.1982
 IR Inten    --      2.8721                 7.4732                23.4584

 - Thermochemistry -
 -------------------
 Temperature   298.150 Kelvin.  Pressure   1.00000 Atm.
 Atom     1 has atomic number  6 and mass  12.00000

 Molecular mass:   126.06808 amu.
 Principal axes and moments of inertia in atomic units:
                           1         2         3
     Eigenvalues --   750.300241124.471091493.98684
           X            0.99755   0.06379   0.02859
           Y           -0.06443   0.99768   0.02215
           Z           -0.02711  -0.02394   0.99935
 This molecule is an asymmetric top.
 Rotational symmetry number  1.
 Warning -- assumption of classical behavior for rotation
           may cause significant error
 Rotational temperatures (Kelvin)      0.11544     0.07703     0.05797
 Rotational constants (GHZ):           2.40536     1.60497     1.20800
 Zero-point vibrational energy     417361.8 (Joules/Mol)
                                   99.75187 (Kcal/Mol)
 Warning -- explicit consideration of  12 degrees of freedom as
           vibrations may cause significant error
 Vibrational temperatures:    139.38   187.40   297.07   388.36   402.68
          (Kelvin)            453.11   553.61   588.93   640.42   682.22
                              766.04   860.95   945.77  1078.97  1131.46
                             1217.60  1263.24  1325.30  1340.86  1388.34
                             1447.57  1478.82  1529.27  1539.45  1562.14
                             1598.95  1692.75  1712.02  1765.78  1770.44
                             1826.33  1881.22  1941.29  1991.77  2042.46
                             2047.18  2085.55  2135.18  2158.71  2164.98
                             2643.31  4287.80  4365.82  4391.32  4454.93
                             4480.61  4505.05  4507.28  4603.04  4626.14
                             5505.18

 Zero-point correction=                           0.158965 (Hartree/Particle)
 Thermal correction to Energy=                    0.167463
 Thermal correction to Enthalpy=                  0.168407
 Thermal correction to Gibbs Free Energy=         0.126187
 Sum of electronic and zero-point Energies=           -423.050344
 Sum of electronic and thermal Energies=              -423.041845
 Sum of electronic and thermal Enthalpies=            -423.040901
 Sum of electronic and thermal Free Energies=         -423.083121

                     E (Thermal)             CV                S
                      KCal/Mol        Cal/Mol-Kelvin    Cal/Mol-Kelvin
 Total                  105.085             33.164             88.859
 Electronic               0.000              0.000              0.000
 Translational            0.889              2.981             40.409
 Rotational               0.889              2.981             28.624
 Vibrational            103.307             27.203             19.827
 Vibration     1          0.603              1.951              3.516
 Vibration     2          0.612              1.923              2.942
 Vibration     3          0.641              1.831              2.075
 Vibration     4          0.674              1.729              1.597
 Vibration     5          0.680              1.711              1.534
 Vibration     6          0.702              1.645              1.336
 Vibration     7          0.754              1.503              1.020
 Vibration     8          0.774              1.450              0.929
 Vibration     9          0.804              1.372              0.811
 Vibration    10          0.831              1.307              0.726
 Vibration    11          0.887              1.178              0.582
 Vibration    12          0.956              1.035              0.452

 Optimization completed.
    -- Stationary point found.
 Normal termination of Gaussian 09 at Tue Jan 28 01:23:12 2020.
