 Gaussian 09, Revision D.01,
 Gaussian 09:  ES64L-G09RevD.01 24-Apr-2013

 -----------------------------
 # b3lyp 6-31G(2df,p) opt Freq
 -----------------------------

 -----
 titel
 -----
 Symbolic Z-matrix:
 Charge =  0 Multiplicity = 1

 SCF Done:  E(RB3LYP) =  -423.166091874     A.U. after   14 cycles
 Optimization completed.
    -- Stationary point found.
 Normal termination of Gaussian 09 at Tue Jan 28 03:54:49 2020.

 ----------------------------------------------------------------------
 #N Geom=AllCheck Guess=TCheck SCRF=Check GenChk RB3LYP/6-31G(2df,p) Fr
 eq
 ----------------------------------------------------------------------

 Structure from the checkpoint file:  "/scratch/puck/g09_41e301de-5bb3-4bf8-b05a-77d1c7d55aef/Gau-90693.chk"
 -----
 titel
 -----
 Charge =  0 Multiplicity = 1

                         Standard orientation:
 ---------------------------------------------------------------------
 Center     Atomic      Atomic             Coordinates (Angstroms)
 Number     Number       Type             X           Y           Z
 ---------------------------------------------------------------------
      1          8           0       -0.121665    1.988224   -0.954396
      2          6           0        0.118627    1.191205    0.182750
      3          6           0       -1.077686    0.872385    1.132197
      4          6           0       -0.819019   -0.648886    0.963647
      5          6           0       -1.684700   -1.341212   -0.112309
      6          6           0       -0.694878   -0.869989   -1.216530
      7          6           0        0.282064   -0.302269   -0.146403
      8          6           0        1.651807   -0.889101   -0.072191
      9          8           0        2.628824   -0.315630    0.346258
     10          1           0       -0.091270    2.912692   -0.690359
     11          1           0        0.999670    1.536615    0.736256
     12          1           0       -0.976675    1.256344    2.149797
     13          1           0       -2.041040    1.193144    0.725503
     14          1           0       -0.570462   -1.205322    1.867340
     15          1           0       -1.705826   -2.428805   -0.003840
     16          1           0       -2.716068   -0.985167   -0.189131
     17          1           0       -0.265491   -1.680541   -1.811822
     18          1           0       -1.066281   -0.101850   -1.895691
     19          1           0        1.718881   -1.950656   -0.409919
 ---------------------------------------------------------------------

 SCF Done:  E(RB3LYP) =  -423.166091874     A.U. after    1 cycles

 The electronic state is 1-A.
 Alpha  occ. eigenvalues --  -19.14128 -19.13463 -10.26413 -10.23293 -10.20239
 Alpha  occ. eigenvalues --  -10.19459 -10.18845 -10.18824 -10.18396  -1.04082
 Alpha  occ. eigenvalues --   -1.02377  -0.87708  -0.75336  -0.70784  -0.64384
 Alpha  occ. eigenvalues --   -0.61033  -0.58600  -0.52522  -0.51680  -0.49160
 Alpha  occ. eigenvalues --   -0.47093  -0.43955  -0.43249  -0.41285  -0.40113
 Alpha  occ. eigenvalues --   -0.38649  -0.37396  -0.35425  -0.33863  -0.32947
 Alpha  occ. eigenvalues --   -0.29127  -0.28958  -0.26337  -0.24379
 Alpha virt. eigenvalues --   -0.02514   0.06843   0.09015   0.09860   0.10583
 Alpha virt. eigenvalues --    0.11902   0.13006   0.15630   0.15870   0.17338
 Alpha virt. eigenvalues --    0.18009   0.19885   0.20421   0.21472   0.22245

 Mulliken charges:
               1
     1  O   -0.431521
     2  C    0.058552
     3  C   -0.275645
     4  C   -0.067673
     5  C   -0.216779
     6  C   -0.302315
     7  C    0.259131
     8  C    0.059108
     9  O   -0.262315
    10  H    0.288034
    11  H    0.094767
    12  H    0.103681
    13  H    0.103209
    14  H    0.078261
    15  H    0.103656
    16  H    0.102106
    17  H    0.105571
    18  H    0.132732
    19  H    0.067440
 Sum of Mulliken charges =   0.00000

 Dipole moment (field-independent basis, Debye):
    X=             -2.4495    Y=              0.0815    Z=              0.5275  Tot=              2.5069
 Quadrupole moment (field-independent basis, Debye-Ang):
   XX=            -61.5795   YY=            -45.6389   ZZ=            -53.8286
   XY=             -0.2610   XZ=             -1.7549   YZ=              1.9881

  Exact polarizability:  81.513   1.030  79.249   0.166   4.094  67.556
 Approx polarizability: 121.566   4.711 111.584   2.702   4.656 102.052

                      1                      2                      3
                      A                      A                      A
 Frequencies --     72.1183                83.9029               165.2434
 Red. masses --      3.1486                 3.3276                 2.7915
 Frc consts  --      0.0096                 0.0138                 0.0449
 IR Inten    --      1.4863                 2.9620                16.0147

                      4                      5                      6
                      A                      A                      A
 Frequencies --    211.2190               238.4977               249.3147
 Red. masses --      1.2705                 2.5732                 2.5906
 Frc consts  --      0.0334                 0.0862                 0.0949
 IR Inten    --     78.4768                 6.3620                14.5205

                      7                      8                      9
                      A                      A                      A
 Frequencies --    360.9674               394.4106               459.2986
 Red. masses --      2.3669                 2.9349                 3.3417
 Frc consts  --      0.1817                 0.2690                 0.4153
 IR Inten    --      0.5812                 7.5911                 4.7705

                     10                     11                     12
                      A                      A                      A
 Frequencies --    549.5102               586.0928               721.1433
 Red. masses --      4.2311                 3.7830                 3.1595
 Frc consts  --      0.7528                 0.7656                 0.9681
 IR Inten    --     14.9359                 1.6093                10.6492

                     13                     14                     15
                      A                      A                      A
 Frequencies --    744.1960               771.2101               842.5103
 Red. masses --      1.3476                 2.1827                 2.3953
 Frc consts  --      0.4397                 0.7649                 1.0017
 IR Inten    --      2.5785                 3.7315                10.3410

                     16                     17                     18
                      A                      A                      A
 Frequencies --    856.5741               885.9548               938.4314
 Red. masses --      2.5976                 2.3355                 1.9138
 Frc consts  --      1.1229                 1.0801                 0.9930
 IR Inten    --      2.9385                 1.7172                17.7746

                     19                     20                     21
                      A                      A                      A
 Frequencies --    964.3750              1019.1813              1026.0263
 Red. masses --      2.6641                 1.9365                 1.7137
 Frc consts  --      1.4598                 1.1851                 1.0629
 IR Inten    --      5.3883                 7.2262                14.6137

                     22                     23                     24
                      A                      A                      A
 Frequencies --   1064.6822              1073.0505              1109.4507
 Red. masses --      2.0403                 2.3154                 2.5289
 Frc consts  --      1.3627                 1.5708                 1.8340
 IR Inten    --      4.6120                 7.3725                64.0750

                     25                     26                     27
                      A                      A                      A
 Frequencies --   1130.9304              1158.7235              1185.9256
 Red. masses --      1.5522                 1.8313                 1.7014
 Frc consts  --      1.1697                 1.4487                 1.4099
 IR Inten    --     15.2902                11.3907                 6.2079

                     28                     29                     30
                      A                      A                      A
 Frequencies --   1228.0980              1239.3400              1246.2054
 Red. masses --      1.4968                 1.3267                 1.5001
 Frc consts  --      1.3301                 1.2006                 1.3726
 IR Inten    --      9.3432                 4.9944                20.9060

                     31                     32                     33
                      A                      A                      A
 Frequencies --   1270.2373              1280.8802              1290.3602
 Red. masses --      1.5302                 1.5703                 1.4837
 Frc consts  --      1.4547                 1.5179                 1.4555
 IR Inten    --      6.6863                 9.5906                41.3424

                     34                     35                     36
                      A                      A                      A
 Frequencies --   1311.0702              1337.5297              1424.1180
 Red. masses --      1.5173                 1.6502                 1.2551
 Frc consts  --      1.5367                 1.7394                 1.4997
 IR Inten    --      6.1102                18.5613                 9.3607

                     37                     38                     39
                      A                      A                      A
 Frequencies --   1436.6415              1473.0469              1477.6614
 Red. masses --      1.4108                 1.1217                 1.0885
 Frc consts  --      1.7156                 1.4340                 1.4004
 IR Inten    --      3.4653                 0.8842                 1.8760

                     40                     41                     42
                      A                      A                      A
 Frequencies --   1495.0856              1806.6544              2846.7790
 Red. masses --      1.1123                10.8132                 1.0817
 Frc consts  --      1.4649                20.7947                 5.1651
 IR Inten    --      3.2696               188.8989               125.9294

                     43                     44                     45
                      A                      A                      A
 Frequencies --   3038.9906              3052.1445              3055.8686
 Red. masses --      1.0853                 1.0584                 1.0587
 Frc consts  --      5.9056                 5.8093                 5.8250
 IR Inten    --     18.2430                37.0662                33.0778

                     46                     47                     48
                      A                      A                      A
 Frequencies --   3064.1786              3097.2741              3105.6669
 Red. masses --      1.0652                 1.1024                 1.0988
 Frc consts  --      5.8927                 6.2311                 6.2443
 IR Inten    --     30.9435                12.5801                17.2865

                     49                     50                     51
                      A                      A                      A
 Frequencies --   3118.7099              3134.0534              3826.6716
 Red. masses --      1.1018                 1.1024                 1.0663
 Frc consts  --      6.3141                 6.3798                 9.1998
 IR Inten    --     37.5062                14.7005                29.4624

 - Thermochemistry -
 -------------------
 Temperature   298.150 Kelvin.  Pressure   1.00000 Atm.
 Atom     1 has atomic number  8 and mass  15.99491

 Molecular mass:   126.06808 amu.
 Principal axes and moments of inertia in atomic units:
                           1         2         3
     Eigenvalues --   873.837621091.157831406.11315
           X            0.99915   0.04021  -0.00947
           Y           -0.03967   0.99785   0.05211
           Z            0.01155  -0.05169   0.99860
 This molecule is an asymmetric top.
 Rotational symmetry number  1.
 Warning -- assumption of classical behavior for rotation
           may cause significant error
 Rotational temperatures (Kelvin)      0.09912     0.07938     0.06160
 Rotational constants (GHZ):           2.06531     1.65397     1.28350
 Zero-point vibrational energy     415823.2 (Joules/Mol)
                                   99.38412 (Kcal/Mol)
 Warning -- explicit consideration of  11 degrees of freedom as
           vibrations may cause significant error
 Vibrational temperatures:    103.76   120.72   237.75   303.90   343.14
          (Kelvin)            358.71   519.35   567.47   660.83   790.62
                              843.26  1037.56  1070.73  1109.60  1212.18
                             1232.42  1274.69  1350.19  1387.52  1466.37
                             1476.22  1531.84  1543.88  1596.25  1627.15
                             1667.14  1706.28  1766.96  1783.13  1793.01
                             1827.59  1842.90  1856.54  1886.34  1924.40
                             2048.99  2067.00  2119.38  2126.02  2151.09
                             2599.37  4095.87  4372.42  4391.35  4396.71
                             4408.66  4456.28  4468.36  4487.12  4509.20
                             5505.72

 Zero-point correction=                           0.158379 (Hartree/Particle)
 Thermal correction to Energy=                    0.167097
 Thermal correction to Enthalpy=                  0.168041
 Thermal correction to Gibbs Free Energy=         0.124675
 Sum of electronic and zero-point Energies=           -423.007713
 Sum of electronic and thermal Energies=              -422.998995
 Sum of electronic and thermal Enthalpies=            -422.998051
 Sum of electronic and thermal Free Energies=         -423.041417

                     E (Thermal)             CV                S
                      KCal/Mol        Cal/Mol-Kelvin    Cal/Mol-Kelvin
 Total                  104.855             32.533             91.272
 Electronic               0.000              0.000              0.000
 Translational            0.889              2.981             40.409
 Rotational               0.889              2.981             28.685
 Vibrational            103.078             26.571             22.179
 Vibration     1          0.598              1.967              4.095
 Vibration     2          0.601              1.960              3.797
 Vibration     3          0.624              1.885              2.489
 Vibration     4          0.643              1.824              2.033
 Vibration     5          0.656              1.782              1.814
 Vibration     6          0.662              1.764              1.735
 Vibration     7          0.735              1.553              1.118
 Vibration     8          0.761              1.482              0.983
 Vibration     9          0.817              1.340              0.768
 Vibration    10          0.905              1.141              0.545
 Vibration    11          0.943              1.061              0.474

 Optimization completed.
    -- Stationary point found.
 Normal termination of Gaussian 09 at Tue Jan 28 04:38:05 2020.
