 Gaussian 09, Revision D.01,
 Gaussian 09:  ES64L-G09RevD.01 24-Apr-2013

 -----------------------------
 # b3lyp 6-31G(2df,p) opt Freq
 -----------------------------

 -----
 titel
 -----
 Symbolic Z-matrix:
 Charge =  0 Multiplicity = 1

 SCF Done:  E(RB3LYP) =  -423.182244582     A.U. after   14 cycles
 Optimization completed.
    -- Stationary point found.
 Normal termination of Gaussian 09 at Tue Jan 28 00:05:45 2020.

 ----------------------------------------------------------------------
 #N Geom=AllCheck Guess=TCheck SCRF=Check GenChk RB3LYP/6-31G(2df,p) Fr
 eq
 ----------------------------------------------------------------------

 Structure from the checkpoint file:  "/scratch/puck/g09_9db06d4a-2b2b-4862-98ee-3ae1e380df5f/Gau-59290.chk"
 -----
 titel
 -----
 Charge =  0 Multiplicity = 1

                         Standard orientation:
 ---------------------------------------------------------------------
 Center     Atomic      Atomic             Coordinates (Angstroms)
 Number     Number       Type             X           Y           Z
 ---------------------------------------------------------------------
      1          6           0        2.503848   -0.195227   -0.048410
      2          6           0        1.018840   -0.367413    0.089166
      3          8           0        0.389170    0.318214    1.220920
      4          6           0       -0.013255    0.661232   -0.120798
      5          6           0        0.181261    2.086695   -0.548626
      6          6           0       -1.330642   -0.061498   -0.467388
      7          8           0       -2.348363    0.218784    0.480212
      8          6           0       -0.924974   -1.527225   -0.485944
      9          6           0        0.360635   -1.693322   -0.176944
     10          1           0        2.831664   -0.475919   -1.055038
     11          1           0        2.801996    0.837464    0.143070
     12          1           0        3.030676   -0.837531    0.665865
     13          1           0        0.152046    2.171998   -1.640110
     14          1           0       -0.626061    2.705507   -0.141787
     15          1           0        1.132288    2.485872   -0.189426
     16          1           0       -1.725286    0.270075   -1.435025
     17          1           0       -1.932548    0.077747    1.342096
     18          1           0       -1.651687   -2.313116   -0.656434
     19          1           0        0.886175   -2.637532   -0.088607
 ---------------------------------------------------------------------

 SCF Done:  E(RB3LYP) =  -423.182244582     A.U. after    1 cycles

 The electronic state is 1-A.
 Alpha  occ. eigenvalues --  -19.14591 -19.13258 -10.24285 -10.23478 -10.23444
 Alpha  occ. eigenvalues --  -10.18988 -10.18856 -10.18642 -10.18427  -1.06629
 Alpha  occ. eigenvalues --   -1.01209  -0.81353  -0.75485  -0.74482  -0.66905
 Alpha  occ. eigenvalues --   -0.63009  -0.56576  -0.54472  -0.51317  -0.46839
 Alpha  occ. eigenvalues --   -0.44787  -0.43603  -0.42523  -0.42417  -0.41450
 Alpha  occ. eigenvalues --   -0.40467  -0.37821  -0.37277  -0.35887  -0.32922
 Alpha  occ. eigenvalues --   -0.30788  -0.28434  -0.25194  -0.24572
 Alpha virt. eigenvalues --   -0.00729   0.09327   0.09880   0.11380   0.12331
 Alpha virt. eigenvalues --    0.12942   0.13986   0.14773   0.16649   0.17100
 Alpha virt. eigenvalues --    0.17627   0.18327   0.20379   0.20800   0.22044

 Mulliken charges:
               1
     1  C   -0.497097
     2  C    0.325577
     3  O   -0.349432
     4  C    0.296020
     5  C   -0.499685
     6  C    0.042459
     7  O   -0.436290
     8  C   -0.130716
     9  C   -0.123835
    10  H    0.127962
    11  H    0.133080
    12  H    0.131670
    13  H    0.123139
    14  H    0.140189
    15  H    0.127754
    16  H    0.088057
    17  H    0.288172
    18  H    0.108962
    19  H    0.104015
 Sum of Mulliken charges =   0.00000

 Dipole moment (field-independent basis, Debye):
    X=              1.7507    Y=             -0.5238    Z=             -1.3986  Tot=              2.3012
 Quadrupole moment (field-independent basis, Debye-Ang):
   XX=            -55.2932   YY=            -50.0638   ZZ=            -53.6351
   XY=              0.4642   XZ=             -0.2007   YZ=             -1.1166

  Exact polarizability:  88.017  -3.179  79.334   3.574  -0.206  59.569
 Approx polarizability: 130.914  -9.228 108.232   8.095   1.632 100.353

                      1                      2                      3
                      A                      A                      A
 Frequencies --    122.6615               171.9107               187.8117
 Red. masses --      4.0985                 1.0776                 1.0474
 Frc consts  --      0.0363                 0.0188                 0.0218
 IR Inten    --      2.9441                 0.1775                 0.2229

                      4                      5                      6
                      A                      A                      A
 Frequencies --    205.3254               242.5818               281.9915
 Red. masses --      2.9443                 2.7232                 3.0741
 Frc consts  --      0.0731                 0.0944                 0.1440
 IR Inten    --      0.1006                 0.0775                 2.9555

                      7                      8                      9
                      A                      A                      A
 Frequencies --    309.7795               374.3918               464.3694
 Red. masses --      2.9254                 2.6040                 2.5916
 Frc consts  --      0.1654                 0.2151                 0.3293
 IR Inten    --      2.2934                 5.7274                 1.2815

                     10                     11                     12
                      A                      A                      A
 Frequencies --    495.3751               535.8211               574.6221
 Red. masses --      1.3863                 3.6632                 3.3650
 Frc consts  --      0.2004                 0.6197                 0.6546
 IR Inten    --     82.3495                15.8549                 2.5844

                     13                     14                     15
                      A                      A                      A
 Frequencies --    595.3781               679.1585               700.2197
 Red. masses --      4.1378                 4.5140                 5.2858
 Frc consts  --      0.8642                 1.2268                 1.5270
 IR Inten    --      7.4307                 3.1409                 6.6921

                     16                     17                     18
                      A                      A                      A
 Frequencies --    777.7561               830.6015               865.5085
 Red. masses --      1.7005                 2.7747                 2.6709
 Frc consts  --      0.6060                 1.1279                 1.1788
 IR Inten    --     11.8835                14.9012                34.8296

                     19                     20                     21
                      A                      A                      A
 Frequencies --    899.6934               955.1679               962.9796
 Red. masses --      2.7525                 1.8421                 1.3602
 Frc consts  --      1.3127                 0.9902                 0.7431
 IR Inten    --     19.5580                 5.3082                 1.3592

                     22                     23                     24
                      A                      A                      A
 Frequencies --   1000.6918              1064.0485              1068.9204
 Red. masses --      1.9954                 1.8572                 2.3954
 Frc consts  --      1.1773                 1.2389                 1.6126
 IR Inten    --      9.4181                19.8878                80.6538

                     25                     26                     27
                      A                      A                      A
 Frequencies --   1089.5446              1107.0859              1167.8098
 Red. masses --      1.6114                 1.8844                 1.6899
 Frc consts  --      1.1271                 1.3608                 1.3579
 IR Inten    --     27.2201                 2.4294                 5.8019

                     28                     29                     30
                      A                      A                      A
 Frequencies --   1208.6649              1232.2375              1274.1669
 Red. masses --      2.1026                 2.2158                 1.4588
 Frc consts  --      1.8097                 1.9823                 1.3954
 IR Inten    --      8.6270                10.1895                17.3243

                     31                     32                     33
                      A                      A                      A
 Frequencies --   1317.3994              1364.3261              1409.9705
 Red. masses --      2.0777                 1.7526                 1.3709
 Frc consts  --      2.1246                 1.9221                 1.6057
 IR Inten    --      1.1808                 5.9158                 3.9199

                     34                     35                     36
                      A                      A                      A
 Frequencies --   1414.9666              1434.4025              1458.4169
 Red. masses --      1.2978                 1.2772                 1.8558
 Frc consts  --      1.5309                 1.5483                 2.3257
 IR Inten    --      2.6673                92.6412                 1.7240

                     37                     38                     39
                      A                      A                      A
 Frequencies --   1475.8251              1487.6232              1495.2818
 Red. masses --      1.0469                 1.0498                 1.1508
 Frc consts  --      1.3434                 1.3688                 1.5160
 IR Inten    --      5.6399                 1.3759                10.6968

                     40                     41                     42
                      A                      A                      A
 Frequencies --   1511.1438              1671.5444              3035.8852
 Red. masses --      1.4786                 6.7120                 1.0379
 Frc consts  --      1.9893                11.0493                 5.6358
 IR Inten    --      8.4160                 1.5357                14.9705

                     43                     44                     45
                      A                      A                      A
 Frequencies --   3037.8986              3046.2703              3096.9576
 Red. masses --      1.0389                 1.0811                 1.1003
 Frc consts  --      5.6489                 5.9108                 6.2179
 IR Inten    --     16.5759                33.7239                12.4233

                     46                     47                     48
                      A                      A                      A
 Frequencies --   3099.4081              3126.5086              3133.0818
 Red. masses --      1.1004                 1.1007                 1.0994
 Frc consts  --      6.2283                 6.3391                 6.3581
 IR Inten    --     16.6807                10.9851                18.0858

                     49                     50                     51
                      A                      A                      A
 Frequencies --   3187.3810              3213.1996              3753.9555
 Red. masses --      1.0853                 1.1048                 1.0651
 Frc consts  --      6.4964                 6.7205                 8.8435
 IR Inten    --      6.4079                16.0551                20.6842

 - Thermochemistry -
 -------------------
 Temperature   298.150 Kelvin.  Pressure   1.00000 Atm.
 Atom     1 has atomic number  6 and mass  12.00000

 Molecular mass:   126.06808 amu.
 Principal axes and moments of inertia in atomic units:
                           1         2         3
     Eigenvalues --   723.956761052.358641449.11204
           X            0.99996   0.00928  -0.00097
           Y           -0.00930   0.99961  -0.02623
           Z            0.00073   0.02624   0.99966
 This molecule is an asymmetric top.
 Rotational symmetry number  1.
 Warning -- assumption of classical behavior for rotation
           may cause significant error
 Rotational temperatures (Kelvin)      0.11964     0.08230     0.05977
 Rotational constants (GHZ):           2.49289     1.71495     1.24541
 Zero-point vibrational energy     414013.9 (Joules/Mol)
                                   98.95170 (Kcal/Mol)
 Warning -- explicit consideration of  13 degrees of freedom as
           vibrations may cause significant error
 Vibrational temperatures:    176.48   247.34   270.22   295.42   349.02
          (Kelvin)            405.72   445.70   538.67   668.12   712.73
                              770.93   826.75   856.62   977.16  1007.46
                             1119.02  1195.05  1245.27  1294.46  1374.27
                             1385.51  1439.77  1530.93  1537.94  1567.61
                             1592.85  1680.22  1739.00  1772.91  1833.24
                             1895.44  1962.96  2028.63  2035.82  2063.78
                             2098.33  2123.38  2140.36  2151.37  2174.20
                             2404.98  4367.96  4370.85  4382.90  4455.83
                             4459.35  4498.34  4507.80  4585.92  4623.07
                             5401.10

 Zero-point correction=                           0.157690 (Hartree/Particle)
 Thermal correction to Energy=                    0.166517
 Thermal correction to Enthalpy=                  0.167461
 Thermal correction to Gibbs Free Energy=         0.124872
 Sum of electronic and zero-point Energies=           -423.024555
 Sum of electronic and thermal Energies=              -423.015728
 Sum of electronic and thermal Enthalpies=            -423.014784
 Sum of electronic and thermal Free Energies=         -423.057373

                     E (Thermal)             CV                S
                      KCal/Mol        Cal/Mol-Kelvin    Cal/Mol-Kelvin
 Total                  104.491             34.217             89.637
 Electronic               0.000              0.000              0.000
 Translational            0.889              2.981             40.409
 Rotational               0.889              2.981             28.492
 Vibrational            102.713             28.256             20.736
 Vibration     1          0.610              1.930              3.058
 Vibration     2          0.626              1.877              2.414
 Vibration     3          0.632              1.857              2.249
 Vibration     4          0.640              1.832              2.085
 Vibration     5          0.659              1.775              1.784
 Vibration     6          0.681              1.707              1.522
 Vibration     7          0.699              1.655              1.364
 Vibration     8          0.746              1.525              1.062
 Vibration     9          0.822              1.329              0.753
 Vibration    10          0.851              1.260              0.670
 Vibration    11          0.891              1.171              0.574
 Vibration    12          0.931              1.086              0.495
 Vibration    13          0.953              1.042              0.458

 Normal termination of Gaussian 09 at Tue Jan 28 00:53:41 2020.
