 Gaussian 09, Revision D.01,
 Gaussian 09:  ES64L-G09RevD.01 24-Apr-2013

 -----------------------------
 # b3lyp 6-31G(2df,p) opt Freq
 -----------------------------

 -----
 titel
 -----
 Symbolic Z-matrix:
 Charge =  0 Multiplicity = 1

 SCF Done:  E(RB3LYP) =  -423.131330638     A.U. after   14 cycles
 Optimization completed.
    -- Stationary point found.
 Normal termination of Gaussian 09 at Tue Jan 28 09:15:21 2020.

 ----------------------------------------------------------------------
 #N Geom=AllCheck Guess=TCheck SCRF=Check GenChk RB3LYP/6-31G(2df,p) Fr
 eq
 ----------------------------------------------------------------------

 Structure from the checkpoint file:  "/scratch/puck/g09_19edacce-999a-4347-8282-b197c6deddbb/Gau-11109.chk"
 -----
 titel
 -----
 Charge =  0 Multiplicity = 1

                         Standard orientation:
 ---------------------------------------------------------------------
 Center     Atomic      Atomic             Coordinates (Angstroms)
 Number     Number       Type             X           Y           Z
 ---------------------------------------------------------------------
      1          6           0        2.660591   -0.913359    0.256470
      2          8           0        1.405549   -0.993704   -0.397661
      3          6           0        0.568424    0.063146   -0.137521
      4          6           0        0.743407    1.573209   -0.506959
      5          6           0       -0.674703    1.429758    0.119622
      6          6           0       -0.035479    0.535406    1.224900
      7          6           0       -0.865520    0.161821   -0.763223
      8          6           0       -1.893699   -0.883389   -0.436149
      9          8           0       -2.663938   -0.848770    0.492686
     10          1           0        2.544933   -0.892316    1.348513
     11          1           0        3.222363   -1.805637   -0.025888
     12          1           0        3.222163   -0.022308   -0.056097
     13          1           0        1.468857    2.142025    0.079808
     14          1           0        0.795394    1.815932   -1.571385
     15          1           0       -1.405213    2.219604    0.268395
     16          1           0        0.652460    1.045450    1.903771
     17          1           0       -0.699967   -0.147701    1.750133
     18          1           0       -0.844277    0.322460   -1.848142
     19          1           0       -1.907727   -1.737261   -1.152146
 ---------------------------------------------------------------------

 SCF Done:  E(RB3LYP) =  -423.131330638     A.U. after    1 cycles

 The electronic state is 1-A.
 Alpha  occ. eigenvalues --  -19.15674 -19.13767 -10.26788 -10.26299 -10.23388
 Alpha  occ. eigenvalues --  -10.21149 -10.20259 -10.19383 -10.18783  -1.05387
 Alpha  occ. eigenvalues --   -1.04310  -0.91759  -0.72136  -0.70671  -0.67579
 Alpha  occ. eigenvalues --   -0.61077  -0.59483  -0.52549  -0.52434  -0.48485
 Alpha  occ. eigenvalues --   -0.47274  -0.45963  -0.44659  -0.43328  -0.38829
 Alpha  occ. eigenvalues --   -0.38314  -0.37713  -0.35821  -0.34023  -0.33113
 Alpha  occ. eigenvalues --   -0.32627  -0.30499  -0.26332  -0.24364
 Alpha virt. eigenvalues --   -0.02538   0.09079   0.10409   0.11694   0.12842
 Alpha virt. eigenvalues --    0.13913   0.14314   0.14540   0.15594   0.16104
 Alpha virt. eigenvalues --    0.16706   0.17009   0.18223   0.18937   0.20985

 Mulliken charges:
               1
     1  C   -0.266105
     2  O   -0.290299
     3  C    0.426903
     4  C   -0.295155
     5  C   -0.063272
     6  C   -0.299061
     7  C   -0.119299
     8  C    0.116666
     9  O   -0.249914
    10  H    0.119469
    11  H    0.133778
    12  H    0.116570
    13  H    0.095275
    14  H    0.096207
    15  H    0.094318
    16  H    0.091561
    17  H    0.128702
    18  H    0.082341
    19  H    0.081314
 Sum of Mulliken charges =   0.00000

 Dipole moment (field-independent basis, Debye):
    X=              2.5242    Y=              1.1144    Z=             -0.7533  Tot=              2.8603
 Quadrupole moment (field-independent basis, Debye-Ang):
   XX=            -56.2292   YY=            -53.2082   ZZ=            -52.5788
   XY=             -2.1183   XZ=              5.2590   YZ=              0.3861

  Exact polarizability:  85.757   2.697  73.571  -0.444   1.189  71.156
 Approx polarizability: 118.365   3.253 106.528  -6.785   2.505 113.391

                      1                      2                      3
                      A                      A                      A
 Frequencies --     62.0946                93.7613               152.8653
 Red. masses --      3.6830                 3.3841                 2.7651
 Frc consts  --      0.0084                 0.0175                 0.0381
 IR Inten    --      1.9156                 6.4923                 4.9706

                      4                      5                      6
                      A                      A                      A
 Frequencies --    189.9593               223.5050               261.1265
 Red. masses --      1.1354                 4.0551                 2.6948
 Frc consts  --      0.0241                 0.1194                 0.1083
 IR Inten    --      0.8485                 5.5981                 0.0891

                      7                      8                      9
                      A                      A                      A
 Frequencies --    351.7056               421.5140               487.2579
 Red. masses --      3.7975                 3.5492                 3.0113
 Frc consts  --      0.2768                 0.3715                 0.4212
 IR Inten    --      1.4891                 2.6807                 0.3939

                     10                     11                     12
                      A                      A                      A
 Frequencies --    569.2439               618.2091               715.4120
 Red. masses --      2.1204                 4.1918                 3.4805
 Frc consts  --      0.4048                 0.9439                 1.0495
 IR Inten    --      0.0526                12.7548                25.0370

                     13                     14                     15
                      A                      A                      A
 Frequencies --    782.7033               819.6323               846.3050
 Red. masses --      3.1621                 2.7989                 3.2214
 Frc consts  --      1.1414                 1.1078                 1.3594
 IR Inten    --      1.5584                 0.1471                 3.2780

                     16                     17                     18
                      A                      A                      A
 Frequencies --    920.3066               943.8467               952.4843
 Red. masses --      2.4076                 1.6655                 2.0019
 Frc consts  --      1.2014                 0.8742                 1.0700
 IR Inten    --      3.3276                 5.5490                 2.3467

                     19                     20                     21
                      A                      A                      A
 Frequencies --    983.2739              1021.6258              1049.3760
 Red. masses --      1.3030                 1.5794                 1.6752
 Frc consts  --      0.7422                 0.9712                 1.0869
 IR Inten    --      3.6827                23.2546                12.2998

                     22                     23                     24
                      A                      A                      A
 Frequencies --   1080.1178              1090.7543              1115.3928
 Red. masses --      4.0557                 1.7879                 1.6349
 Frc consts  --      2.7878                 1.2533                 1.1984
 IR Inten    --     58.1374                 5.1324                 8.4105

                     25                     26                     27
                      A                      A                      A
 Frequencies --   1130.8555              1148.6066              1165.2448
 Red. masses --      1.5331                 1.6249                 1.5795
 Frc consts  --      1.1551                 1.2630                 1.2636
 IR Inten    --      0.3275                 1.5753                 2.5179

                     28                     29                     30
                      A                      A                      A
 Frequencies --   1180.7527              1203.8914              1206.8568
 Red. masses --      1.2841                 1.6378                 1.6739
 Frc consts  --      1.0548                 1.3986                 1.4364
 IR Inten    --      2.0953                 2.5339                 0.9022

                     31                     32                     33
                      A                      A                      A
 Frequencies --   1226.9176              1238.7319              1300.6872
 Red. masses --      1.6193                 2.0014                 3.8791
 Frc consts  --      1.4362                 1.8094                 3.8666
 IR Inten    --      5.8308                22.1371               327.4625

                     34                     35                     36
                      A                      A                      A
 Frequencies --   1387.9759              1427.0047              1484.1371
 Red. masses --      1.6115                 1.1915                 1.1795
 Frc consts  --      1.8292                 1.4295                 1.5307
 IR Inten    --     23.6105                 8.9205                 3.3551

                     37                     38                     39
                      A                      A                      A
 Frequencies --   1489.8001              1497.4653              1505.6151
 Red. masses --      1.0475                 1.1030                 1.0507
 Frc consts  --      1.3698                 1.4572                 1.4033
 IR Inten    --      5.4270                 2.3634                11.6276

                     40                     41                     42
                      A                      A                      A
 Frequencies --   1542.4810              1816.3762              2866.3577
 Red. masses --      1.1969                10.0051                 1.0821
 Frc consts  --      1.6779                19.4483                 5.2380
 IR Inten    --     15.4587               138.7187               132.1260

                     43                     44                     45
                      A                      A                      A
 Frequencies --   2998.3359              3038.4064              3052.3095
 Red. masses --      1.0350                 1.0830                 1.0819
 Frc consts  --      5.4819                 5.8907                 5.9386
 IR Inten    --     42.0764                31.5281                 1.2970

                     46                     47                     48
                      A                      A                      A
 Frequencies --   3056.6635              3072.9726              3123.9567
 Red. masses --      1.0751                 1.0612                 1.1112
 Frc consts  --      5.9184                 5.9043                 6.3894
 IR Inten    --     76.5148                32.0175                33.1995

                     49                     50                     51
                      A                      A                      A
 Frequencies --   3129.5532              3161.7740              3166.3014
 Red. masses --      1.0988                 1.0947                 1.1036
 Frc consts  --      6.3409                 6.4474                 6.5190
 IR Inten    --     24.9523                23.5268                11.5315

 - Thermochemistry -
 -------------------
 Temperature   298.150 Kelvin.  Pressure   1.00000 Atm.
 Atom     1 has atomic number  6 and mass  12.00000

 Molecular mass:   126.06808 amu.
 Principal axes and moments of inertia in atomic units:
                           1         2         3
     Eigenvalues --   641.621181389.706931647.24626
           X            0.99973  -0.01272   0.01927
           Y            0.01276   0.99992  -0.00193
           Z           -0.01924   0.00218   0.99981
 This molecule is an asymmetric top.
 Rotational symmetry number  1.
 Warning -- assumption of classical behavior for rotation
           may cause significant error
 Rotational temperatures (Kelvin)      0.13499     0.06233     0.05258
 Rotational constants (GHZ):           2.81278     1.29865     1.09561
 Zero-point vibrational energy     414939.7 (Joules/Mol)
                                   99.17297 (Kcal/Mol)
 Warning -- explicit consideration of  11 degrees of freedom as
           vibrations may cause significant error
 Vibrational temperatures:     89.34   134.90   219.94   273.31   321.57
          (Kelvin)            375.70   506.03   606.46   701.05   819.01
                              889.46  1029.32  1126.13  1179.27  1217.64
                             1324.11  1357.98  1370.41  1414.71  1469.89
                             1509.82  1554.05  1569.35  1604.80  1627.05
                             1652.59  1676.53  1698.84  1732.13  1736.40
                             1765.26  1782.26  1871.40  1996.99  2053.14
                             2135.34  2143.49  2154.52  2166.24  2219.28
                             2613.36  4124.04  4313.93  4371.58  4391.59
                             4397.85  4421.32  4494.67  4502.72  4549.08
                             4555.60

 Zero-point correction=                           0.158042 (Hartree/Particle)
 Thermal correction to Energy=                    0.166694
 Thermal correction to Enthalpy=                  0.167639
 Thermal correction to Gibbs Free Energy=         0.124199
 Sum of electronic and zero-point Energies=           -422.973288
 Sum of electronic and thermal Energies=              -422.964636
 Sum of electronic and thermal Enthalpies=            -422.963692
 Sum of electronic and thermal Free Energies=         -423.007132

                     E (Thermal)             CV                S
                      KCal/Mol        Cal/Mol-Kelvin    Cal/Mol-Kelvin
 Total                  104.602             31.971             91.427
 Electronic               0.000              0.000              0.000
 Translational            0.889              2.981             40.409
 Rotational               0.889              2.981             28.776
 Vibrational            102.825             26.010             22.242
 Vibration     1          0.597              1.972              4.389
 Vibration     2          0.603              1.954              3.580
 Vibration     3          0.619              1.899              2.636
 Vibration     4          0.633              1.854              2.228
 Vibration     5          0.649              1.805              1.931
 Vibration     6          0.669              1.744              1.654
 Vibration     7          0.728              1.572              1.159
 Vibration     8          0.784              1.423              0.887
 Vibration     9          0.843              1.278              0.691
 Vibration    10          0.925              1.098              0.506
 Vibration    11          0.978              0.993              0.419

 Normal termination of Gaussian 09 at Tue Jan 28 10:01:16 2020.
