 Gaussian 09, Revision D.01,
 Gaussian 09:  ES64L-G09RevD.01 24-Apr-2013

 -----------------------------
 # b3lyp 6-31G(2df,p) opt Freq
 -----------------------------

 -----
 titel
 -----
 Symbolic Z-matrix:
 Charge =  0 Multiplicity = 1

 SCF Done:  E(RB3LYP) =  -423.203438174     A.U. after   14 cycles
 Optimization completed.
    -- Stationary point found.
 Normal termination of Gaussian 09 at Mon Jan 27 23:05:38 2020.

 ----------------------------------------------------------------------
 #N Geom=AllCheck Guess=TCheck SCRF=Check GenChk RB3LYP/6-31G(2df,p) Fr
 eq
 ----------------------------------------------------------------------

 Structure from the checkpoint file:  "/scratch/puck/g09_502d5d80-fbc0-49f6-87e8-c32750315b40/Gau-185885.chk"
 -----
 titel
 -----
 Charge =  0 Multiplicity = 1

                         Standard orientation:
 ---------------------------------------------------------------------
 Center     Atomic      Atomic             Coordinates (Angstroms)
 Number     Number       Type             X           Y           Z
 ---------------------------------------------------------------------
      1          6           0        2.532192   -0.337213   -0.327189
      2          6           0        1.160114   -0.016670    0.265494
      3          6           0        0.633100    1.377243   -0.131065
      4          6           0       -0.386212    1.974231    0.786283
      5          6           0       -0.845649    1.275380   -0.485141
      6          6           0       -1.229467   -0.158058   -0.306489
      7          8           0       -2.332681   -0.649629   -0.254501
      8          6           0        0.052472   -0.984641   -0.202307
      9          8           0       -0.100750   -2.136310    0.578287
     10          1           0        2.842405   -1.350806   -0.056406
     11          1           0        2.513260   -0.270696   -1.421179
     12          1           0        3.293652    0.359391    0.038304
     13          1           0        1.221600   -0.092703    1.357380
     14          1           0        1.286874    2.034113   -0.693541
     15          1           0       -0.568595    1.498095    1.744953
     16          1           0       -0.513039    3.051131    0.793010
     17          1           0       -1.340232    1.867738   -1.245188
     18          1           0        0.279229   -1.247250   -1.256906
     19          1           0       -1.047002   -2.343136    0.551764
 ---------------------------------------------------------------------

 SCF Done:  E(RB3LYP) =  -423.203438174     A.U. after    1 cycles

 The electronic state is 1-A.
 Alpha  occ. eigenvalues --  -19.13919 -19.13682 -10.27004 -10.23561 -10.20818
 Alpha  occ. eigenvalues --  -10.20758 -10.20732 -10.20013 -10.18178  -1.05386
 Alpha  occ. eigenvalues --   -1.01718  -0.89585  -0.78411  -0.71718  -0.65189
 Alpha  occ. eigenvalues --   -0.61965  -0.57606  -0.55987  -0.50853  -0.49328
 Alpha  occ. eigenvalues --   -0.47911  -0.44332  -0.43797  -0.41975  -0.40136
 Alpha  occ. eigenvalues --   -0.39583  -0.37075  -0.36677  -0.35296  -0.34068
 Alpha  occ. eigenvalues --   -0.30823  -0.29995  -0.27118  -0.24628
 Alpha virt. eigenvalues --   -0.02429   0.08887   0.10198   0.10460   0.11265
 Alpha virt. eigenvalues --    0.11500   0.12799   0.15201   0.15853   0.16433
 Alpha virt. eigenvalues --    0.17911   0.18282   0.21035   0.21696   0.23443

 Mulliken charges:
               1
     1  C   -0.422658
     2  C   -0.014100
     3  C   -0.047508
     4  C   -0.288436
     5  C   -0.151584
     6  C    0.346408
     7  O   -0.344641
     8  C    0.066185
     9  O   -0.442959
    10  H    0.133574
    11  H    0.116154
    12  H    0.115813
    13  H    0.092670
    14  H    0.093284
    15  H    0.128655
    16  H    0.125680
    17  H    0.113291
    18  H    0.088796
    19  H    0.291377
 Sum of Mulliken charges =   0.00000

 Dipole moment (field-independent basis, Debye):
    X=              1.6532    Y=              2.2784    Z=             -0.5504  Tot=              2.8683
 Quadrupole moment (field-independent basis, Debye-Ang):
   XX=            -58.7286   YY=            -52.4013   ZZ=            -51.8675
   XY=             -0.0800   XZ=             -1.1463   YZ=              0.5499

  Exact polarizability:  82.912   1.510  80.607  -0.338   0.592  62.571
 Approx polarizability: 121.388   7.670 112.790   0.789  -0.249  99.220

                      1                      2                      3
                      A                      A                      A
 Frequencies --     58.3546               174.9861               230.4740
 Red. masses --      5.1958                 3.4846                 1.7889
 Frc consts  --      0.0104                 0.0629                 0.0560
 IR Inten    --      0.5543                 1.8114                 4.7747

                      4                      5                      6
                      A                      A                      A
 Frequencies --    248.3125               255.4230               285.7070
 Red. masses --      2.4655                 1.5579                 4.0554
 Frc consts  --      0.0896                 0.0599                 0.1950
 IR Inten    --      1.0436                 2.7812                17.7266

                      7                      8                      9
                      A                      A                      A
 Frequencies --    391.5683               415.4016               452.0291
 Red. masses --      2.2804                 1.4534                 3.3337
 Frc consts  --      0.2060                 0.1478                 0.4013
 IR Inten    --     43.0803                33.1292                 0.2085

                     10                     11                     12
                      A                      A                      A
 Frequencies --    488.8838               587.4687               620.0677
 Red. masses --      3.4051                 3.9502                 5.6024
 Frc consts  --      0.4795                 0.8032                 1.2691
 IR Inten    --     14.2623                 4.5619                 1.8436

                     13                     14                     15
                      A                      A                      A
 Frequencies --    669.2917               805.7405               809.7974
 Red. masses --      3.7242                 1.6854                 1.5802
 Frc consts  --      0.9829                 0.6447                 0.6105
 IR Inten    --      1.4901                 7.0652                 9.7318

                     16                     17                     18
                      A                      A                      A
 Frequencies --    848.6442               918.6116               942.3644
 Red. masses --      2.6825                 3.1318                 2.0647
 Frc consts  --      1.1383                 1.5571                 1.0803
 IR Inten    --      0.9156                 6.3357                 1.1275

                     19                     20                     21
                      A                      A                      A
 Frequencies --    956.5114               974.6560              1040.4935
 Red. masses --      2.0768                 1.7629                 1.5496
 Frc consts  --      1.1195                 0.9867                 0.9884
 IR Inten    --      7.4608                34.5379                44.2135

                     22                     23                     24
                      A                      A                      A
 Frequencies --   1066.5810              1089.1371              1102.4497
 Red. masses --      1.1849                 2.0512                 1.3358
 Frc consts  --      0.7942                 1.4336                 0.9566
 IR Inten    --      2.2570                 8.1549                 1.5910

                     25                     26                     27
                      A                      A                      A
 Frequencies --   1111.1620              1140.3558              1162.7500
 Red. masses --      2.1267                 2.9341                 1.7337
 Frc consts  --      1.5471                 2.2480                 1.3810
 IR Inten    --      2.1434               106.2492                 0.7860

                     28                     29                     30
                      A                      A                      A
 Frequencies --   1180.8589              1193.4757              1260.4231
 Red. masses --      2.0239                 1.7617                 1.3528
 Frc consts  --      1.6628                 1.4785                 1.2662
 IR Inten    --      8.3687                 3.2088                18.1136

                     31                     32                     33
                      A                      A                      A
 Frequencies --   1277.6641              1321.7193              1335.2267
 Red. masses --      1.3469                 1.5506                 1.9119
 Frc consts  --      1.2954                 1.5960                 2.0082
 IR Inten    --      0.8968                 7.0048                 4.0700

                     34                     35                     36
                      A                      A                      A
 Frequencies --   1359.5477              1373.7481              1410.8730
 Red. masses --      1.7346                 1.4436                 1.2997
 Frc consts  --      1.8890                 1.6051                 1.5243
 IR Inten    --      8.5700                43.3044                 7.4840

                     37                     38                     39
                      A                      A                      A
 Frequencies --   1424.9961              1490.3286              1497.8109
 Red. masses --      1.5532                 1.1837                 1.0557
 Frc consts  --      1.8582                 1.5490                 1.3955
 IR Inten    --     19.4975                 2.5373                 3.3154

                     40                     41                     42
                      A                      A                      A
 Frequencies --   1500.0310              1825.8743              2888.3106
 Red. masses --      1.0433                12.4847                 1.0780
 Frc consts  --      1.3831                24.5227                 5.2985
 IR Inten    --      7.1457               233.6556                33.8297

                     43                     44                     45
                      A                      A                      A
 Frequencies --   3029.1908              3038.0925              3096.8820
 Red. masses --      1.0379                 1.0819                 1.1007
 Frc consts  --      5.6111                 5.8836                 6.2196
 IR Inten    --     20.4447                15.8512                32.3963

                     46                     47                     48
                      A                      A                      A
 Frequencies --   3110.7128              3127.0454              3173.7798
 Red. masses --      1.1015                 1.0546                 1.0905
 Frc consts  --      6.2798                 6.0759                 6.4721
 IR Inten    --     17.1037                11.6669                10.4638

                     49                     50                     51
                      A                      A                      A
 Frequencies --   3189.5239              3215.6384              3720.6610
 Red. masses --      1.0931                 1.1150                 1.0651
 Frc consts  --      6.5516                 6.7931                 8.6875
 IR Inten    --      3.3661                 6.4973                39.7708

 - Thermochemistry -
 -------------------
 Temperature   298.150 Kelvin.  Pressure   1.00000 Atm.
 Atom     1 has atomic number  6 and mass  12.00000

 Molecular mass:   126.06808 amu.
 Principal axes and moments of inertia in atomic units:
                           1         2         3
     Eigenvalues --   865.05577 991.963551628.10851
           X            0.99536  -0.09482  -0.01649
           Y            0.09501   0.99542   0.01093
           Z            0.01538  -0.01245   0.99980
 This molecule is an asymmetric top.
 Rotational symmetry number  1.
 Warning -- assumption of classical behavior for rotation
           may cause significant error
 Rotational temperatures (Kelvin)      0.10013     0.08732     0.05320
 Rotational constants (GHZ):           2.08627     1.81936     1.10849
 Zero-point vibrational energy     418032.9 (Joules/Mol)
                                   99.91225 (Kcal/Mol)
 Warning -- explicit consideration of  12 degrees of freedom as
           vibrations may cause significant error
 Vibrational temperatures:     83.96   251.77   331.60   357.27   367.50
          (Kelvin)            411.07   563.38   597.67   650.37   703.39
                              845.24   892.14   962.96  1159.28  1165.12
                             1221.01  1321.68  1355.85  1376.20  1402.31
                             1497.04  1534.57  1567.02  1586.18  1598.71
                             1640.72  1672.94  1698.99  1717.14  1813.47
                             1838.27  1901.66  1921.09  1956.08  1976.51
                             2029.93  2050.25  2144.25  2155.01  2158.21
                             2627.02  4155.63  4358.32  4371.13  4455.72
                             4475.62  4499.12  4566.36  4589.01  4626.58
                             5353.19

 Zero-point correction=                           0.159220 (Hartree/Particle)
 Thermal correction to Energy=                    0.167642
 Thermal correction to Enthalpy=                  0.168586
 Thermal correction to Gibbs Free Energy=         0.126188
 Sum of electronic and zero-point Energies=           -423.044218
 Sum of electronic and thermal Energies=              -423.035796
 Sum of electronic and thermal Enthalpies=            -423.034852
 Sum of electronic and thermal Free Energies=         -423.077250

                     E (Thermal)             CV                S
                      KCal/Mol        Cal/Mol-Kelvin    Cal/Mol-Kelvin
 Total                  105.197             32.592             89.234
 Electronic               0.000              0.000              0.000
 Translational            0.889              2.981             40.409
 Rotational               0.889              2.981             28.726
 Vibrational            103.419             26.630             20.100
 Vibration     1          0.596              1.974              4.512
 Vibration     2          0.627              1.873              2.381
 Vibration     3          0.652              1.794              1.875
 Vibration     4          0.662              1.766              1.743
 Vibration     5          0.666              1.754              1.693
 Vibration     6          0.683              1.700              1.499
 Vibration     7          0.759              1.488              0.994
 Vibration     8          0.779              1.437              0.908
 Vibration     9          0.811              1.356              0.790
 Vibration    10          0.845              1.275              0.687
 Vibration    11          0.945              1.059              0.472
 Vibration    12          0.980              0.990              0.416

 Optimization completed.
    -- Stationary point found.
 Normal termination of Gaussian 09 at Mon Jan 27 23:52:39 2020.
