 Gaussian 09, Revision D.01,
 Gaussian 09:  ES64L-G09RevD.01 24-Apr-2013

 -----------------------------
 # b3lyp 6-31G(2df,p) opt Freq
 -----------------------------

 -----
 titel
 -----
 Symbolic Z-matrix:
 Charge =  0 Multiplicity = 1

 SCF Done:  E(RB3LYP) =  -423.142770217     A.U. after   12 cycles
 Optimization completed.
    -- Stationary point found.
 Normal termination of Gaussian 09 at Mon Jan 27 17:02:38 2020.

 ----------------------------------------------------------------------
 #N Geom=AllCheck Guess=TCheck SCRF=Check GenChk RB3LYP/6-31G(2df,p) Fr
 eq
 ----------------------------------------------------------------------

 Structure from the checkpoint file:  "/scratch/puck/g09_95ad1cf4-2d9b-4e64-8e2e-dd8c97b22694/Gau-85665.chk"
 -----
 titel
 -----
 Charge =  0 Multiplicity = 1

                         Standard orientation:
 ---------------------------------------------------------------------
 Center     Atomic      Atomic             Coordinates (Angstroms)
 Number     Number       Type             X           Y           Z
 ---------------------------------------------------------------------
      1          8           0       -2.319447   -0.851953    0.051769
      2          6           0       -1.009987   -0.380610   -0.006627
      3          6           0        0.008655   -1.142803   -0.908296
      4          6           0        1.023346   -0.346857   -0.001561
      5          8           0        2.380320   -0.640469    0.089241
      6          6           0        0.011938   -0.587172    1.154140
      7          6           0        0.745216    1.091997   -0.470126
      8          6           0       -0.022646    2.048124    0.405418
      9          6           0       -0.771349    1.073987   -0.474408
     10          1           0       -2.825758   -0.257295    0.615567
     11          1           0        0.011555   -2.221938   -0.727168
     12          1           0        0.001150   -0.923054   -1.978753
     13          1           0        2.474660   -1.563397    0.345640
     14          1           0        0.011092   -1.632618    1.472407
     15          1           0        0.009391    0.065939    2.027263
     16          1           0        1.329472    1.462556   -1.304439
     17          1           0       -0.021469    1.961579    1.485068
     18          1           0       -0.032274    3.077930    0.061020
     19          1           0       -1.355841    1.429675   -1.315927
 ---------------------------------------------------------------------

 SCF Done:  E(RB3LYP) =  -423.142770217     A.U. after    1 cycles

 The electronic state is 1-A.
 Alpha  occ. eigenvalues --  -19.14106 -19.14087 -10.24441 -10.24419 -10.18888
 Alpha  occ. eigenvalues --  -10.18736 -10.18704 -10.17656 -10.17641  -1.03058
 Alpha  occ. eigenvalues --   -1.02450  -0.90231  -0.80170  -0.66930  -0.66139
 Alpha  occ. eigenvalues --   -0.61756  -0.56102  -0.54815  -0.53128  -0.49363
 Alpha  occ. eigenvalues --   -0.47490  -0.44827  -0.41728  -0.40184  -0.39533
 Alpha  occ. eigenvalues --   -0.38454  -0.36610  -0.35404  -0.32366  -0.31773
 Alpha  occ. eigenvalues --   -0.29786  -0.27709  -0.24931  -0.24799
 Alpha virt. eigenvalues --    0.07342   0.08201   0.10036   0.11597   0.11819
 Alpha virt. eigenvalues --    0.13036   0.14530   0.15813   0.17265   0.18439
 Alpha virt. eigenvalues --    0.19416   0.20787   0.21502   0.22701   0.22889

 Mulliken charges:
               1
     1  O   -0.485249
     2  C    0.415152
     3  C   -0.315697
     4  C    0.408903
     5  O   -0.487687
     6  C   -0.382583
     7  C   -0.052522
     8  C   -0.322715
     9  C   -0.117024
    10  H    0.279123
    11  H    0.089515
    12  H    0.093737
    13  H    0.279041
    14  H    0.092864
    15  H    0.093319
    16  H    0.094578
    17  H    0.114385
    18  H    0.111710
    19  H    0.091151
 Sum of Mulliken charges =   0.00000

 Dipole moment (field-independent basis, Debye):
    X=             -0.5339    Y=              0.2092    Z=              0.7948  Tot=              0.9801
 Quadrupole moment (field-independent basis, Debye-Ang):
   XX=            -56.6345   YY=            -49.9836   ZZ=            -51.4772
   XY=             -6.1992   XZ=             -1.8273   YZ=             -1.7246

  Exact polarizability:  73.827  -2.031  80.126  -0.642   0.683  68.019
 Approx polarizability: 112.122  -1.243 113.423  -0.777   2.472 104.225

                      1                      2                      3
                      A                      A                      A
 Frequencies --    241.8960               252.4311               265.5079
 Red. masses --      1.6712                 1.7410                 2.3355
 Frc consts  --      0.0576                 0.0654                 0.0970
 IR Inten    --     39.2480                14.3643                13.9665

                      4                      5                      6
                      A                      A                      A
 Frequencies --    296.5795               321.5908               397.1244
 Red. masses --      2.0502                 2.0153                 3.4350
 Frc consts  --      0.1063                 0.1228                 0.3192
 IR Inten    --     37.8688                99.2792                 1.7466

                      7                      8                      9
                      A                      A                      A
 Frequencies --    407.8020               480.2595               545.8343
 Red. masses --      2.4063                 2.8483                 2.4444
 Frc consts  --      0.2358                 0.3871                 0.4291
 IR Inten    --      2.5952                 6.7032                 0.9525

                     10                     11                     12
                      A                      A                      A
 Frequencies --    562.7914               574.5010               601.9217
 Red. masses --      2.0299                 4.2291                 5.9621
 Frc consts  --      0.3788                 0.8224                 1.2727
 IR Inten    --      1.9996                 1.1980                 1.6884

                     13                     14                     15
                      A                      A                      A
 Frequencies --    665.3844               793.7031               819.4826
 Red. masses --      2.7696                 3.0777                 1.3011
 Frc consts  --      0.7225                 1.1423                 0.5148
 IR Inten    --      3.3042                 5.3098                 2.4866

                     16                     17                     18
                      A                      A                      A
 Frequencies --    829.9003               843.7006               934.9283
 Red. masses --      2.1868                 2.9192                 2.9478
 Frc consts  --      0.8874                 1.2243                 1.5181
 IR Inten    --      4.7809                 1.7568                 4.2336

                     19                     20                     21
                      A                      A                      A
 Frequencies --    950.0054               971.7311               994.5084
 Red. masses --      1.7576                 1.7880                 1.8193
 Frc consts  --      0.9346                 0.9947                 1.0601
 IR Inten    --      1.6939                 0.5143                18.0495

                     22                     23                     24
                      A                      A                      A
 Frequencies --   1005.7427              1022.9089              1065.1181
 Red. masses --      1.2932                 1.9748                 1.3512
 Frc consts  --      0.7707                 1.2174                 0.9032
 IR Inten    --     12.8899                20.3761                18.7459

                     25                     26                     27
                      A                      A                      A
 Frequencies --   1080.9979              1095.7878              1107.1331
 Red. masses --      1.4147                 1.6967                 1.4730
 Frc consts  --      0.9740                 1.2003                 1.0638
 IR Inten    --     16.7386                28.0007                10.7695

                     28                     29                     30
                      A                      A                      A
 Frequencies --   1132.6816              1138.6780              1158.4524
 Red. masses --      1.8412                 1.5026                 1.5013
 Frc consts  --      1.3918                 1.1479                 1.1871
 IR Inten    --     32.9334                47.9751                26.0421

                     31                     32                     33
                      A                      A                      A
 Frequencies --   1192.7246              1206.6571              1248.8886
 Red. masses --      1.6730                 2.2214                 1.9121
 Frc consts  --      1.4022                 1.9056                 1.7572
 IR Inten    --      5.9038                 2.8269               117.8575

                     34                     35                     36
                      A                      A                      A
 Frequencies --   1280.2854              1320.2761              1353.1850
 Red. masses --      4.3665                 1.8296                 1.7376
 Frc consts  --      4.2170                 1.8790                 1.8746
 IR Inten    --     51.0837               207.8240                17.9853

                     37                     38                     39
                      A                      A                      A
 Frequencies --   1378.1869              1399.2730              1472.0944
 Red. masses --      1.9159                 2.1963                 1.1673
 Frc consts  --      2.1441                 2.5336                 1.4904
 IR Inten    --      0.2475                 5.3579                 1.1375

                     40                     41                     42
                      A                      A                      A
 Frequencies --   1496.6429              1537.1660              3050.8508
 Red. masses --      1.2003                 1.1714                 1.0560
 Frc consts  --      1.5841                 1.6308                 5.7910
 IR Inten    --      3.5682                 1.3052                34.8089

                     43                     44                     45
                      A                      A                      A
 Frequencies --   3072.7870              3118.2280              3126.8281
 Red. masses --      1.0580                 1.1089                 1.0951
 Frc consts  --      5.8858                 6.3529                 6.3085
 IR Inten    --     19.1230                29.2968                10.0272

                     46                     47                     48
                      A                      A                      A
 Frequencies --   3136.1371              3168.8867              3181.0436
 Red. masses --      1.0681                 1.0894                 1.0939
 Frc consts  --      6.1897                 6.4454                 6.5218
 IR Inten    --     42.7659                12.8901                 8.4899

                     49                     50                     51
                      A                      A                      A
 Frequencies --   3211.5394              3805.9117              3818.2808
 Red. masses --      1.1125                 1.0658                 1.0658
 Frc consts  --      6.7606                 9.0960                 9.1551
 IR Inten    --     13.9295                21.6129                19.8617

 - Thermochemistry -
 -------------------
 Temperature   298.150 Kelvin.  Pressure   1.00000 Atm.
 Atom     1 has atomic number  8 and mass  15.99491

 Molecular mass:   126.06808 amu.
 Principal axes and moments of inertia in atomic units:
                           1         2         3
     Eigenvalues --   709.112841012.931401362.31284
           X            0.99924  -0.03881  -0.00455
           Y            0.03880   0.99925  -0.00195
           Z            0.00462   0.00178   0.99999
 This molecule is an asymmetric top.
 Rotational symmetry number  1.
 Warning -- assumption of classical behavior for rotation
           may cause significant error
 Rotational temperatures (Kelvin)      0.12214     0.08551     0.06358
 Rotational constants (GHZ):           2.54507     1.78170     1.32476
 Zero-point vibrational energy     419500.2 (Joules/Mol)
                                  100.26295 (Kcal/Mol)
 Warning -- explicit consideration of  12 degrees of freedom as
           vibrations may cause significant error
 Vibrational temperatures:    348.03   363.19   382.01   426.71   462.70
          (Kelvin)            571.37   586.74   690.99   785.33   809.73
                              826.58   866.03   957.34  1141.96  1179.05
                             1194.04  1213.90  1345.15  1366.84  1398.10
                             1430.87  1447.04  1471.74  1532.47  1555.31
                             1576.59  1592.92  1629.67  1638.30  1666.75
                             1716.06  1736.11  1796.87  1842.04  1899.58
                             1946.93  1982.90  2013.24  2118.01  2153.33
                             2211.64  4389.49  4421.05  4486.43  4498.80
                             4512.20  4559.32  4576.81  4620.68  5475.85
                             5493.65

 Zero-point correction=                           0.159779 (Hartree/Particle)
 Thermal correction to Energy=                    0.167372
 Thermal correction to Enthalpy=                  0.168316
 Thermal correction to Gibbs Free Energy=         0.128553
 Sum of electronic and zero-point Energies=           -422.982991
 Sum of electronic and thermal Energies=              -422.975398
 Sum of electronic and thermal Enthalpies=            -422.974454
 Sum of electronic and thermal Free Energies=         -423.014218

                     E (Thermal)             CV                S
                      KCal/Mol        Cal/Mol-Kelvin    Cal/Mol-Kelvin
 Total                  105.027             32.262             83.689
 Electronic               0.000              0.000              0.000
 Translational            0.889              2.981             40.409
 Rotational               0.889              2.981             28.372
 Vibrational            103.250             26.300             14.909
 Vibration     1          0.658              1.776              1.789
 Vibration     2          0.664              1.759              1.714
 Vibration     3          0.671              1.736              1.625
 Vibration     4          0.690              1.680              1.436
 Vibration     5          0.707              1.632              1.302
 Vibration     6          0.764              1.476              0.973
 Vibration     7          0.772              1.453              0.934
 Vibration     8          0.837              1.294              0.709
 Vibration     9          0.901              1.149              0.553
 Vibration    10          0.919              1.112              0.518
 Vibration    11          0.931              1.086              0.496
 Vibration    12          0.960              1.028              0.446

 Optimization completed.
    -- Stationary point found.
 Normal termination of Gaussian 09 at Mon Jan 27 17:52:43 2020.
