 Gaussian 09, Revision D.01,
 Gaussian 09:  ES64L-G09RevD.01 24-Apr-2013

 -----------------------------
 # b3lyp 6-31G(2df,p) opt Freq
 -----------------------------

 -----
 titel
 -----
 Symbolic Z-matrix:
 Charge =  0 Multiplicity = 1

 SCF Done:  E(RB3LYP) =  -423.204281659     A.U. after   14 cycles
 Optimization completed.
    -- Stationary point found.
 Normal termination of Gaussian 09 at Mon Jan 27 12:58:20 2020.

 ----------------------------------------------------------------------
 #N Geom=AllCheck Guess=TCheck SCRF=Check GenChk RB3LYP/6-31G(2df,p) Fr
 eq
 ----------------------------------------------------------------------

 Structure from the checkpoint file:  "/scratch/puck/g09_8a2f3f67-8e9f-410e-87fa-89bf93d82984/Gau-154816.chk"
 -----
 titel
 -----
 Charge =  0 Multiplicity = 1

                         Standard orientation:
 ---------------------------------------------------------------------
 Center     Atomic      Atomic             Coordinates (Angstroms)
 Number     Number       Type             X           Y           Z
 ---------------------------------------------------------------------
      1          8           0       -3.378622   -0.733807   -0.282455
      2          6           0       -2.339832   -0.214969   -0.030589
      3          6           0       -1.770275    1.200565    0.072432
      4          6           0       -0.463451    0.473893    0.440898
      5          6           0        0.716508    0.582123   -0.506266
      6          6           0        1.804918   -0.424696   -0.200816
      7          6           0        3.225947   -0.165597   -0.626816
      8          6           0        2.858365   -0.118103    0.836474
      9          8           0       -1.156949   -0.824009    0.301725
     10          1           0       -1.761217    1.749600   -0.871411
     11          1           0       -2.228488    1.813552    0.849970
     12          1           0       -0.152670    0.593960    1.482295
     13          1           0        0.355628    0.454253   -1.535447
     14          1           0        1.118684    1.601634   -0.434578
     15          1           0        1.469215   -1.456293   -0.248409
     16          1           0        3.817162   -1.001434   -0.983507
     17          1           0        3.442960    0.774306   -1.124301
     18          1           0        3.198091   -0.920849    1.481059
     19          1           0        2.832125    0.854503    1.318268
 ---------------------------------------------------------------------

 SCF Done:  E(RB3LYP) =  -423.204281659     A.U. after    1 cycles

 The electronic state is 1-A.
 Alpha  occ. eigenvalues --  -19.17731 -19.13161 -10.30751 -10.25774 -10.21055
 Alpha  occ. eigenvalues --  -10.20106 -10.19820 -10.19095 -10.19030  -1.10243
 Alpha  occ. eigenvalues --   -1.02977  -0.86558  -0.78880  -0.74129  -0.63606
 Alpha  occ. eigenvalues --   -0.60434  -0.57954  -0.54013  -0.52417  -0.50064
 Alpha  occ. eigenvalues --   -0.48482  -0.46993  -0.45522  -0.42097  -0.40154
 Alpha  occ. eigenvalues --   -0.39497  -0.37805  -0.36925  -0.36787  -0.33797
 Alpha  occ. eigenvalues --   -0.30541  -0.29496  -0.28559  -0.27251
 Alpha virt. eigenvalues --    0.01306   0.08101   0.09507   0.09983   0.10308
 Alpha virt. eigenvalues --    0.10779   0.12228   0.14373   0.14674   0.15667
 Alpha virt. eigenvalues --    0.16495   0.18308   0.18664   0.22112   0.23374

 Mulliken charges:
               1
     1  O   -0.315767
     2  C    0.449607
     3  C   -0.442541
     4  C    0.146420
     5  C   -0.238811
     6  C    0.034504
     7  C   -0.277510
     8  C   -0.259252
     9  O   -0.252490
    10  H    0.141638
    11  H    0.143706
    12  H    0.101528
    13  H    0.107330
    14  H    0.102680
    15  H    0.106072
    16  H    0.116892
    17  H    0.110578
    18  H    0.117591
    19  H    0.107824
 Sum of Mulliken charges =   0.00000

 Dipole moment (field-independent basis, Debye):
    X=              2.9199    Y=              2.8250    Z=              0.4182  Tot=              4.0843
 Quadrupole moment (field-independent basis, Debye-Ang):
   XX=            -64.3436   YY=            -52.3733   ZZ=            -51.6864
   XY=             -6.8056   XZ=             -1.7930   YZ=              0.1694

  Exact polarizability:  96.942   0.501  68.076   2.335   0.456  64.511
 Approx polarizability: 124.610   5.450 104.192   6.291   1.320  98.292

                      1                      2                      3
                      A                      A                      A
 Frequencies --     64.9131                65.6707               120.5703
 Red. masses --      3.4529                 4.7559                 4.4293
 Frc consts  --      0.0086                 0.0121                 0.0379
 IR Inten    --      1.6021                 2.4492                 0.2027

                      4                      5                      6
                      A                      A                      A
 Frequencies --    147.6193               294.9313               322.0325
 Red. masses --      2.7305                 3.4634                 2.7476
 Frc consts  --      0.0351                 0.1775                 0.1679
 IR Inten    --      1.4977                 0.3499                 0.2218

                      7                      8                      9
                      A                      A                      A
 Frequencies --    410.4770               460.8880               522.0171
 Red. masses --      2.2793                 2.6699                 2.4798
 Frc consts  --      0.2263                 0.3342                 0.3981
 IR Inten    --      0.6185                 1.3074                 2.5109

                     10                     11                     12
                      A                      A                      A
 Frequencies --    531.8509               723.3761               774.8446
 Red. masses --      3.2784                 3.6846                 1.2252
 Frc consts  --      0.5464                 1.1360                 0.4334
 IR Inten    --      4.7603                 0.6273                 1.5317

                     13                     14                     15
                      A                      A                      A
 Frequencies --    802.7761               830.7554               845.7998
 Red. masses --      1.5167                 2.1588                 1.9485
 Frc consts  --      0.5759                 0.8778                 0.8213
 IR Inten    --      2.7365                 4.2346                28.4000

                     16                     17                     18
                      A                      A                      A
 Frequencies --    866.6677               923.8019               930.5180
 Red. masses --      2.6624                 2.4735                 2.4033
 Frc consts  --      1.1782                 1.2437                 1.2260
 IR Inten    --     26.7694                21.5765                 1.3816

                     19                     20                     21
                      A                      A                      A
 Frequencies --    956.4432               997.1794              1049.8752
 Red. masses --      2.9684                 3.0025                 2.1662
 Frc consts  --      1.5999                 1.7591                 1.4068
 IR Inten    --     56.0577                 6.4245                 2.0348

                     22                     23                     24
                      A                      A                      A
 Frequencies --   1058.2757              1080.7670              1091.1276
 Red. masses --      1.4227                 1.3769                 1.9376
 Frc consts  --      0.9388                 0.9476                 1.3591
 IR Inten    --     10.8128                 1.4510                37.7050

                     25                     26                     27
                      A                      A                      A
 Frequencies --   1113.8472              1142.0576              1150.4224
 Red. masses --      1.9812                 1.3763                 1.4038
 Frc consts  --      1.4482                 1.0576                 1.0946
 IR Inten    --     61.5523                31.6102                23.0773

                     28                     29                     30
                      A                      A                      A
 Frequencies --   1179.4132              1199.6238              1223.8916
 Red. masses --      1.9739                 1.4107                 1.5884
 Frc consts  --      1.6177                 1.1962                 1.4018
 IR Inten    --      3.4853                 0.8500                 7.6910

                     31                     32                     33
                      A                      A                      A
 Frequencies --   1226.8113              1264.2428              1295.7398
 Red. masses --      1.7290                 1.4575                 1.3647
 Frc consts  --      1.5332                 1.3725                 1.3500
 IR Inten    --      0.8122                10.4398                26.2533

                     34                     35                     36
                      A                      A                      A
 Frequencies --   1335.6026              1398.6540              1421.5466
 Red. masses --      1.5362                 1.3570                 1.7529
 Frc consts  --      1.6145                 1.5641                 2.0870
 IR Inten    --     13.7252                10.8812                 2.5080

                     37                     38                     39
                      A                      A                      A
 Frequencies --   1456.9564              1465.9234              1473.1738
 Red. masses --      1.1303                 1.0947                 1.0943
 Frc consts  --      1.4137                 1.3860                 1.3992
 IR Inten    --     10.2547                 3.3452                 0.8593

                     40                     41                     42
                      A                      A                      A
 Frequencies --   1507.5204              1939.3466              3014.5116
 Red. masses --      1.3810                12.8081                 1.0591
 Frc consts  --      1.8491                28.3823                 5.6706
 IR Inten    --      1.1145               501.5775                18.0864

                     43                     44                     45
                      A                      A                      A
 Frequencies --   3052.1132              3081.5915              3087.1862
 Red. masses --      1.0996                 1.0874                 1.0619
 Frc consts  --      6.0351                 6.0842                 5.9628
 IR Inten    --      9.1910                34.5573                 4.5158

                     46                     47                     48
                      A                      A                      A
 Frequencies --   3128.2734              3133.6774              3145.0791
 Red. masses --      1.0514                 1.0585                 1.1066
 Frc consts  --      6.0622                 6.1240                 6.4492
 IR Inten    --     19.6844                11.3994                 4.9428

                     49                     50                     51
                      A                      A                      A
 Frequencies --   3156.9569              3207.5633              3222.7536
 Red. masses --      1.0888                 1.1171                 1.1148
 Frc consts  --      6.3937                 6.7715                 6.8221
 IR Inten    --      5.3511                 0.2900                20.4009

 - Thermochemistry -
 -------------------
 Temperature   298.150 Kelvin.  Pressure   1.00000 Atm.
 Atom     1 has atomic number  8 and mass  15.99491

 Molecular mass:   126.06808 amu.
 Principal axes and moments of inertia in atomic units:
                           1         2         3
     Eigenvalues --   341.783062385.970562482.40213
           X            0.99989  -0.01500  -0.00176
           Y            0.01498   0.99985  -0.00895
           Z            0.00189   0.00892   0.99996
 This molecule is an asymmetric top.
 Rotational symmetry number  1.
 Rotational temperatures (Kelvin)      0.25342     0.03630     0.03489
 Rotational constants (GHZ):           5.28037     0.75640     0.72701
 Zero-point vibrational energy     418080.8 (Joules/Mol)
                                   99.92372 (Kcal/Mol)
 Warning -- explicit consideration of  10 degrees of freedom as
           vibrations may cause significant error
 Vibrational temperatures:     93.40    94.49   173.47   212.39   424.34
          (Kelvin)            463.33   590.58   663.11   751.07   765.21
                             1040.78  1114.83  1155.01  1195.27  1216.92
                             1246.94  1329.14  1338.81  1376.11  1434.72
                             1510.53  1522.62  1554.98  1569.89  1602.58
                             1643.16  1655.20  1696.91  1725.99  1760.90
                             1765.11  1818.96  1864.28  1921.63  2012.35
                             2045.29  2096.23  2109.13  2119.57  2168.98
                             2790.28  4337.20  4391.30  4433.72  4441.77
                             4500.88  4508.66  4525.06  4542.15  4614.96
                             4636.82

 Zero-point correction=                           0.159239 (Hartree/Particle)
 Thermal correction to Energy=                    0.167761
 Thermal correction to Enthalpy=                  0.168706
 Thermal correction to Gibbs Free Energy=         0.125011
 Sum of electronic and zero-point Energies=           -423.045043
 Sum of electronic and thermal Energies=              -423.036520
 Sum of electronic and thermal Enthalpies=            -423.035576
 Sum of electronic and thermal Free Energies=         -423.079271

                     E (Thermal)             CV                S
                      KCal/Mol        Cal/Mol-Kelvin    Cal/Mol-Kelvin
 Total                  105.272             31.586             91.963
 Electronic               0.000              0.000              0.000
 Translational            0.889              2.981             40.409
 Rotational               0.889              2.981             29.094
 Vibrational            103.494             25.624             22.460
 Vibration     1          0.597              1.971              4.302
 Vibration     2          0.597              1.971              4.279
 Vibration     3          0.609              1.932              3.091
 Vibration     4          0.617              1.905              2.703
 Vibration     5          0.689              1.683              1.446
 Vibration     6          0.707              1.631              1.300
 Vibration     7          0.775              1.447              0.925
 Vibration     8          0.819              1.337              0.764
 Vibration     9          0.877              1.201              0.605
 Vibration    10          0.887              1.180              0.583

 Optimization completed.
    -- Stationary point found.
 Normal termination of Gaussian 09 at Mon Jan 27 13:34:20 2020.
