 Gaussian 09, Revision D.01,
 Gaussian 09:  ES64L-G09RevD.01 24-Apr-2013

 -----------------------------
 # b3lyp 6-31G(2df,p) opt Freq
 -----------------------------

 -----
 titel
 -----
 Symbolic Z-matrix:
 Charge =  0 Multiplicity = 1

 SCF Done:  E(RB3LYP) =  -423.169880669     A.U. after   15 cycles
 SCF Done:  E(RB3LYP) =  -423.169881442     A.U. after    9 cycles
 SCF Done:  E(RB3LYP) =  -423.169874876     A.U. after   11 cycles
 SCF Done:  E(RB3LYP) =  -423.169881744     A.U. after   10 cycles
 SCF Done:  E(RB3LYP) =  -423.169883680     A.U. after    9 cycles
 SCF Done:  E(RB3LYP) =  -423.169884254     A.U. after    9 cycles
 SCF Done:  E(RB3LYP) =  -423.169884264     A.U. after   10 cycles
 SCF Done:  E(RB3LYP) =  -423.169884465     A.U. after    9 cycles
 SCF Done:  E(RB3LYP) =  -423.169884248     A.U. after   10 cycles
 SCF Done:  E(RB3LYP) =  -423.169883949     A.U. after   10 cycles
 SCF Done:  E(RB3LYP) =  -423.169883552     A.U. after    7 cycles
 SCF Done:  E(RB3LYP) =  -423.169883214     A.U. after    9 cycles
 SCF Done:  E(RB3LYP) =  -423.169129649     A.U. after   12 cycles
 SCF Done:  E(RB3LYP) =  -423.169884511     A.U. after    8 cycles
 SCF Done:  E(RB3LYP) =  -423.169831553     A.U. after   12 cycles
 SCF Done:  E(RB3LYP) =  -423.169882626     A.U. after   13 cycles
 SCF Done:  E(RB3LYP) =  -423.169883441     A.U. after   10 cycles
 SCF Done:  E(RB3LYP) =  -423.169883754     A.U. after    8 cycles
 SCF Done:  E(RB3LYP) =  -423.169883519     A.U. after    9 cycles
 Optimization completed.
    -- Stationary point found.
 Normal termination of Gaussian 09 at Wed Jan 29 14:50:33 2020.

 ----------------------------------------------------------------------
 #N Geom=AllCheck Guess=TCheck SCRF=Check GenChk RB3LYP/6-31G(2df,p) Fr
 eq
 ----------------------------------------------------------------------

 Structure from the checkpoint file:  "/scratch/puck/g09_4d9f963e-e4aa-4f51-8e9d-77fa8f925b1f/Gau-88180.chk"
 -----
 titel
 -----
 Charge =  0 Multiplicity = 1

                         Standard orientation:
 ---------------------------------------------------------------------
 Center     Atomic      Atomic             Coordinates (Angstroms)
 Number     Number       Type             X           Y           Z
 ---------------------------------------------------------------------
      1          6           0        2.938974   -0.970914    0.737881
      2          6           0        2.237413   -0.167983   -0.378578
      3          6           0        2.649368    1.317209   -0.355966
      4          6           0        0.787997   -0.323781   -0.284751
      5          6           0       -0.408347   -0.472677   -0.187306
      6          6           0       -1.843977   -0.661401   -0.097510
      7          8           0       -2.369487   -1.749557   -0.180936
      8          6           0       -2.669953    0.619317    0.062460
      9          8           0       -1.948452    1.747452    0.493473
     10          1           0        2.662746   -0.583440    1.722835
     11          1           0        2.663627   -2.027350    0.696581
     12          1           0        4.024189   -0.887940    0.626881
     13          1           0        2.545876   -0.594580   -1.343297
     14          1           0        2.363065    1.782450    0.592071
     15          1           0        3.733977    1.406813   -0.468211
     16          1           0        2.173322    1.872943   -1.168283
     17          1           0       -3.177940    0.785715   -0.903504
     18          1           0       -3.449963    0.418824    0.802525
     19          1           0       -1.144234    1.804794   -0.035279
 ---------------------------------------------------------------------

 SCF Done:  E(RB3LYP) =  -423.169883519     A.U. after    1 cycles

 The electronic state is 1-A.
 Alpha  occ. eigenvalues --  -19.14364 -19.13663 -10.28795 -10.23841 -10.23309
 Alpha  occ. eigenvalues --  -10.21155 -10.19727 -10.19589 -10.19320  -1.04928
 Alpha  occ. eigenvalues --   -1.02597  -0.83607  -0.76752  -0.71953  -0.70459
 Alpha  occ. eigenvalues --   -0.65004  -0.60813  -0.52933  -0.50424  -0.47472
 Alpha  occ. eigenvalues --   -0.46601  -0.45174  -0.43238  -0.42980  -0.40388
 Alpha  occ. eigenvalues --   -0.39272  -0.38733  -0.36956  -0.36804  -0.35234
 Alpha  occ. eigenvalues --   -0.29611  -0.28474  -0.28266  -0.25057
 Alpha virt. eigenvalues --   -0.05641   0.02847   0.06506   0.09666   0.10583
 Alpha virt. eigenvalues --    0.12573   0.12870   0.13686   0.14825   0.15334
 Alpha virt. eigenvalues --    0.16816   0.17539   0.18527   0.19112   0.20691

 Mulliken charges:
               1
     1  C   -0.378994
     2  C   -0.137441
     3  C   -0.381934
     4  C    0.124110
     5  C   -0.023569
     6  C    0.199362
     7  O   -0.276891
     8  C   -0.158247
     9  O   -0.411106
    10  H    0.133521
    11  H    0.136708
    12  H    0.121825
    13  H    0.121906
    14  H    0.132796
    15  H    0.123022
    16  H    0.125035
    17  H    0.120625
    18  H    0.145454
    19  H    0.283819
 Sum of Mulliken charges =   0.00000

 Dipole moment (field-independent basis, Debye):
    X=              3.4435    Y=              1.4686    Z=             -0.8942  Tot=              3.8490
 Quadrupole moment (field-independent basis, Debye-Ang):
   XX=            -50.0766   YY=            -60.2406   ZZ=            -52.7431
   XY=             -3.0844   XZ=              0.3933   YZ=             -2.8919

  Exact polarizability: 119.659   6.041  73.520  -0.899  -1.037  58.092
 Approx polarizability: 171.258  18.940 109.105  -4.944   0.771  86.895

 ******    1 imaginary frequencies (negative Signs) ******

                      1                      2                      3
                      A                      A                      A
 Frequencies --     -6.7988                61.6239                63.2552
 Red. masses --      3.4238                 2.0587                 4.7025
 Frc consts  --      0.0001                 0.0046                 0.0111
 IR Inten    --      0.4368                 3.7026                 0.2952

                      4                      5                      6
                      A                      A                      A
 Frequencies --     96.8466               165.2433               221.7009
 Red. masses --      4.6131                 3.2568                 1.0905
 Frc consts  --      0.0255                 0.0524                 0.0316
 IR Inten    --      0.2731                 5.2543                 0.8272

                      7                      8                      9
                      A                      A                      A
 Frequencies --    235.2759               253.2063               268.7350
 Red. masses --      1.8579                 1.4705                 1.5046
 Frc consts  --      0.0606                 0.0555                 0.0640
 IR Inten    --      0.2864                85.0679                35.4539

                     10                     11                     12
                      A                      A                      A
 Frequencies --    288.7725               350.7862               445.3512
 Red. masses --      3.1305                 2.7989                 4.9038
 Frc consts  --      0.1538                 0.2029                 0.5730
 IR Inten    --     40.0088                 7.1376                 0.8625

                     13                     14                     15
                      A                      A                      A
 Frequencies --    520.0915               529.3823               589.9207
 Red. masses --      4.1491                 3.8821                 3.7762
 Frc consts  --      0.6613                 0.6410                 0.7743
 IR Inten    --      9.6555                 2.1081                 3.4098

                     16                     17                     18
                      A                      A                      A
 Frequencies --    626.8034               662.0840               836.1310
 Red. masses --      3.6380                 5.7184                 3.2092
 Frc consts  --      0.8421                 1.4769                 1.3219
 IR Inten    --     10.8647                27.7798                 4.8017

                     19                     20                     21
                      A                      A                      A
 Frequencies --    933.0397               961.8491               966.8253
 Red. masses --      1.1743                 2.5058                 1.5705
 Frc consts  --      0.6023                 1.3659                 0.8650
 IR Inten    --      2.0972                21.5855                 2.1114

                     22                     23                     24
                      A                      A                      A
 Frequencies --    990.1838              1093.1738              1118.1308
 Red. masses --      2.0470                 3.0491                 2.1628
 Frc consts  --      1.1825                 2.1468                 1.5931
 IR Inten    --      8.0402                72.9828                 3.1022

                     25                     26                     27
                      A                      A                      A
 Frequencies --   1118.5201              1177.0481              1207.0472
 Red. masses --      2.0864                 2.1802                 1.3939
 Frc consts  --      1.5379                 1.7796                 1.1965
 IR Inten    --     19.5063                44.6500                32.4647

                     28                     29                     30
                      A                      A                      A
 Frequencies --   1239.7494              1313.7671              1342.6765
 Red. masses --      2.2558                 1.3272                 1.2932
 Frc consts  --      2.0428                 1.3497                 1.3736
 IR Inten    --    112.3030                 1.1269                 8.3960

                     31                     32                     33
                      A                      A                      A
 Frequencies --   1345.2443              1397.7591              1412.5762
 Red. masses --      1.5068                 1.2044                 1.2576
 Frc consts  --      1.6066                 1.3864                 1.4785
 IR Inten    --     35.0752                 2.3992                41.3130

                     34                     35                     36
                      A                      A                      A
 Frequencies --   1419.7050              1472.6352              1485.9416
 Red. masses --      1.2124                 1.0728                 1.0417
 Frc consts  --      1.4398                 1.3707                 1.3551
 IR Inten    --      2.0333                 5.8978                 1.4409

                     37                     38                     39
                      A                      A                      A
 Frequencies --   1489.2248              1499.3553              1510.0881
 Red. masses --      1.0479                 1.0429                 1.0560
 Frc consts  --      1.3693                 1.3813                 1.4188
 IR Inten    --      1.8382                 6.7063                 3.7201

                     40                     41                     42
                      A                      A                      A
 Frequencies --   1767.6835              2315.5591              2961.4966
 Red. masses --     12.7796                11.9497                 1.0711
 Frc consts  --     23.5276                37.7501                 5.5348
 IR Inten    --    202.6036               173.7087                37.2102

                     43                     44                     45
                      A                      A                      A
 Frequencies --   3011.4558              3040.6904              3044.8438
 Red. masses --      1.0814                 1.0340                 1.0345
 Frc consts  --      5.7781                 5.6329                 5.6506
 IR Inten    --      7.8166                18.2065                22.0502

                     46                     47                     48
                      A                      A                      A
 Frequencies --   3094.7360              3114.6639              3119.2588
 Red. masses --      1.0889                 1.1028                 1.1025
 Frc consts  --      6.1445                 6.3031                 6.3201
 IR Inten    --      9.7949                 1.6608                29.8814

                     49                     50                     51
                      A                      A                      A
 Frequencies --   3120.2016              3128.9239              3793.3971
 Red. masses --      1.1024                 1.1026                 1.0656
 Frc consts  --      6.3233                 6.3599                 9.0344
 IR Inten    --     31.5746                17.2561                29.1992

 - Thermochemistry -
 -------------------
 Temperature   298.150 Kelvin.  Pressure   1.00000 Atm.
 Atom     1 has atomic number  6 and mass  12.00000

 Molecular mass:   126.06808 amu.
 Principal axes and moments of inertia in atomic units:
                           1         2         3
     Eigenvalues --   668.516892295.933332787.95879
           X            0.99995  -0.00877   0.00498
           Y            0.00892   0.99946  -0.03171
           Z           -0.00470   0.03175   0.99948
 This molecule is an asymmetric top.
 Rotational symmetry number  1.
 Warning -- assumption of classical behavior for rotation
           may cause significant error
 Rotational temperatures (Kelvin)      0.12956     0.03772     0.03107
 Rotational constants (GHZ):           2.69962     0.78606     0.64733
    1 imaginary frequencies ignored.
 Zero-point vibrational energy     408062.1 (Joules/Mol)
                                   97.52919 (Kcal/Mol)
 Warning -- explicit consideration of  14 degrees of freedom as
           vibrations may cause significant error
 Vibrational temperatures:     88.66    91.01   139.34   237.75   318.98
          (Kelvin)            338.51   364.31   386.65   415.48   504.70
                              640.76   748.29   761.66   848.76   901.83
                              952.59  1203.00  1342.43  1383.88  1391.04
                             1424.65  1572.83  1608.74  1609.30  1693.51
                             1736.67  1783.72  1890.22  1931.81  1935.50
                             2011.06  2032.38  2042.64  2118.79  2137.94
                             2142.66  2157.24  2172.68  2543.30  3331.57
                             4260.93  4332.81  4374.87  4380.85  4452.63
                             4481.30  4487.91  4489.27  4501.82  5457.85

 Zero-point correction=                           0.155423 (Hartree/Particle)
 Thermal correction to Energy=                    0.165563
 Thermal correction to Enthalpy=                  0.166507
 Thermal correction to Gibbs Free Energy=         0.119426
 Sum of electronic and zero-point Energies=           -423.014461
 Sum of electronic and thermal Energies=              -423.004321
 Sum of electronic and thermal Enthalpies=            -423.003377
 Sum of electronic and thermal Free Energies=         -423.050457

                     E (Thermal)             CV                S
                      KCal/Mol        Cal/Mol-Kelvin    Cal/Mol-Kelvin
 Total                  103.892             35.601             99.090
 Electronic               0.000              0.000              0.000
 Translational            0.889              2.981             40.409
 Rotational               0.889              2.981             29.838
 Vibrational            102.115             29.640             28.843
 Vibration     1          0.597              1.973              4.405
 Vibration     2          0.597              1.972              4.353
 Vibration     3          0.603              1.951              3.517
 Vibration     4          0.624              1.885              2.489
 Vibration     5          0.648              1.808              1.945
 Vibration     6          0.655              1.787              1.838
 Vibration     7          0.664              1.757              1.708
 Vibration     8          0.673              1.731              1.604
 Vibration     9          0.685              1.695              1.481
 Vibration    10          0.728              1.574              1.163
 Vibration    11          0.805              1.371              0.810
 Vibration    12          0.875              1.206              0.610
 Vibration    13          0.884              1.185              0.589
 Vibration    14          0.947              1.053              0.467

 Normal termination of Gaussian 09 at Wed Jan 29 15:23:35 2020.
