 Gaussian 09, Revision D.01,
 Gaussian 09:  ES64L-G09RevD.01 24-Apr-2013

 -----------------------------
 # b3lyp 6-31G(2df,p) opt Freq
 -----------------------------

 -----
 titel
 -----
 Symbolic Z-matrix:
 Charge =  0 Multiplicity = 1

 SCF Done:  E(RB3LYP) =  -423.160757094     A.U. after   14 cycles
 Optimization completed.
    -- Stationary point found.
 Normal termination of Gaussian 09 at Mon Jan 27 14:05:01 2020.

 ----------------------------------------------------------------------
 #N Geom=AllCheck Guess=TCheck SCRF=Check GenChk RB3LYP/6-31G(2df,p) Fr
 eq
 ----------------------------------------------------------------------

 Structure from the checkpoint file:  "/scratch/puck/g09_c0a5e36a-f203-474c-be60-e9f2bb751c32/Gau-170252.chk"
 -----
 titel
 -----
 Charge =  0 Multiplicity = 1

                         Standard orientation:
 ---------------------------------------------------------------------
 Center     Atomic      Atomic             Coordinates (Angstroms)
 Number     Number       Type             X           Y           Z
 ---------------------------------------------------------------------
      1          6           0        2.707964    0.548145    0.075700
      2          6           0        1.494822   -0.357169   -0.032884
      3          8           0        1.620746   -1.567033   -0.068663
      4          6           0        0.133466    0.278082   -0.067221
      5          6           0        0.008197    1.785367   -0.128520
      6          6           0       -0.888922   -0.661734   -0.728175
      7          6           0       -2.291102   -0.081995   -0.601782
      8          8           0       -2.128238    0.075061    0.839348
      9          6           0       -0.858353   -0.556453    0.759357
     10          1           0        3.608571   -0.066044    0.054421
     11          1           0        2.733152    1.274943   -0.742998
     12          1           0        2.680691    1.122233    1.008651
     13          1           0        0.254523    2.176620   -1.121596
     14          1           0       -1.009993    2.091405    0.119581
     15          1           0        0.669143    2.269182    0.596239
     16          1           0       -0.564619   -1.469694   -1.367435
     17          1           0       -2.520246    0.863911   -1.103822
     18          1           0       -3.075253   -0.816339   -0.812246
     19          1           0       -0.552459   -1.235896    1.544872
 ---------------------------------------------------------------------

 SCF Done:  E(RB3LYP) =  -423.160757094     A.U. after    1 cycles

 The electronic state is 1-A.
 Alpha  occ. eigenvalues --  -19.15098 -19.12221 -10.26889 -10.24961 -10.24453
 Alpha  occ. eigenvalues --  -10.20963 -10.20364 -10.18864 -10.18504  -1.06492
 Alpha  occ. eigenvalues --   -1.03402  -0.84958  -0.75541  -0.71781  -0.70513
 Alpha  occ. eigenvalues --   -0.61615  -0.55981  -0.54224  -0.50454  -0.47706
 Alpha  occ. eigenvalues --   -0.46723  -0.44590  -0.43626  -0.42326  -0.41570
 Alpha  occ. eigenvalues --   -0.39671  -0.38910  -0.37972  -0.36309  -0.33937
 Alpha  occ. eigenvalues --   -0.32353  -0.28344  -0.25164  -0.23717
 Alpha virt. eigenvalues --   -0.01390   0.07613   0.08798   0.11087   0.12033
 Alpha virt. eigenvalues --    0.12657   0.13578   0.14624   0.15435   0.16190
 Alpha virt. eigenvalues --    0.17167   0.18152   0.20051   0.21109   0.21855

 Mulliken charges:
               1
     1  C   -0.494876
     2  C    0.329278
     3  O   -0.324409
     4  C    0.160711
     5  C   -0.500099
     6  C   -0.146344
     7  C   -0.126421
     8  O   -0.288531
     9  C    0.098334
    10  H    0.141838
    11  H    0.139213
    12  H    0.143311
    13  H    0.119288
    14  H    0.144312
    15  H    0.120680
    16  H    0.122297
    17  H    0.112215
    18  H    0.123121
    19  H    0.126083
 Sum of Mulliken charges =   0.00000

 Dipole moment (field-independent basis, Debye):
    X=             -0.0375    Y=              1.8680    Z=             -1.0220  Tot=              2.1296
 Quadrupole moment (field-independent basis, Debye-Ang):
   XX=            -53.4183   YY=            -56.0493   ZZ=            -52.1080
   XY=              5.7123   XZ=              4.2462   YZ=             -0.7209

  Exact polarizability:  93.925   2.373  74.473   3.660  -0.637  61.505
 Approx polarizability: 124.383  -1.291 115.618   0.888   0.386 101.167

                      1                      2                      3
                      A                      A                      A
 Frequencies --     52.3182               169.6287               173.4301
 Red. masses --      3.6664                 1.0552                 2.2090
 Frc consts  --      0.0059                 0.0179                 0.0391
 IR Inten    --      3.1182                 0.1487                 2.4220

                      4                      5                      6
                      A                      A                      A
 Frequencies --    190.1485               212.4015               285.5840
 Red. masses --      1.4798                 3.5955                 3.2552
 Frc consts  --      0.0315                 0.0956                 0.1564
 IR Inten    --      0.7456                 6.1821                 3.8736

                      7                      8                      9
                      A                      A                      A
 Frequencies --    326.5245               353.0152               424.6171
 Red. masses --      2.3405                 3.3929                 2.4397
 Frc consts  --      0.1470                 0.2491                 0.2592
 IR Inten    --      0.5793                 2.2295                 0.4099

                     10                     11                     12
                      A                      A                      A
 Frequencies --    474.3641               586.4564               598.3625
 Red. masses --      4.1696                 3.8510                 2.3708
 Frc consts  --      0.5528                 0.7804                 0.5001
 IR Inten    --      4.6812                15.6777                 2.4542

                     13                     14                     15
                      A                      A                      A
 Frequencies --    663.6494               745.0992               816.7289
 Red. masses --      3.6336                 3.7405                 1.7957
 Frc consts  --      0.9429                 1.2235                 0.7057
 IR Inten    --      1.1281                17.9629                 6.4741

                     16                     17                     18
                      A                      A                      A
 Frequencies --    871.4145               915.5127               944.5521
 Red. masses --      2.8173                 2.1942                 2.6800
 Frc consts  --      1.2605                 1.0836                 1.4088
 IR Inten    --     31.2993                14.0459                34.5614

                     19                     20                     21
                      A                      A                      A
 Frequencies --    962.2896               978.8337               991.7462
 Red. masses --      2.1021                 1.7298                 1.6809
 Frc consts  --      1.1469                 0.9765                 0.9741
 IR Inten    --     99.5293                 3.9518                22.9472

                     22                     23                     24
                      A                      A                      A
 Frequencies --   1039.7241              1056.1562              1081.1019
 Red. masses --      1.6311                 2.0714                 1.8111
 Frc consts  --      1.0389                 1.3614                 1.2472
 IR Inten    --      1.0615                15.9958                12.7720

                     25                     26                     27
                      A                      A                      A
 Frequencies --   1098.0019              1105.1310              1122.9027
 Red. masses --      4.0619                 1.7991                 1.8627
 Frc consts  --      2.8853                 1.2946                 1.3838
 IR Inten    --     39.5181                17.4666                 6.6654

                     28                     29                     30
                      A                      A                      A
 Frequencies --   1159.0549              1231.1488              1250.2014
 Red. masses --      1.1707                 1.3480                 1.9005
 Frc consts  --      0.9267                 1.2038                 1.7502
 IR Inten    --      9.9612                 6.2967                17.8015

                     31                     32                     33
                      A                      A                      A
 Frequencies --   1304.8681              1312.2593              1379.6583
 Red. masses --      3.7322                 2.1080                 1.6073
 Frc consts  --      3.7441                 2.1388                 1.8025
 IR Inten    --     86.5573                 3.2402                 7.8511

                     34                     35                     36
                      A                      A                      A
 Frequencies --   1385.9521              1418.4362              1460.1031
 Red. masses --      1.9521                 1.2470                 1.0557
 Frc consts  --      2.2092                 1.4782                 1.3260
 IR Inten    --     59.4629                 5.0255                15.4551

                     37                     38                     39
                      A                      A                      A
 Frequencies --   1473.8227              1494.7200              1502.3557
 Red. masses --      1.0507                 1.0549                 1.0716
 Frc consts  --      1.3446                 1.3886                 1.4251
 IR Inten    --      6.2945                 9.0169                 4.8734

                     40                     41                     42
                      A                      A                      A
 Frequencies --   1519.5995              1765.6552              3036.9884
 Red. masses --      1.0741                10.7221                 1.0445
 Frc consts  --      1.4614                19.6943                 5.6761
 IR Inten    --      4.8194               129.0145                26.4954

                     43                     44                     45
                      A                      A                      A
 Frequencies --   3038.3533              3041.9831              3089.4883
 Red. masses --      1.0462                 1.0408                 1.1114
 Frc consts  --      5.6906                 5.6746                 6.2505
 IR Inten    --     32.9929                31.2919                27.9430

                     46                     47                     48
                      A                      A                      A
 Frequencies --   3099.0584              3103.0404              3129.4632
 Red. masses --      1.0982                 1.0988                 1.0978
 Frc consts  --      6.2141                 6.2336                 6.3343
 IR Inten    --      1.2512                23.4787                10.3636

                     49                     50                     51
                      A                      A                      A
 Frequencies --   3154.1934              3199.1747              3227.2321
 Red. masses --      1.1019                 1.0918                 1.0962
 Frc consts  --      6.4590                 6.5835                 6.7264
 IR Inten    --      9.7869                 8.6371                 1.4921

 - Thermochemistry -
 -------------------
 Temperature   298.150 Kelvin.  Pressure   1.00000 Atm.
 Atom     1 has atomic number  6 and mass  12.00000

 Molecular mass:   126.06808 amu.
 Principal axes and moments of inertia in atomic units:
                           1         2         3
     Eigenvalues --   546.950211413.124641684.61612
           X            0.99926   0.03363   0.01850
           Y           -0.03344   0.99939  -0.01020
           Z           -0.01884   0.00957   0.99978
 This molecule is an asymmetric top.
 Rotational symmetry number  1.
 Warning -- assumption of classical behavior for rotation
           may cause significant error
 Rotational temperatures (Kelvin)      0.15836     0.06129     0.05141
 Rotational constants (GHZ):           3.29964     1.27713     1.07131
 Zero-point vibrational energy     412810.4 (Joules/Mol)
                                   98.66405 (Kcal/Mol)
 Warning -- explicit consideration of  12 degrees of freedom as
           vibrations may cause significant error
 Vibrational temperatures:     75.27   244.06   249.53   273.58   305.60
          (Kelvin)            410.89   469.80   507.91   610.93   682.50
                              843.78   860.91   954.84  1072.03  1175.09
                             1253.77  1317.22  1359.00  1384.52  1408.32
                             1426.90  1495.93  1519.57  1555.46  1579.78
                             1590.04  1615.60  1667.62  1771.35  1798.76
                             1877.41  1888.05  1985.02  1994.07  2040.81
                             2100.76  2120.50  2150.57  2161.55  2186.36
                             2540.38  4369.54  4371.51  4376.73  4445.08
                             4458.85  4464.58  4502.59  4538.18  4602.89
                             4643.26

 Zero-point correction=                           0.157231 (Hartree/Particle)
 Thermal correction to Energy=                    0.166123
 Thermal correction to Enthalpy=                  0.167067
 Thermal correction to Gibbs Free Energy=         0.123571
 Sum of electronic and zero-point Energies=           -423.003526
 Sum of electronic and thermal Energies=              -422.994634
 Sum of electronic and thermal Enthalpies=            -422.993690
 Sum of electronic and thermal Free Energies=         -423.037186

                     E (Thermal)             CV                S
                      KCal/Mol        Cal/Mol-Kelvin    Cal/Mol-Kelvin
 Total                  104.244             33.412             91.547
 Electronic               0.000              0.000              0.000
 Translational            0.889              2.981             40.409
 Rotational               0.889              2.981             28.656
 Vibrational            102.466             27.451             22.482
 Vibration     1          0.596              1.977              4.728
 Vibration     2          0.625              1.880              2.440
 Vibration     3          0.627              1.875              2.398
 Vibration     4          0.633              1.853              2.226
 Vibration     5          0.643              1.822              2.023
 Vibration     6          0.683              1.700              1.500
 Vibration     7          0.710              1.622              1.277
 Vibration     8          0.729              1.569              1.153
 Vibration     9          0.787              1.417              0.876
 Vibration    10          0.831              1.307              0.725
 Vibration    11          0.944              1.061              0.474
 Vibration    12          0.956              1.035              0.452

 Optimization completed.
    -- Stationary point found.
 Normal termination of Gaussian 09 at Mon Jan 27 14:50:54 2020.
