 Gaussian 09, Revision D.01,
 Gaussian 09:  ES64L-G09RevD.01 24-Apr-2013

 -----------------------------
 # b3lyp 6-31G(2df,p) opt Freq
 -----------------------------

 -----
 titel
 -----
 Symbolic Z-matrix:
 Charge =  0 Multiplicity = 1

 SCF Done:  E(RB3LYP) =  -423.224653128     A.U. after   14 cycles
 Optimization completed.
    -- Stationary point found.
 Normal termination of Gaussian 09 at Mon Jan 27 18:28:32 2020.

 ----------------------------------------------------------------------
 #N Geom=AllCheck Guess=TCheck SCRF=Check GenChk RB3LYP/6-31G(2df,p) Fr
 eq
 ----------------------------------------------------------------------

 Structure from the checkpoint file:  "/scratch/puck/g09_688d10a5-f40c-4969-8d40-8029dc103ddf/Gau-88916.chk"
 -----
 titel
 -----
 Charge =  0 Multiplicity = 1

                         Standard orientation:
 ---------------------------------------------------------------------
 Center     Atomic      Atomic             Coordinates (Angstroms)
 Number     Number       Type             X           Y           Z
 ---------------------------------------------------------------------
      1          8           0        2.091396   -0.677322   -0.000395
      2          6           0        0.710166   -0.487102    0.000284
      3          6           0       -0.042727   -0.980316    1.258856
      4          6           0       -1.366612   -0.131824    1.257426
      5          6           0       -1.239699    0.769260   -0.000330
      6          6           0       -1.366589   -0.132651   -1.257475
      7          6           0       -0.043541   -0.982108   -1.257437
      8          6           0        0.268291    0.980456   -0.000452
      9          8           0        0.984506    1.946003   -0.000798
     10          1           0        2.483969    0.208893    0.000342
     11          1           0       -0.229655   -2.056594    1.221890
     12          1           0        0.563199   -0.776710    2.145468
     13          1           0       -2.262741   -0.755616    1.203221
     14          1           0       -1.443303    0.474469    2.163890
     15          1           0       -1.860431    1.663263   -0.000425
     16          1           0       -2.263380   -0.755497   -1.203640
     17          1           0       -1.442085    0.473296   -2.164314
     18          1           0       -0.231303   -2.058157   -1.217815
     19          1           0        0.562780   -0.781072   -2.144302
 ---------------------------------------------------------------------

 SCF Done:  E(RB3LYP) =  -423.224653128     A.U. after    1 cycles

 The electronic state is 1-A.
 Alpha  occ. eigenvalues --  -19.14948 -19.13630 -10.26832 -10.23704 -10.20148
 Alpha  occ. eigenvalues --  -10.19892 -10.19891 -10.19026 -10.19025  -1.06136
 Alpha  occ. eigenvalues --   -1.02013  -0.87473  -0.75401  -0.73117  -0.67119
 Alpha  occ. eigenvalues --   -0.62050  -0.56205  -0.55130  -0.50556  -0.47984
 Alpha  occ. eigenvalues --   -0.46881  -0.46426  -0.41250  -0.40840  -0.39077
 Alpha  occ. eigenvalues --   -0.38853  -0.37499  -0.36329  -0.36024  -0.35234
 Alpha  occ. eigenvalues --   -0.34163  -0.32005  -0.26352  -0.24194
 Alpha virt. eigenvalues --   -0.01819   0.07207   0.08956   0.10198   0.13385
 Alpha virt. eigenvalues --    0.14150   0.14223   0.15442   0.16645   0.16922
 Alpha virt. eigenvalues --    0.18126   0.19536   0.20722   0.21692   0.21967

 Mulliken charges:
               1
     1  O   -0.508419
     2  C    0.338588
     3  C   -0.259682
     4  C   -0.227753
     5  C   -0.128410
     6  C   -0.227754
     7  C   -0.259591
     8  C    0.363363
     9  O   -0.346121
    10  H    0.285756
    11  H    0.107605
    12  H    0.113438
    13  H    0.107584
    14  H    0.113508
    15  H    0.085699
    16  H    0.107581
    17  H    0.113500
    18  H    0.107595
    19  H    0.113512
 Sum of Mulliken charges =   0.00000

 Dipole moment (field-independent basis, Debye):
    X=             -2.4450    Y=             -0.8443    Z=              0.0024  Tot=              2.5867
 Quadrupole moment (field-independent basis, Debye-Ang):
   XX=            -54.3060   YY=            -58.0148   ZZ=            -50.9622
   XY=              0.7920   XZ=              0.0042   YZ=              0.0026

  Exact polarizability:  77.302   2.346  72.748   0.002   0.000  69.781
 Approx polarizability: 112.754   8.734 114.647  -0.002  -0.003  98.555

                      1                      2                      3
                      A                      A                      A
 Frequencies --    130.5930               140.5487               251.7904
 Red. masses --      2.1338                 3.8670                 5.3306
 Frc consts  --      0.0214                 0.0450                 0.1991
 IR Inten    --      0.2502                 0.1483                17.6066

                      4                      5                      6
                      A                      A                      A
 Frequencies --    290.2039               325.3459               372.3011
 Red. masses --      1.8456                 1.6017                 2.4761
 Frc consts  --      0.0916                 0.0999                 0.2022
 IR Inten    --      1.4455                60.6528                 0.5304

                      7                      8                      9
                      A                      A                      A
 Frequencies --    396.4793               509.3497               521.1292
 Red. masses --      1.9219                 4.1460                 4.6496
 Frc consts  --      0.1780                 0.6337                 0.7440
 IR Inten    --      5.4506                 0.4099                 0.9503

                     10                     11                     12
                      A                      A                      A
 Frequencies --    600.0671               669.4340               766.3541
 Red. masses --      4.5368                 5.7144                 1.9109
 Frc consts  --      0.9625                 1.5088                 0.6612
 IR Inten    --      0.5689                 1.8055                 1.9995

                     13                     14                     15
                      A                      A                      A
 Frequencies --    769.4344               805.2244               843.0630
 Red. masses --      4.4843                 1.6543                 2.1150
 Frc consts  --      1.5642                 0.6320                 0.8857
 IR Inten    --     29.1347                 0.6427                 0.0003

                     16                     17                     18
                      A                      A                      A
 Frequencies --    860.1480               906.9014               938.8543
 Red. masses --      1.8560                 2.8146                 2.4738
 Frc consts  --      0.8090                 1.3639                 1.2847
 IR Inten    --      0.7281                 0.4650                 4.9103

                     19                     20                     21
                      A                      A                      A
 Frequencies --    959.5841               962.8274              1014.1860
 Red. masses --      1.5630                 3.3337                 2.4143
 Frc consts  --      0.8480                 1.8208                 1.4631
 IR Inten    --      0.1712                 3.8246                 0.0499

                     22                     23                     24
                      A                      A                      A
 Frequencies --   1055.1382              1059.5182              1144.4170
 Red. masses --      2.2620                 1.6136                 2.1486
 Frc consts  --      1.4837                 1.0673                 1.6580
 IR Inten    --     28.5980                 2.4015                61.8797

                     25                     26                     27
                      A                      A                      A
 Frequencies --   1168.0860              1171.1250              1202.9523
 Red. masses --      1.3938                 2.0290                 1.3630
 Frc consts  --      1.1204                 1.6396                 1.1621
 IR Inten    --     12.9513                 3.9406                 0.0154

                     28                     29                     30
                      A                      A                      A
 Frequencies --   1203.9213              1239.7910              1240.3113
 Red. masses --      2.1688                 1.2615                 1.1677
 Frc consts  --      1.8521                 1.1425                 1.0584
 IR Inten    --      6.0788                51.3051                 0.3162

                     31                     32                     33
                      A                      A                      A
 Frequencies --   1281.7382              1282.1847              1321.7479
 Red. masses --      1.5030                 1.3923                 1.3497
 Frc consts  --      1.4548                 1.3486                 1.3893
 IR Inten    --      0.8140                 1.7701                 0.1060

                     34                     35                     36
                      A                      A                      A
 Frequencies --   1331.7671              1366.1142              1407.8998
 Red. masses --      1.6693                 2.1810                 1.4721
 Frc consts  --      1.7443                 2.3982                 1.7192
 IR Inten    --      9.6341                21.3285                41.3934

                     37                     38                     39
                      A                      A                      A
 Frequencies --   1483.7226              1497.4508              1498.5381
 Red. masses --      1.0756                 1.0862                 1.0909
 Frc consts  --      1.3951                 1.4350                 1.4434
 IR Inten    --      0.0448                 0.7584                 2.9220

                     40                     41                     42
                      A                      A                      A
 Frequencies --   1517.9235              1872.3587              3054.1461
 Red. masses --      1.1038                12.4009                 1.0588
 Frc consts  --      1.4985                25.6143                 5.8187
 IR Inten    --      1.3695               225.2199                49.5731

                     43                     44                     45
                      A                      A                      A
 Frequencies --   3054.2915              3063.5579              3065.6847
 Red. masses --      1.0587                 1.0596                 1.0600
 Frc consts  --      5.8189                 5.8595                 5.8694
 IR Inten    --      2.4223                43.0330                20.5235

                     46                     47                     48
                      A                      A                      A
 Frequencies --   3092.8374              3094.6951              3113.0225
 Red. masses --      1.1083                 1.1074                 1.1067
 Frc consts  --      6.2461                 6.2490                 6.3190
 IR Inten    --      1.4068                 1.5686                20.8055

                     49                     50                     51
                      A                      A                      A
 Frequencies --   3116.5125              3135.4104              3709.9561
 Red. masses --      1.1061                 1.0894                 1.0656
 Frc consts  --      6.3296                 6.3098                 8.6413
 IR Inten    --     41.7307                21.4167                37.6189

 - Thermochemistry -
 -------------------
 Temperature   298.150 Kelvin.  Pressure   1.00000 Atm.
 Atom     1 has atomic number  8 and mass  15.99491

 Molecular mass:   126.06808 amu.
 Principal axes and moments of inertia in atomic units:
                           1         2         3
     Eigenvalues --   812.527351003.255131097.49588
           X            0.99999  -0.00445   0.00005
           Y            0.00445   0.99999   0.00014
           Z           -0.00005  -0.00014   1.00000
 This molecule is an asymmetric top.
 Rotational symmetry number  1.
 Warning -- assumption of classical behavior for rotation
           may cause significant error
 Rotational temperatures (Kelvin)      0.10660     0.08633     0.07892
 Rotational constants (GHZ):           2.22115     1.79889     1.64442
 Zero-point vibrational energy     423960.4 (Joules/Mol)
                                  101.32896 (Kcal/Mol)
 Warning -- explicit consideration of  10 degrees of freedom as
           vibrations may cause significant error
 Vibrational temperatures:    187.89   202.22   362.27   417.54   468.10
          (Kelvin)            535.66   570.44   732.84   749.79   863.36
                              963.16  1102.61  1107.04  1158.54  1212.98
                             1237.56  1304.83  1350.80  1380.63  1385.29
                             1459.19  1518.11  1524.41  1646.56  1680.61
                             1684.99  1730.78  1732.17  1783.78  1784.53
                             1844.13  1844.78  1901.70  1916.11  1965.53
                             2025.65  2134.74  2154.49  2156.06  2183.95
                             2693.90  4394.23  4394.44  4407.77  4410.83
                             4449.90  4452.57  4478.94  4483.96  4511.15
                             5337.79

 Zero-point correction=                           0.161478 (Hartree/Particle)
 Thermal correction to Energy=                    0.169178
 Thermal correction to Enthalpy=                  0.170123
 Thermal correction to Gibbs Free Energy=         0.129643
 Sum of electronic and zero-point Energies=           -423.063175
 Sum of electronic and thermal Energies=              -423.055475
 Sum of electronic and thermal Enthalpies=            -423.054531
 Sum of electronic and thermal Free Energies=         -423.095010

                     E (Thermal)             CV                S
                      KCal/Mol        Cal/Mol-Kelvin    Cal/Mol-Kelvin
 Total                  106.161             30.796             85.197
 Electronic               0.000              0.000              0.000
 Translational            0.889              2.981             40.409
 Rotational               0.889              2.981             28.283
 Vibrational            104.384             24.834             16.506
 Vibration     1          0.612              1.923              2.937
 Vibration     2          0.615              1.913              2.796
 Vibration     3          0.664              1.760              1.718
 Vibration     4          0.686              1.692              1.473
 Vibration     5          0.709              1.625              1.283
 Vibration     6          0.744              1.529              1.070
 Vibration     7          0.763              1.478              0.976
 Vibration     8          0.864              1.229              0.635
 Vibration     9          0.876              1.203              0.607
 Vibration    10          0.958              1.032              0.450

 Normal termination of Gaussian 09 at Mon Jan 27 19:12:25 2020.
