 Gaussian 09, Revision D.01,
 Gaussian 09:  ES64L-G09RevD.01 24-Apr-2013

 -----------------------------
 # b3lyp 6-31G(2df,p) opt Freq
 -----------------------------

 -----
 titel
 -----
 Symbolic Z-matrix:
 Charge =  0 Multiplicity = 1

 SCF Done:  E(RB3LYP) =  -423.173803599     A.U. after   14 cycles
 SCF Done:  E(RB3LYP) =  -423.173803697     A.U. after    6 cycles
 Optimization completed.
    -- Stationary point found.
 Normal termination of Gaussian 09 at Tue Jan 28 12:42:51 2020.

 ----------------------------------------------------------------------
 #N Geom=AllCheck Guess=TCheck SCRF=Check GenChk RB3LYP/6-31G(2df,p) Fr
 eq
 ----------------------------------------------------------------------

 Structure from the checkpoint file:  "/scratch/puck/g09_6756e97c-0efb-434d-a703-1f22d95e4316/Gau-1455.chk"
 -----
 titel
 -----
 Charge =  0 Multiplicity = 1

                         Standard orientation:
 ---------------------------------------------------------------------
 Center     Atomic      Atomic             Coordinates (Angstroms)
 Number     Number       Type             X           Y           Z
 ---------------------------------------------------------------------
      1          6           0        3.055743   -0.351809    0.521456
      2          6           0        1.897780   -0.855957   -0.351040
      3          6           0        0.540033   -0.565166    0.264854
      4          6           0       -0.659658   -0.585591   -0.709448
      5          6           0       -1.926783   -0.388122    0.048040
      6          8           0       -3.010267   -0.901935    0.003918
      7          6           0       -1.406507    0.886152    0.770764
      8          6           0       -0.113200    0.730477   -0.026690
      9          8           0        0.479827    1.847387   -0.564399
     10          1           0        2.999911    0.730988    0.678256
     11          1           0        3.033999   -0.824006    1.508899
     12          1           0        4.022797   -0.578297    0.063173
     13          1           0        1.959154   -0.411895   -1.354474
     14          1           0        1.995846   -1.936511   -0.506507
     15          1           0        0.410526   -1.011255    1.251968
     16          1           0       -0.544870   -1.009501   -1.700478
     17          1           0       -1.989573    1.754232    0.449480
     18          1           0       -1.331847    0.877573    1.862509
     19          1           0        1.363128    1.625153   -0.876592
 ---------------------------------------------------------------------

 SCF Done:  E(RB3LYP) =  -423.173803697     A.U. after    1 cycles

 The electronic state is 1-A.
 Alpha  occ. eigenvalues --  -19.17102 -19.12221 -10.26525 -10.26454 -10.21498
 Alpha  occ. eigenvalues --  -10.20838 -10.19756 -10.19395 -10.19210  -1.05920
 Alpha  occ. eigenvalues --   -1.03274  -0.90065  -0.79541  -0.72298  -0.65503
 Alpha  occ. eigenvalues --   -0.62986  -0.59452  -0.53478  -0.52796  -0.47870
 Alpha  occ. eigenvalues --   -0.46048  -0.44904  -0.43254  -0.41581  -0.40397
 Alpha  occ. eigenvalues --   -0.39591  -0.38939  -0.37088  -0.36570  -0.36151
 Alpha  occ. eigenvalues --   -0.35376  -0.29524  -0.24740  -0.23500
 Alpha virt. eigenvalues --   -0.00400   0.04666   0.09285   0.10008   0.11921
 Alpha virt. eigenvalues --    0.12023   0.13103   0.13912   0.15647   0.16032
 Alpha virt. eigenvalues --    0.17660   0.18603   0.19239   0.19840   0.20795

 Mulliken charges:
               1
     1  C   -0.384905
     2  C   -0.241911
     3  C   -0.067824
     4  C   -0.295919
     5  C    0.430600
     6  O   -0.323816
     7  C   -0.416936
     8  C    0.420073
     9  O   -0.450609
    10  H    0.119215
    11  H    0.128027
    12  H    0.122565
    13  H    0.095576
    14  H    0.117619
    15  H    0.091206
    16  H    0.105154
    17  H    0.139961
    18  H    0.115994
    19  H    0.295930
 Sum of Mulliken charges =   0.00000

 Dipole moment (field-independent basis, Debye):
    X=              4.3496    Y=              0.2702    Z=             -0.0514  Tot=              4.3583
 Quadrupole moment (field-independent basis, Debye-Ang):
   XX=            -60.6908   YY=            -56.3300   ZZ=            -51.0267
   XY=             -4.6723   XZ=             -1.7880   YZ=              0.1752

  Exact polarizability:  96.906   0.736  70.959  -1.811   3.591  65.198
 Approx polarizability: 131.876   8.983 112.612  -1.911   4.474 100.675

                      1                      2                      3
                      A                      A                      A
 Frequencies --     79.2666               123.5009               144.6883
 Red. masses --      3.4039                 4.5821                 2.5157
 Frc consts  --      0.0126                 0.0412                 0.0310
 IR Inten    --      0.8346                 6.0154                 2.1213

                      4                      5                      6
                      A                      A                      A
 Frequencies --    184.7755               214.3227               266.7174
 Red. masses --      1.4193                 1.2298                 1.5377
 Frc consts  --      0.0286                 0.0333                 0.0644
 IR Inten    --     30.0757                51.8477                 2.9027

                      7                      8                      9
                      A                      A                      A
 Frequencies --    324.9563               350.5053               403.1453
 Red. masses --      4.1276                 3.0960                 2.6809
 Frc consts  --      0.2568                 0.2241                 0.2567
 IR Inten    --      4.6581                 4.5217                 1.4183

                     10                     11                     12
                      A                      A                      A
 Frequencies --    474.3441               527.8182               549.7249
 Red. masses --      3.6272                 3.2562                 2.6881
 Frc consts  --      0.4809                 0.5345                 0.4786
 IR Inten    --      1.4456                 2.8228                 2.8505

                     13                     14                     15
                      A                      A                      A
 Frequencies --    633.0293               689.9982               722.2547
 Red. masses --      3.1475                 3.6344                 3.0935
 Frc consts  --      0.7431                 1.0195                 0.9508
 IR Inten    --      1.3603                 0.4013                58.1503

                     16                     17                     18
                      A                      A                      A
 Frequencies --    812.1525               837.0049               881.0290
 Red. masses --      1.4218                 2.6928                 1.8271
 Frc consts  --      0.5525                 1.1115                 0.8356
 IR Inten    --     25.0516                 7.0566                10.8521

                     19                     20                     21
                      A                      A                      A
 Frequencies --    940.8061               976.5264              1013.2844
 Red. masses --      1.6085                 2.5962                 2.5163
 Frc consts  --      0.8388                 1.4587                 1.5222
 IR Inten    --      4.1244                 3.8350                12.5870

                     22                     23                     24
                      A                      A                      A
 Frequencies --   1042.2064              1064.7711              1078.8589
 Red. masses --      2.3572                 1.4887                 1.5770
 Frc consts  --      1.5086                 0.9944                 1.0815
 IR Inten    --      5.2152                14.6598                11.1234

                     25                     26                     27
                      A                      A                      A
 Frequencies --   1101.0963              1131.4384              1145.5147
 Red. masses --      1.5404                 1.9317                 1.8917
 Frc consts  --      1.1003                 1.4570                 1.4625
 IR Inten    --     58.7397                15.2013                 9.2149

                     28                     29                     30
                      A                      A                      A
 Frequencies --   1170.7905              1212.2339              1221.6545
 Red. masses --      1.7510                 1.5075                 2.2812
 Frc consts  --      1.4142                 1.3052                 2.0059
 IR Inten    --     52.0215                 8.2875                20.2414

                     31                     32                     33
                      A                      A                      A
 Frequencies --   1278.3304              1321.2072              1361.8795
 Red. masses --      1.2532                 1.3475                 1.4813
 Frc consts  --      1.2066                 1.3859                 1.6187
 IR Inten    --      3.3371                60.9818                20.1267

                     34                     35                     36
                      A                      A                      A
 Frequencies --   1401.4044              1415.7381              1440.9462
 Red. masses --      2.0401                 1.2678                 2.1845
 Frc consts  --      2.3607                 1.4971                 2.6724
 IR Inten    --     35.1889                 2.9074                48.8957

                     37                     38                     39
                      A                      A                      A
 Frequencies --   1469.8441              1493.5801              1500.0176
 Red. masses --      1.4342                 1.0569                 1.0667
 Frc consts  --      1.8256                 1.3891                 1.4142
 IR Inten    --     32.4299                 2.3023                 4.5709

                     40                     41                     42
                      A                      A                      A
 Frequencies --   1510.4237              1875.8302              3011.3333
 Red. masses --      1.0781                12.3626                 1.0672
 Frc consts  --      1.4491                25.6299                 5.7016
 IR Inten    --      3.3500               382.1530                20.5815

                     43                     44                     45
                      A                      A                      A
 Frequencies --   3035.1143              3053.0533              3055.2853
 Red. masses --      1.0364                 1.0587                 1.0923
 Frc consts  --      5.6249                 5.8144                 6.0074
 IR Inten    --     19.0299                19.5378                12.0466

                     46                     47                     48
                      A                      A                      A
 Frequencies --   3085.8026              3103.0243              3111.9373
 Red. masses --      1.0892                 1.1011                 1.1053
 Frc consts  --      6.1107                 6.2464                 6.3064
 IR Inten    --     18.3743                41.9476                 7.5601

                     49                     50                     51
                      A                      A                      A
 Frequencies --   3112.6701              3185.2126              3819.7988
 Red. masses --      1.1019                 1.0934                 1.0656
 Frc consts  --      6.2899                 6.5359                 9.1605
 IR Inten    --     28.8247                 4.3903                31.0034

 - Thermochemistry -
 -------------------
 Temperature   298.150 Kelvin.  Pressure   1.00000 Atm.
 Atom     1 has atomic number  6 and mass  12.00000

 Molecular mass:   126.06808 amu.
 Principal axes and moments of inertia in atomic units:
                           1         2         3
     Eigenvalues --   553.423961673.225201957.76331
           X            0.99953  -0.03061  -0.00016
           Y            0.03061   0.99916   0.02720
           Z           -0.00067  -0.02719   0.99963
 This molecule is an asymmetric top.
 Rotational symmetry number  1.
 Warning -- assumption of classical behavior for rotation
           may cause significant error
 Rotational temperatures (Kelvin)      0.15651     0.05176     0.04424
 Rotational constants (GHZ):           3.26105     1.07860     0.92184
 Zero-point vibrational energy     412477.5 (Joules/Mol)
                                   98.58448 (Kcal/Mol)
 Warning -- explicit consideration of  12 degrees of freedom as
           vibrations may cause significant error
 Vibrational temperatures:    114.05   177.69   208.17   265.85   308.36
          (Kelvin)            383.75   467.54   504.30   580.04   682.47
                              759.41   790.93   910.79   992.75  1039.16
                             1168.50  1204.26  1267.60  1353.61  1405.00
                             1457.89  1499.50  1531.97  1552.24  1584.23
                             1627.89  1648.14  1684.50  1744.13  1757.69
                             1839.23  1900.92  1959.44  2016.31  2036.93
                             2073.20  2114.78  2148.93  2158.19  2173.16
                             2698.90  4332.63  4366.85  4392.66  4395.87
                             4439.78  4464.55  4477.38  4478.43  4582.80
                             5495.83

 Zero-point correction=                           0.157104 (Hartree/Particle)
 Thermal correction to Energy=                    0.166301
 Thermal correction to Enthalpy=                  0.167246
 Thermal correction to Gibbs Free Energy=         0.123165
 Sum of electronic and zero-point Energies=           -423.016699
 Sum of electronic and thermal Energies=              -423.007502
 Sum of electronic and thermal Enthalpies=            -423.006558
 Sum of electronic and thermal Free Energies=         -423.050638

                     E (Thermal)             CV                S
                      KCal/Mol        Cal/Mol-Kelvin    Cal/Mol-Kelvin
 Total                  104.356             34.411             92.775
 Electronic               0.000              0.000              0.000
 Translational            0.889              2.981             40.409
 Rotational               0.889              2.981             28.985
 Vibrational            102.578             28.449             23.381
 Vibration     1          0.600              1.963              3.909
 Vibration     2          0.610              1.929              3.045
 Vibration     3          0.616              1.908              2.741
 Vibration     4          0.631              1.861              2.280
 Vibration     5          0.644              1.819              2.007
 Vibration     6          0.672              1.734              1.617
 Vibration     7          0.709              1.626              1.285
 Vibration     8          0.727              1.574              1.164
 Vibration     9          0.769              1.463              0.951
 Vibration    10          0.831              1.307              0.725
 Vibration    11          0.883              1.188              0.592
 Vibration    12          0.905              1.140              0.545

 Normal termination of Gaussian 09 at Tue Jan 28 13:30:03 2020.
