 Gaussian 09, Revision D.01,
 Gaussian 09:  ES64L-G09RevD.01 24-Apr-2013

 -----------------------------
 # b3lyp 6-31G(2df,p) opt Freq
 -----------------------------

 -----
 titel
 -----
 Symbolic Z-matrix:
 Charge =  0 Multiplicity = 1

 SCF Done:  E(RB3LYP) =  -423.135867085     A.U. after   14 cycles
 Optimization completed.
    -- Stationary point found.
 Normal termination of Gaussian 09 at Tue Jan 28 08:13:57 2020.

 ----------------------------------------------------------------------
 #N Geom=AllCheck Guess=TCheck SCRF=Check GenChk RB3LYP/6-31G(2df,p) Fr
 eq
 ----------------------------------------------------------------------

 Structure from the checkpoint file:  "/scratch/puck/g09_8e46b6fd-5379-40b5-bc6f-e1d8917f01de/Gau-92072.chk"
 -----
 titel
 -----
 Charge =  0 Multiplicity = 1

                         Standard orientation:
 ---------------------------------------------------------------------
 Center     Atomic      Atomic             Coordinates (Angstroms)
 Number     Number       Type             X           Y           Z
 ---------------------------------------------------------------------
      1          8           0        2.338598   -1.390655    0.051164
      2          6           0        2.259906    0.003994    0.275817
      3          6           0        0.952833    0.680549   -0.167097
      4          8           0        0.912233    1.889094   -0.248492
      5          6           0       -0.224744   -0.217000   -0.451458
      6          6           0       -1.636760    0.386587   -0.698421
      7          6           0       -2.207179   -1.022120   -0.352332
      8          6           0       -1.129876   -0.731614    0.731312
      9          6           0       -1.723248    0.703826    0.826410
     10          1           0        2.535676   -1.536106   -0.878974
     11          1           0        2.328327    0.145830    1.362106
     12          1           0        3.096231    0.561052   -0.167318
     13          1           0        0.077143   -1.021727   -1.129916
     14          1           0       -1.926668    1.036048   -1.523943
     15          1           0       -3.243134   -1.051679   -0.004712
     16          1           0       -1.994686   -1.832469   -1.055356
     17          1           0       -0.813537   -1.384510    1.545196
     18          1           0       -2.731163    0.771824    1.244031
     19          1           0       -1.080428    1.498895    1.202121
 ---------------------------------------------------------------------

 SCF Done:  E(RB3LYP) =  -423.135867085     A.U. after    1 cycles

 The electronic state is 1-A.
 Alpha  occ. eigenvalues --  -19.15278 -19.12978 -10.26537 -10.23897 -10.21041
 Alpha  occ. eigenvalues --  -10.20351 -10.19845 -10.19061 -10.18509  -1.04353
 Alpha  occ. eigenvalues --   -1.02943  -0.91447  -0.73403  -0.68453  -0.66651
 Alpha  occ. eigenvalues --   -0.62761  -0.57520  -0.53329  -0.50137  -0.49826
 Alpha  occ. eigenvalues --   -0.46994  -0.46155  -0.43800  -0.43441  -0.37753
 Alpha  occ. eigenvalues --   -0.36963  -0.34746  -0.33306  -0.32798  -0.32448
 Alpha  occ. eigenvalues --   -0.31762  -0.30739  -0.30250  -0.23358
 Alpha virt. eigenvalues --   -0.02084   0.05942   0.11036   0.11626   0.12669
 Alpha virt. eigenvalues --    0.14293   0.14769   0.14929   0.15584   0.16090
 Alpha virt. eigenvalues --    0.16648   0.17932   0.19412   0.20525   0.21690

 Mulliken charges:
               1
     1  O   -0.404205
     2  C   -0.163100
     3  C    0.277322
     4  O   -0.304329
     5  C   -0.036749
     6  C   -0.052631
     7  C   -0.222480
     8  C   -0.051482
     9  C   -0.220748
    10  H    0.291020
    11  H    0.143548
    12  H    0.122469
    13  H    0.069812
    14  H    0.079710
    15  H    0.093171
    16  H    0.089383
    17  H    0.082015
    18  H    0.089926
    19  H    0.117348
 Sum of Mulliken charges =   0.00000

 Dipole moment (field-independent basis, Debye):
    X=              0.0514    Y=             -1.7098    Z=             -0.7713  Tot=              1.8764
 Quadrupole moment (field-independent basis, Debye-Ang):
   XX=            -49.7730   YY=            -60.3124   ZZ=            -50.1996
   XY=             -0.7508   XZ=             -2.9525   YZ=              3.2931

  Exact polarizability:  86.951   2.459  75.581  -0.570   2.047  65.613
 Approx polarizability: 111.009   2.128 122.591  -1.528   0.376 103.033

                      1                      2                      3
                      A                      A                      A
 Frequencies --     19.7573                64.4993               133.8818
 Red. masses --      3.2434                 2.5553                 4.3999
 Frc consts  --      0.0007                 0.0063                 0.0465
 IR Inten    --      1.6492                 4.8679                 0.4273

                      4                      5                      6
                      A                      A                      A
 Frequencies --    200.0600               254.1160               307.6266
 Red. masses --      4.2074                 5.0562                 1.1081
 Frc consts  --      0.0992                 0.1924                 0.0618
 IR Inten    --      2.7260                 6.1720               141.2898

                      7                      8                      9
                      A                      A                      A
 Frequencies --    402.9367               524.3411               540.6375
 Red. masses --      4.2564                 3.3720                 2.5640
 Frc consts  --      0.4072                 0.5462                 0.4416
 IR Inten    --      0.0859                18.8407                 0.9599

                     10                     11                     12
                      A                      A                      A
 Frequencies --    543.7460               607.6076               772.7466
 Red. masses --      3.8970                 2.6233                 2.8011
 Frc consts  --      0.6789                 0.5706                 0.9855
 IR Inten    --      5.9620                13.3092                 0.6946

                     13                     14                     15
                      A                      A                      A
 Frequencies --    790.2007               838.3402               884.6663
 Red. masses --      2.8136                 2.6352                 2.5641
 Frc consts  --      1.0351                 1.0912                 1.1823
 IR Inten    --      2.4800                 7.2619                 0.4036

                     16                     17                     18
                      A                      A                      A
 Frequencies --    901.3835               908.8065               949.1041
 Red. masses --      2.0105                 2.5960                 3.2151
 Frc consts  --      0.9624                 1.2633                 1.7063
 IR Inten    --      0.3977                 0.4096                 3.5289

                     19                     20                     21
                      A                      A                      A
 Frequencies --    964.0325              1012.6320              1023.4514
 Red. masses --      1.6173                 1.0722                 1.0488
 Frc consts  --      0.8856                 0.6478                 0.6473
 IR Inten    --      9.2291                 3.0069                 1.1121

                     22                     23                     24
                      A                      A                      A
 Frequencies --   1049.8266              1080.8566              1094.3426
 Red. masses --      1.6979                 1.3720                 4.8645
 Frc consts  --      1.1025                 0.9444                 3.4324
 IR Inten    --      2.1992                12.9287                73.4912

                     25                     26                     27
                      A                      A                      A
 Frequencies --   1113.9374              1114.7136              1128.8901
 Red. masses --      4.0042                 1.7480                 1.3968
 Frc consts  --      2.9275                 1.2797                 1.0488
 IR Inten    --      3.7981                 2.4249                 9.3529

                     28                     29                     30
                      A                      A                      A
 Frequencies --   1180.8471              1189.0777              1194.6088
 Red. masses --      1.8850                 1.1951                 1.4455
 Frc consts  --      1.5487                 0.9956                 1.2154
 IR Inten    --     31.8390                24.1215                12.1029

                     31                     32                     33
                      A                      A                      A
 Frequencies --   1207.6168              1237.0495              1246.1255
 Red. masses --      1.4369                 1.6283                 1.7329
 Frc consts  --      1.2346                 1.4681                 1.5854
 IR Inten    --      2.1691                18.0351                 1.7432

                     34                     35                     36
                      A                      A                      A
 Frequencies --   1264.1412              1359.9506              1388.9978
 Red. masses --      1.7850                 1.3252                 1.3835
 Frc consts  --      1.6807                 1.4440                 1.5726
 IR Inten    --     13.1045                 5.8233                25.1288

                     37                     38                     39
                      A                      A                      A
 Frequencies --   1398.8774              1459.5974              1502.5531
 Red. masses --      1.3896                 1.0735                 1.0972
 Frc consts  --      1.6021                 1.3475                 1.4595
 IR Inten    --     23.9014                 5.9557                 1.1264

                     40                     41                     42
                      A                      A                      A
 Frequencies --   1540.7548              1793.5295              3016.5075
 Red. masses --      1.1386                11.9854                 1.0586
 Frc consts  --      1.5925                22.7154                 5.6753
 IR Inten    --      1.0101               117.2696                25.3835

                     43                     44                     45
                      A                      A                      A
 Frequencies --   3048.9230              3053.2935              3062.8040
 Red. masses --      1.0574                 1.0779                 1.1031
 Frc consts  --      5.7917                 5.9208                 6.0970
 IR Inten    --     41.1129                41.8176                19.1716

                     46                     47                     48
                      A                      A                      A
 Frequencies --   3067.4725              3111.0676              3115.7770
 Red. masses --      1.0599                 1.0909                 1.1107
 Frc consts  --      5.8757                 6.2209                 6.3532
 IR Inten    --     31.3732                67.0427                42.3503

                     49                     50                     51
                      A                      A                      A
 Frequencies --   3119.3881              3149.9900              3828.1256
 Red. masses --      1.0934                 1.1053                 1.0666
 Frc consts  --      6.2684                 6.4619                 9.2094
 IR Inten    --     28.1298                20.2322                28.7011

 - Thermochemistry -
 -------------------
 Temperature   298.150 Kelvin.  Pressure   1.00000 Atm.
 Atom     1 has atomic number  8 and mass  15.99491

 Molecular mass:   126.06808 amu.
 Principal axes and moments of inertia in atomic units:
                           1         2         3
     Eigenvalues --   622.942661441.805321783.39722
           X            0.99999   0.00289  -0.00169
           Y           -0.00282   0.99931   0.03711
           Z            0.00179  -0.03710   0.99931
 This molecule is an asymmetric top.
 Rotational symmetry number  1.
 Warning -- assumption of classical behavior for rotation
           may cause significant error
 Rotational temperatures (Kelvin)      0.13904     0.06007     0.04857
 Rotational constants (GHZ):           2.89712     1.25172     1.01197
 Zero-point vibrational energy     417282.7 (Joules/Mol)
                                   99.73295 (Kcal/Mol)
 Warning -- explicit consideration of  11 degrees of freedom as
           vibrations may cause significant error
 Vibrational temperatures:     28.43    92.80   192.63   287.84   365.62
          (Kelvin)            442.61   579.74   754.41   777.86   782.33
                              874.21  1111.81  1136.92  1206.18  1272.84
                             1296.89  1307.57  1365.55  1387.03  1456.95
                             1472.52  1510.46  1555.11  1574.51  1602.71
                             1603.82  1624.22  1698.97  1710.82  1718.77
                             1737.49  1779.84  1792.89  1818.81  1956.66
                             1998.46  2012.67  2100.03  2161.84  2216.80
                             2580.49  4340.08  4386.71  4393.00  4406.69
                             4413.40  4476.13  4482.90  4488.10  4532.13
                             5507.81

 Zero-point correction=                           0.158935 (Hartree/Particle)
 Thermal correction to Energy=                    0.167512
 Thermal correction to Enthalpy=                  0.168456
 Thermal correction to Gibbs Free Energy=         0.123962
 Sum of electronic and zero-point Energies=           -422.976933
 Sum of electronic and thermal Energies=              -422.968355
 Sum of electronic and thermal Enthalpies=            -422.967411
 Sum of electronic and thermal Free Energies=         -423.011905

                     E (Thermal)             CV                S
                      KCal/Mol        Cal/Mol-Kelvin    Cal/Mol-Kelvin
 Total                  105.115             31.766             93.645
 Electronic               0.000              0.000              0.000
 Translational            0.889              2.981             40.409
 Rotational               0.889              2.981             28.862
 Vibrational            103.338             25.805             24.375
 Vibration     1          0.593              1.986              6.658
 Vibration     2          0.597              1.971              4.315
 Vibration     3          0.613              1.920              2.890
 Vibration     4          0.638              1.840              2.133
 Vibration     5          0.665              1.756              1.702
 Vibration     6          0.697              1.659              1.375
 Vibration     7          0.768              1.464              0.952
 Vibration     8          0.879              1.196              0.600
 Vibration     9          0.896              1.160              0.564
 Vibration    10          0.899              1.153              0.557
 Vibration    11          0.966              1.016              0.437

 Normal termination of Gaussian 09 at Tue Jan 28 08:56:28 2020.
