 Gaussian 09, Revision D.01,
 Gaussian 09:  ES64L-G09RevD.01 24-Apr-2013

 -----------------------------
 # b3lyp 6-31G(2df,p) opt Freq
 -----------------------------

 -----
 titel
 -----
 Symbolic Z-matrix:
 Charge =  0 Multiplicity = 1

 SCF Done:  E(RB3LYP) =  -423.117434519     A.U. after   14 cycles
 Optimization completed.
    -- Stationary point found.
 Normal termination of Gaussian 09 at Mon Jan 27 14:00:24 2020.

 ----------------------------------------------------------------------
 #N Geom=AllCheck Guess=TCheck SCRF=Check GenChk RB3LYP/6-31G(2df,p) Fr
 eq
 ----------------------------------------------------------------------

 Structure from the checkpoint file:  "/scratch/puck/g09_4d59611c-4271-45ec-9cfb-31cdf50ffef9/Gau-160102.chk"
 -----
 titel
 -----
 Charge =  0 Multiplicity = 1

                         Standard orientation:
 ---------------------------------------------------------------------
 Center     Atomic      Atomic             Coordinates (Angstroms)
 Number     Number       Type             X           Y           Z
 ---------------------------------------------------------------------
      1          6           0       -4.541634    0.423355   -0.375173
      2          6           0       -3.179768    0.007559   -0.075656
      3          6           0       -2.050994   -0.328508    0.169780
      4          6           0       -0.695430   -0.761027    0.473167
      5          8           0        0.222944    0.294744    0.219938
      6          6           0        1.544942   -0.049018    0.526942
      7          6           0        2.546372    1.073281    0.219589
      8          8           0        3.337873    0.196324   -0.609699
      9          6           0        2.354930   -0.855439   -0.520913
     10          1           0       -4.563239    1.458628   -0.732564
     11          1           0       -4.989613   -0.205117   -1.152534
     12          1           0       -5.181452    0.365514    0.512098
     13          1           0       -0.623839   -1.073928    1.529135
     14          1           0       -0.439614   -1.644766   -0.134967
     15          1           0        1.617539   -0.457022    1.545337
     16          1           0        2.091839    1.893308   -0.350016
     17          1           0        3.120382    1.478396    1.059804
     18          1           0        1.812571   -0.999982   -1.465144
     19          1           0        2.798373   -1.804789   -0.199476
 ---------------------------------------------------------------------

 SCF Done:  E(RB3LYP) =  -423.117434519     A.U. after    1 cycles

 The electronic state is 1-A.
 Alpha  occ. eigenvalues --  -19.15186 -19.13184 -10.25629 -10.24100 -10.22809
 Alpha  occ. eigenvalues --  -10.22804 -10.20679 -10.18111 -10.17222  -1.05480
 Alpha  occ. eigenvalues --   -1.02785  -0.78873  -0.75865  -0.71109  -0.69301
 Alpha  occ. eigenvalues --   -0.66219  -0.56724  -0.52295  -0.51249  -0.49479
 Alpha  occ. eigenvalues --   -0.46658  -0.45330  -0.43436  -0.43010  -0.42851
 Alpha  occ. eigenvalues --   -0.42256  -0.40306  -0.36546  -0.33271  -0.31178
 Alpha  occ. eigenvalues --   -0.26697  -0.26169  -0.24977  -0.24708
 Alpha virt. eigenvalues --    0.03395   0.05527   0.07962   0.09577   0.10854
 Alpha virt. eigenvalues --    0.11878   0.12782   0.14249   0.16454   0.16828
 Alpha virt. eigenvalues --    0.17224   0.18345   0.18702   0.20318   0.21381

 Mulliken charges:
               1
     1  C   -0.498939
     2  C    0.138646
     3  C    0.001104
     4  C   -0.221603
     5  O   -0.250291
     6  C    0.109494
     7  C   -0.102358
     8  O   -0.272741
     9  C   -0.095355
    10  H    0.155112
    11  H    0.149932
    12  H    0.149770
    13  H    0.116564
    14  H    0.119030
    15  H    0.075464
    16  H    0.114451
    17  H    0.105534
    18  H    0.104337
    19  H    0.101851
 Sum of Mulliken charges =   0.00000

 Dipole moment (field-independent basis, Debye):
    X=             -1.9686    Y=             -0.9478    Z=              1.0346  Tot=              2.4175
 Quadrupole moment (field-independent basis, Debye-Ang):
   XX=            -51.8803   YY=            -50.7615   ZZ=            -52.6388
   XY=             -2.0313   XZ=              5.0557   YZ=              0.0735

  Exact polarizability: 114.665  -6.190  68.932   7.005  -0.012  62.213
 Approx polarizability: 146.546 -12.938  99.890  11.244  -1.869  91.439

                      1                      2                      3
                      A                      A                      A
 Frequencies --     20.9770                39.7013                68.3133
 Red. masses --      1.0327                 4.5384                 3.7281
 Frc consts  --      0.0003                 0.0042                 0.0103
 IR Inten    --      0.0921                 0.5633                 1.8923

                      4                      5                      6
                      A                      A                      A
 Frequencies --     85.4765               115.1081               204.4576
 Red. masses --      3.4081                 3.2268                 2.5370
 Frc consts  --      0.0147                 0.0252                 0.0625
 IR Inten    --      1.7083                 6.2799                10.0608

                      7                      8                      9
                      A                      A                      A
 Frequencies --    220.5649               302.8710               376.0427
 Red. masses --      3.5216                 4.3163                 4.1064
 Frc consts  --      0.1009                 0.2333                 0.3421
 IR Inten    --      1.9215                 1.3538                 0.0542

                     10                     11                     12
                      A                      A                      A
 Frequencies --    390.8506               427.7514               523.7817
 Red. masses --      3.8627                 3.0339                 3.8072
 Frc consts  --      0.3477                 0.3271                 0.6154
 IR Inten    --      0.3245                 4.4452                 0.2952

                     13                     14                     15
                      A                      A                      A
 Frequencies --    723.8177               813.8693               872.1645
 Red. masses --      3.7131                 3.9436                 1.5812
 Frc consts  --      1.1462                 1.5391                 0.7086
 IR Inten    --      1.9772                 4.5488                 5.3206

                     16                     17                     18
                      A                      A                      A
 Frequencies --    891.2723               980.4552              1023.0205
 Red. masses --      2.0483                 4.2527                 2.1318
 Frc consts  --      0.9586                 2.4086                 1.3145
 IR Inten    --     11.3823                22.2338                30.8858

                     19                     20                     21
                      A                      A                      A
 Frequencies --   1028.1537              1042.3491              1049.7024
 Red. masses --      3.0467                 4.9843                 1.9402
 Frc consts  --      1.8976                 3.1906                 1.2596
 IR Inten    --     44.9572                19.7602                27.3064

                     22                     23                     24
                      A                      A                      A
 Frequencies --   1053.2901              1058.3851              1132.1189
 Red. masses --      2.1073                 1.4638                 2.7848
 Frc consts  --      1.3775                 0.9661                 2.1030
 IR Inten    --     16.9314                 1.3833                72.3105

                     25                     26                     27
                      A                      A                      A
 Frequencies --   1155.5715              1160.8937              1177.9135
 Red. masses --      1.1940                 1.4658                 2.8759
 Frc consts  --      0.9394                 1.1639                 2.3510
 IR Inten    --     25.0011                44.8416                 4.2713

                     28                     29                     30
                      A                      A                      A
 Frequencies --   1208.7853              1254.1144              1276.8789
 Red. masses --      2.1696                 1.0742                 1.4175
 Frc consts  --      1.8678                 0.9954                 1.3617
 IR Inten    --    116.6337                 2.8468                 1.0236

                     31                     32                     33
                      A                      A                      A
 Frequencies --   1302.8282              1344.1278              1387.4799
 Red. masses --      1.3241                 1.2624                 1.4127
 Frc consts  --      1.3241                 1.3438                 1.6024
 IR Inten    --      1.3302                55.5332                80.8344

                     34                     35                     36
                      A                      A                      A
 Frequencies --   1414.4324              1442.1370              1476.2000
 Red. masses --      1.2495                 1.5143                 1.0392
 Frc consts  --      1.4729                 1.8556                 1.3343
 IR Inten    --      2.3384                16.8450                 5.8308

                     37                     38                     39
                      A                      A                      A
 Frequencies --   1478.6553              1498.0299              1501.8481
 Red. masses --      1.0401                 1.0796                 1.0798
 Frc consts  --      1.3399                 1.4274                 1.4350
 IR Inten    --      5.5892                 0.6703                 0.4782

                     40                     41                     42
                      A                      A                      A
 Frequencies --   1526.4259              2381.5435              2953.4248
 Red. masses --      1.1178                11.8502                 1.0563
 Frc consts  --      1.5345                39.5998                 5.4285
 IR Inten    --      2.6840                19.0766                34.5555

                     43                     44                     45
                      A                      A                      A
 Frequencies --   2973.9816              2997.8428              3006.7513
 Red. masses --      1.1009                 1.0849                 1.0558
 Frc consts  --      5.7367                 5.7447                 5.6239
 IR Inten    --     33.6477                32.7111                83.1594

                     46                     47                     48
                      A                      A                      A
 Frequencies --   3026.0439              3029.3713              3064.4759
 Red. masses --      1.0582                 1.0348                 1.1080
 Frc consts  --      5.7090                 5.5951                 6.1305
 IR Inten    --     22.8241                28.2497                43.4602

                     49                     50                     51
                      A                      A                      A
 Frequencies --   3077.5971              3090.6314              3092.4524
 Red. masses --      1.1105                 1.1005                 1.0999
 Frc consts  --      6.1972                 6.1934                 6.1975
 IR Inten    --     54.4298                 9.9069                 8.3755

 - Thermochemistry -
 -------------------
 Temperature   298.150 Kelvin.  Pressure   1.00000 Atm.
 Atom     1 has atomic number  6 and mass  12.00000

 Molecular mass:   126.06808 amu.
 Principal axes and moments of inertia in atomic units:
                           1         2         3
     Eigenvalues --   287.537693242.016523322.46850
           X            0.99994  -0.00611   0.00863
           Y            0.00615   0.99997  -0.00402
           Z           -0.00861   0.00407   0.99995
 This molecule is an asymmetric top.
 Rotational symmetry number  1.
 Rotational temperatures (Kelvin)      0.30123     0.02672     0.02607
 Rotational constants (GHZ):           6.27654     0.55667     0.54319
 Zero-point vibrational energy     411186.0 (Joules/Mol)
                                   98.27581 (Kcal/Mol)
 Warning -- explicit consideration of  12 degrees of freedom as
           vibrations may cause significant error
 Vibrational temperatures:     30.18    57.12    98.29   122.98   165.61
          (Kelvin)            294.17   317.34   435.76   541.04   562.35
                              615.44   753.60  1041.41  1170.97  1254.85
                             1282.34  1410.65  1471.90  1479.28  1499.71
                             1510.29  1515.45  1522.78  1628.86  1662.61
                             1670.27  1694.75  1739.17  1804.39  1837.14
                             1874.48  1933.90  1996.27  2035.05  2074.91
                             2123.92  2127.45  2155.33  2160.82  2196.18
                             3426.51  4249.31  4278.89  4313.22  4326.04
                             4353.80  4358.58  4409.09  4427.97  4446.72
                             4449.34

 Zero-point correction=                           0.156612 (Hartree/Particle)
 Thermal correction to Energy=                    0.166816
 Thermal correction to Enthalpy=                  0.167760
 Thermal correction to Gibbs Free Energy=         0.118507
 Sum of electronic and zero-point Energies=           -422.960822
 Sum of electronic and thermal Energies=              -422.950618
 Sum of electronic and thermal Enthalpies=            -422.949674
 Sum of electronic and thermal Free Energies=         -422.998927

                     E (Thermal)             CV                S
                      KCal/Mol        Cal/Mol-Kelvin    Cal/Mol-Kelvin
 Total                  104.679             34.019            103.662
 Electronic               0.000              0.000              0.000
 Translational            0.889              2.981             40.409
 Rotational               0.889              2.981             29.517
 Vibrational            102.901             28.058             33.737
 Vibration     1          0.593              1.986              6.540
 Vibration     2          0.594              1.981              5.274
 Vibration     3          0.598              1.969              4.201
 Vibration     4          0.601              1.959              3.761
 Vibration     5          0.608              1.937              3.181
 Vibration     6          0.640              1.834              2.093
 Vibration     7          0.647              1.810              1.954
 Vibration     8          0.694              1.668              1.401
 Vibration     9          0.747              1.521              1.055
 Vibration    10          0.759              1.490              0.997
 Vibration    11          0.789              1.410              0.866
 Vibration    12          0.879              1.197              0.601

 Optimization completed.
    -- Stationary point found.
 Normal termination of Gaussian 09 at Mon Jan 27 14:34:02 2020.
