 Gaussian 09, Revision D.01,
 Gaussian 09:  ES64L-G09RevD.01 24-Apr-2013

 -----------------------------
 # b3lyp 6-31G(2df,p) opt Freq
 -----------------------------

 -----
 titel
 -----
 Symbolic Z-matrix:
 Charge =  0 Multiplicity = 1

 SCF Done:  E(RB3LYP) =  -423.208666773     A.U. after   14 cycles
 Optimization completed.
    -- Stationary point found.
 Normal termination of Gaussian 09 at Tue Jan 28 03:57:41 2020.

 ----------------------------------------------------------------------
 #N Geom=AllCheck Guess=TCheck SCRF=Check GenChk RB3LYP/6-31G(2df,p) Fr
 eq
 ----------------------------------------------------------------------

 Structure from the checkpoint file:  "/scratch/puck/g09_400fb071-7c6a-4622-908d-3aff64807d01/Gau-92959.chk"
 -----
 titel
 -----
 Charge =  0 Multiplicity = 1

                         Standard orientation:
 ---------------------------------------------------------------------
 Center     Atomic      Atomic             Coordinates (Angstroms)
 Number     Number       Type             X           Y           Z
 ---------------------------------------------------------------------
      1          6           0        0.314885    2.117386    0.629750
      2          6           0        0.404022    0.868816   -0.263479
      3          6           0        1.644607   -0.012885    0.035243
      4          8           0        2.136230   -0.459999   -1.221807
      5          6           0        1.111365   -1.193583    0.893281
      6          6           0       -0.362504   -1.199459    0.606079
      7          6           0       -0.751926   -0.088686   -0.035127
      8          6           0       -2.137934    0.184076   -0.455372
      9          8           0       -3.082416   -0.543299   -0.239686
     10          1           0        0.313766    1.845942    1.691053
     11          1           0        1.160508    2.788605    0.448860
     12          1           0       -0.604645    2.678041    0.433511
     13          1           0        0.464684    1.185984   -1.310901
     14          1           0        2.419601    0.556858    0.566987
     15          1           0        2.888119   -1.039336   -1.061616
     16          1           0        1.603842   -2.135807    0.622516
     17          1           0        1.300432   -1.043827    1.965671
     18          1           0       -1.035756   -2.000017    0.890545
     19          1           0       -2.276151    1.135957   -1.016942
 ---------------------------------------------------------------------

 SCF Done:  E(RB3LYP) =  -423.208666773     A.U. after    1 cycles

 The electronic state is 1-A.
 Alpha  occ. eigenvalues --  -19.14178 -19.12887 -10.26334 -10.24093 -10.20236
 Alpha  occ. eigenvalues --  -10.19770 -10.19668 -10.18968 -10.18516  -1.03396
 Alpha  occ. eigenvalues --   -1.02508  -0.85537  -0.75766  -0.72890  -0.66642
 Alpha  occ. eigenvalues --   -0.62287  -0.57651  -0.53469  -0.50737  -0.49914
 Alpha  occ. eigenvalues --   -0.44865  -0.44401  -0.42562  -0.41735  -0.40035
 Alpha  occ. eigenvalues --   -0.39083  -0.38151  -0.36869  -0.36537  -0.34417
 Alpha  occ. eigenvalues --   -0.32199  -0.27481  -0.25695  -0.24661
 Alpha virt. eigenvalues --   -0.05714   0.06720   0.07162   0.09347   0.11793
 Alpha virt. eigenvalues --    0.11995   0.14321   0.14740   0.15709   0.16123
 Alpha virt. eigenvalues --    0.17017   0.18684   0.19152   0.20859   0.22841

 Mulliken charges:
               1
     1  C   -0.411057
     2  C   -0.095667
     3  C    0.107124
     4  O   -0.440404
     5  C   -0.289705
     6  C   -0.132845
     7  C    0.243000
     8  C    0.060321
     9  O   -0.264055
    10  H    0.119177
    11  H    0.121338
    12  H    0.121852
    13  H    0.098160
    14  H    0.063981
    15  H    0.281701
    16  H    0.107815
    17  H    0.118077
    18  H    0.125831
    19  H    0.065356
 Sum of Mulliken charges =   0.00000

 Dipole moment (field-independent basis, Debye):
    X=              3.5679    Y=              0.3652    Z=              1.3191  Tot=              3.8214
 Quadrupole moment (field-independent basis, Debye-Ang):
   XX=            -59.2681   YY=            -49.9887   ZZ=            -54.3342
   XY=             -6.0961   XZ=              1.7626   YZ=             -1.3217

  Exact polarizability:  92.253  -4.953  82.519   5.884  -8.357  63.515
 Approx polarizability: 133.346  -8.366 124.124  11.104 -18.207 101.083

                      1                      2                      3
                      A                      A                      A
 Frequencies --     61.9112               118.7188               189.3219
 Red. masses --      4.4918                 3.2325                 3.8967
 Frc consts  --      0.0101                 0.0268                 0.0823
 IR Inten    --      1.0312                 4.2403                 3.9342

                      4                      5                      6
                      A                      A                      A
 Frequencies --    201.3366               222.1919               243.3861
 Red. masses --      2.3231                 2.2414                 1.2491
 Frc consts  --      0.0555                 0.0652                 0.0436
 IR Inten    --      4.8349                 3.8970                 0.4507

                      7                      8                      9
                      A                      A                      A
 Frequencies --    276.5030               307.5400               388.4281
 Red. masses --      2.0748                 1.2481                 3.8989
 Frc consts  --      0.0935                 0.0696                 0.3466
 IR Inten    --     10.7817               100.1201                 1.6368

                     10                     11                     12
                      A                      A                      A
 Frequencies --    451.9318               477.9136               582.6284
 Red. masses --      2.6684                 4.1552                 3.8002
 Frc consts  --      0.3211                 0.5592                 0.7600
 IR Inten    --      1.6282                 4.7340                 6.6192

                     13                     14                     15
                      A                      A                      A
 Frequencies --    704.5057               755.8626               807.8134
 Red. masses --      3.5209                 4.6635                 1.6283
 Frc consts  --      1.0296                 1.5698                 0.6260
 IR Inten    --     25.2330                11.8607                 2.3124

                     16                     17                     18
                      A                      A                      A
 Frequencies --    851.1316               885.0486               912.3714
 Red. masses --      2.6764                 1.7619                 1.9086
 Frc consts  --      1.1423                 0.8132                 0.9361
 IR Inten    --     14.1330                11.7574                31.3984

                     19                     20                     21
                      A                      A                      A
 Frequencies --    968.2308              1003.9962              1037.5847
 Red. masses --      2.0960                 1.7592                 1.6684
 Frc consts  --      1.1577                 1.0448                 1.0583
 IR Inten    --     23.5277                 8.7815                 1.4554

                     22                     23                     24
                      A                      A                      A
 Frequencies --   1046.7210              1052.5404              1102.9502
 Red. masses --      2.6959                 1.9115                 1.9718
 Frc consts  --      1.7403                 1.2477                 1.4133
 IR Inten    --     25.1692                21.5392                 2.0522

                     25                     26                     27
                      A                      A                      A
 Frequencies --   1110.8857              1157.3587              1199.9482
 Red. masses --      1.9178                 1.8326                 1.5290
 Frc consts  --      1.3944                 1.4463                 1.2971
 IR Inten    --      3.7812                24.8748                28.9250

                     28                     29                     30
                      A                      A                      A
 Frequencies --   1231.1377              1269.1317              1294.2376
 Red. masses --      1.2424                 1.5189                 1.8362
 Frc consts  --      1.1095                 1.4414                 1.8122
 IR Inten    --     24.7725                19.7736                15.8623

                     31                     32                     33
                      A                      A                      A
 Frequencies --   1317.9304              1334.8229              1367.6181
 Red. masses --      1.4540                 1.4728                 1.5733
 Frc consts  --      1.4880                 1.5462                 1.7338
 IR Inten    --      2.6249                11.4329                21.3608

                     34                     35                     36
                      A                      A                      A
 Frequencies --   1408.0619              1422.8485              1444.8786
 Red. masses --      1.2479                 1.3779                 1.3232
 Frc consts  --      1.4577                 1.6435                 1.6276
 IR Inten    --      2.7771                 1.5058                 6.6880

                     37                     38                     39
                      A                      A                      A
 Frequencies --   1457.4666              1497.4283              1498.8265
 Red. masses --      1.1095                 1.0547                 1.0517
 Frc consts  --      1.3886                 1.3934                 1.3920
 IR Inten    --      6.0479                 5.2292                 4.3218

                     40                     41                     42
                      A                      A                      A
 Frequencies --   1667.8828              1789.8166              2870.1172
 Red. masses --      7.7657                 9.5954                 1.0811
 Frc consts  --     12.7281                18.1105                 5.2472
 IR Inten    --    133.2902               138.0996               128.8123

                     43                     44                     45
                      A                      A                      A
 Frequencies --   2995.5985              3014.9186              3031.4960
 Red. masses --      1.0812                 1.0672                 1.0356
 Frc consts  --      5.7165                 5.7153                 5.6074
 IR Inten    --     38.7433                38.9921                26.4095

                     46                     47                     48
                      A                      A                      A
 Frequencies --   3044.5395              3050.1587              3101.8600
 Red. masses --      1.0836                 1.0972                 1.1011
 Frc consts  --      5.9176                 6.0141                 6.2421
 IR Inten    --      7.4975                23.3029                25.2120

                     49                     50                     51
                      A                      A                      A
 Frequencies --   3104.8008              3208.7585              3814.6655
 Red. masses --      1.1020                 1.0934                 1.0661
 Frc consts  --      6.2591                 6.6331                 9.1405
 IR Inten    --     25.9927                 2.6263                19.2121

 - Thermochemistry -
 -------------------
 Temperature   298.150 Kelvin.  Pressure   1.00000 Atm.
 Atom     1 has atomic number  6 and mass  12.00000

 Molecular mass:   126.06808 amu.
 Principal axes and moments of inertia in atomic units:
                           1         2         3
     Eigenvalues --   704.714621516.664381797.48893
           X            0.99978  -0.01731   0.01176
           Y            0.01744   0.99979  -0.01087
           Z           -0.01157   0.01107   0.99987
 This molecule is an asymmetric top.
 Rotational symmetry number  1.
 Warning -- assumption of classical behavior for rotation
           may cause significant error
 Rotational temperatures (Kelvin)      0.12291     0.05711     0.04819
 Rotational constants (GHZ):           2.56095     1.18994     1.00403
 Zero-point vibrational energy     414851.5 (Joules/Mol)
                                   99.15190 (Kcal/Mol)
 Warning -- explicit consideration of  12 degrees of freedom as
           vibrations may cause significant error
 Vibrational temperatures:     89.08   170.81   272.39   289.68   319.68
          (Kelvin)            350.18   397.83   442.48   558.86   650.23
                              687.61   838.27  1013.63  1087.52  1162.26
                             1224.59  1273.39  1312.70  1393.07  1444.52
                             1492.85  1506.00  1514.37  1586.90  1598.31
                             1665.18  1726.46  1771.33  1826.00  1862.12
                             1896.21  1920.51  1967.69  2025.88  2047.16
                             2078.86  2096.97  2154.46  2156.47  2399.71
                             2575.14  4129.45  4309.99  4337.79  4361.64
                             4380.41  4388.49  4462.88  4467.11  4616.68
                             5488.45

 Zero-point correction=                           0.158009 (Hartree/Particle)
 Thermal correction to Energy=                    0.167180
 Thermal correction to Enthalpy=                  0.168124
 Thermal correction to Gibbs Free Energy=         0.123905
 Sum of electronic and zero-point Energies=           -423.050658
 Sum of electronic and thermal Energies=              -423.041487
 Sum of electronic and thermal Enthalpies=            -423.040542
 Sum of electronic and thermal Free Energies=         -423.084762

                     E (Thermal)             CV                S
                      KCal/Mol        Cal/Mol-Kelvin    Cal/Mol-Kelvin
 Total                  104.907             33.748             93.068
 Electronic               0.000              0.000              0.000
 Translational            0.889              2.981             40.409
 Rotational               0.889              2.981             29.042
 Vibrational            103.130             27.786             23.617
 Vibration     1          0.597              1.972              4.395
 Vibration     2          0.609              1.934              3.121
 Vibration     3          0.633              1.855              2.234
 Vibration     4          0.638              1.838              2.121
 Vibration     5          0.648              1.807              1.941
 Vibration     6          0.659              1.774              1.778
 Vibration     7          0.678              1.717              1.555
 Vibration     8          0.697              1.659              1.376
 Vibration     9          0.757              1.495              1.006
 Vibration    10          0.811              1.357              0.790
 Vibration    11          0.834              1.299              0.716
 Vibration    12          0.939              1.069              0.481

 Normal termination of Gaussian 09 at Tue Jan 28 04:38:54 2020.
