 Gaussian 09, Revision D.01,
 Gaussian 09:  ES64L-G09RevD.01 24-Apr-2013

 -----------------------------
 # b3lyp 6-31G(2df,p) opt Freq
 -----------------------------

 -----
 titel
 -----
 Symbolic Z-matrix:
 Charge =  0 Multiplicity = 1

 SCF Done:  E(RB3LYP) =  -423.160965369     A.U. after   15 cycles
 Optimization completed.
    -- Stationary point found.
 Normal termination of Gaussian 09 at Tue Jan 28 12:08:50 2020.

 ----------------------------------------------------------------------
 #N Geom=AllCheck Guess=TCheck SCRF=Check GenChk RB3LYP/6-31G(2df,p) Fr
 eq
 ----------------------------------------------------------------------

 Structure from the checkpoint file:  "/scratch/puck/g09_2cccf5b0-ffb4-4470-8f16-2ff49ab1b5f9/Gau-1502.chk"
 -----
 titel
 -----
 Charge =  0 Multiplicity = 1

                         Standard orientation:
 ---------------------------------------------------------------------
 Center     Atomic      Atomic             Coordinates (Angstroms)
 Number     Number       Type             X           Y           Z
 ---------------------------------------------------------------------
      1          6           0        2.882697   -0.291303    0.538965
      2          6           0        1.557268   -0.735462   -0.043032
      3          8           0        1.450423   -1.685266   -0.776881
      4          6           0        0.308866    0.089083    0.382251
      5          6           0       -0.994406   -0.567404   -0.110336
      6          6           0       -2.253287    0.124765    0.413450
      7          8           0       -3.438702   -0.544561    0.014674
      8          6           0        0.457508    1.469077   -0.076205
      9          6           0        0.591440    2.590932   -0.488751
     10          1           0        3.691052   -0.883074    0.108795
     11          1           0        3.047413    0.773389    0.352563
     12          1           0        2.870905   -0.428792    1.626842
     13          1           0        0.311181    0.097871    1.483807
     14          1           0       -0.994496   -0.569023   -1.206059
     15          1           0       -0.999564   -1.614894    0.203694
     16          1           0       -2.262612    0.109492    1.509758
     17          1           0       -2.262486    1.180552    0.105066
     18          1           0       -3.496568   -0.492291   -0.944726
     19          1           0        0.700894    3.587264   -0.840134
 ---------------------------------------------------------------------

 SCF Done:  E(RB3LYP) =  -423.160965369     A.U. after    1 cycles

 The electronic state is 1-A.
 Alpha  occ. eigenvalues --  -19.14121 -19.13305 -10.28278 -10.22768 -10.22663
 Alpha  occ. eigenvalues --  -10.19604 -10.19412 -10.18864 -10.18552  -1.05315
 Alpha  occ. eigenvalues --   -1.01423  -0.82865  -0.75409  -0.74343  -0.69289
 Alpha  occ. eigenvalues --   -0.61567  -0.56103  -0.52771  -0.50655  -0.49239
 Alpha  occ. eigenvalues --   -0.47362  -0.45657  -0.44343  -0.41938  -0.41842
 Alpha  occ. eigenvalues --   -0.39464  -0.37791  -0.36361  -0.36131  -0.32294
 Alpha  occ. eigenvalues --   -0.29564  -0.28042  -0.26601  -0.24643
 Alpha virt. eigenvalues --   -0.02321   0.03775   0.05017   0.07912   0.09328
 Alpha virt. eigenvalues --    0.11863   0.12930   0.13313   0.14772   0.15232
 Alpha virt. eigenvalues --    0.16211   0.17011   0.19330   0.19624   0.23010

 Mulliken charges:
               1
     1  C   -0.480098
     2  C    0.378325
     3  O   -0.281591
     4  C   -0.265532
     5  C   -0.201052
     6  C   -0.074382
     7  O   -0.416551
     8  C    0.332388
     9  C   -0.482515
    10  H    0.145420
    11  H    0.157644
    12  H    0.141910
    13  H    0.119084
    14  H    0.110563
    15  H    0.121188
    16  H    0.107040
    17  H    0.101588
    18  H    0.282313
    19  H    0.204258
 Sum of Mulliken charges =   0.00000

 Dipole moment (field-independent basis, Debye):
    X=              1.2991    Y=              2.0989    Z=              0.5896  Tot=              2.5379
 Quadrupole moment (field-independent basis, Debye-Ang):
   XX=            -56.4931   YY=            -54.3374   ZZ=            -51.0578
   XY=              0.9051   XZ=              6.7486   YZ=             -3.6990

  Exact polarizability:  82.636   2.215  88.393   2.268  -2.648  63.206
 Approx polarizability:  99.459   6.132 142.987   1.376  -4.777 102.561

                      1                      2                      3
                      A                      A                      A
 Frequencies --     17.9814                77.8968                87.1786
 Red. masses --      2.7426                 1.9746                 2.8085
 Frc consts  --      0.0005                 0.0071                 0.0126
 IR Inten    --      3.4906                 3.5932                 2.1923

                      4                      5                      6
                      A                      A                      A
 Frequencies --    107.0623               124.6924               148.7412
 Red. masses --      1.3218                 4.6178                 4.0498
 Frc consts  --      0.0089                 0.0423                 0.0528
 IR Inten    --      0.2671                 3.2757                 1.2646

                      7                      8                      9
                      A                      A                      A
 Frequencies --    221.9334               292.3618               306.0307
 Red. masses --      3.2793                 1.1983                 5.0644
 Frc consts  --      0.0952                 0.0603                 0.2795
 IR Inten    --      1.6892                65.9298                 7.7194

                     10                     11                     12
                      A                      A                      A
 Frequencies --    326.9274               409.7753               428.4619
 Red. masses --      2.9344                 4.8879                 4.8389
 Frc consts  --      0.1848                 0.4836                 0.5234
 IR Inten    --     39.2062                 2.6680                 2.3985

                     13                     14                     15
                      A                      A                      A
 Frequencies --    555.9292               567.5339               614.5760
 Red. masses --      3.7202                 3.4121                 2.0076
 Frc consts  --      0.6774                 0.6475                 0.4468
 IR Inten    --      7.2083                15.5552                16.0134

                     16                     17                     18
                      A                      A                      A
 Frequencies --    628.1555               645.6319               772.8994
 Red. masses --      1.5358                 1.2193                 1.4338
 Frc consts  --      0.3570                 0.2994                 0.5046
 IR Inten    --     32.6195                44.2450                 1.3984

                     19                     20                     21
                      A                      A                      A
 Frequencies --    808.9151               903.8394               945.2751
 Red. masses --      2.3412                 2.9193                 1.7979
 Frc consts  --      0.9026                 1.4051                 0.9465
 IR Inten    --      4.1926                 0.9298                15.4925

                     22                     23                     24
                      A                      A                      A
 Frequencies --   1010.7989              1049.6172              1079.7429
 Red. masses --      2.0830                 2.2397                 3.5466
 Frc consts  --      1.2539                 1.4538                 2.4361
 IR Inten    --     20.8648                13.3985                94.3336

                     25                     26                     27
                      A                      A                      A
 Frequencies --   1092.8758              1099.3046              1156.6813
 Red. masses --      2.4659                 2.2799                 1.3711
 Frc consts  --      1.7353                 1.6233                 1.0808
 IR Inten    --      3.0677                 3.9990                 6.5335

                     28                     29                     30
                      A                      A                      A
 Frequencies --   1190.0846              1255.3856              1299.2075
 Red. masses --      1.9360                 1.4855                 1.3269
 Frc consts  --      1.6155                 1.3794                 1.3196
 IR Inten    --     63.2104                42.8340                 7.6334

                     31                     32                     33
                      A                      A                      A
 Frequencies --   1309.7664              1341.6324              1382.1440
 Red. masses --      1.3863                 1.2628                 1.3046
 Frc consts  --      1.4012                 1.3392                 1.4684
 IR Inten    --      0.6908                 4.8392                36.7177

                     34                     35                     36
                      A                      A                      A
 Frequencies --   1399.2258              1425.5775              1464.4487
 Red. masses --      1.2763                 1.2844                 1.0506
 Frc consts  --      1.4722                 1.5379                 1.3276
 IR Inten    --     11.6967                46.7106                 9.5792

                     37                     38                     39
                      A                      A                      A
 Frequencies --   1473.9970              1480.4437              1514.4174
 Red. masses --      1.0496                 1.0826                 1.0905
 Frc consts  --      1.3436                 1.3979                 1.4735
 IR Inten    --      9.6643                 2.0794                 0.7158

                     40                     41                     42
                      A                      A                      A
 Frequencies --   1825.1936              2227.1525              2986.3636
 Red. masses --     11.1636                 5.9426                 1.0795
 Frc consts  --     21.9115                17.3670                 5.6724
 IR Inten    --    157.1091                 1.6305                 9.9919

                     43                     44                     45
                      A                      A                      A
 Frequencies --   2999.1177              3041.6460              3048.5559
 Red. masses --      1.0651                 1.0396                 1.0713
 Frc consts  --      5.6447                 5.6669                 5.8660
 IR Inten    --     38.7731                 2.6300                 8.3559

                     46                     47                     48
                      A                      A                      A
 Frequencies --   3060.4437              3105.4597              3110.8566
 Red. masses --      1.0863                 1.1026                 1.0934
 Frc consts  --      5.9947                 6.2649                 6.2345
 IR Inten    --     31.1219                23.7884                 5.4377

                     49                     50                     51
                      A                      A                      A
 Frequencies --   3159.1825              3501.8153              3815.2547
 Red. masses --      1.1036                 1.1613                 1.0662
 Frc consts  --      6.4892                 8.3904                 9.1436
 IR Inten    --      7.9198                72.5912                17.5536

 - Thermochemistry -
 -------------------
 Temperature   298.150 Kelvin.  Pressure   1.00000 Atm.
 Atom     1 has atomic number  6 and mass  12.00000

 Molecular mass:   126.06808 amu.
 Principal axes and moments of inertia in atomic units:
                           1         2         3
     Eigenvalues --   777.701481854.508992415.58026
           X            0.99988   0.00491   0.01439
           Y           -0.00471   0.99989  -0.01401
           Z           -0.01445   0.01394   0.99980
 This molecule is an asymmetric top.
 Rotational symmetry number  1.
 Warning -- assumption of classical behavior for rotation
           may cause significant error
 Rotational temperatures (Kelvin)      0.11137     0.04670     0.03586
 Rotational constants (GHZ):           2.32061     0.97316     0.74713
 Zero-point vibrational energy     406121.4 (Joules/Mol)
                                   97.06534 (Kcal/Mol)
 Warning -- explicit consideration of  15 degrees of freedom as
           vibrations may cause significant error
 Vibrational temperatures:     25.87   112.08   125.43   154.04   179.40
          (Kelvin)            214.01   319.31   420.64   440.31   470.38
                              589.57   616.46   799.86   816.55   884.24
                              903.77   928.92  1112.03  1163.85  1300.42
                             1360.04  1454.31  1510.16  1553.51  1572.40
                             1581.65  1664.20  1712.26  1806.22  1869.27
                             1884.46  1930.31  1988.59  2013.17  2051.09
                             2107.01  2120.75  2130.03  2178.91  2626.04
                             3204.37  4296.71  4315.06  4376.24  4386.19
                             4403.29  4468.06  4475.82  4545.35  5038.32
                             5489.29

 Zero-point correction=                           0.154683 (Hartree/Particle)
 Thermal correction to Energy=                    0.165682
 Thermal correction to Enthalpy=                  0.166626
 Thermal correction to Gibbs Free Energy=         0.116716
 Sum of electronic and zero-point Energies=           -423.006282
 Sum of electronic and thermal Energies=              -422.995283
 Sum of electronic and thermal Enthalpies=            -422.994339
 Sum of electronic and thermal Free Energies=         -423.044250

                     E (Thermal)             CV                S
                      KCal/Mol        Cal/Mol-Kelvin    Cal/Mol-Kelvin
 Total                  103.967             37.947            105.045
 Electronic               0.000              0.000              0.000
 Translational            0.889              2.981             40.409
 Rotational               0.889              2.981             29.634
 Vibrational            102.190             31.986             35.003
 Vibration     1          0.593              1.986              6.845
 Vibration     2          0.599              1.964              3.943
 Vibration     3          0.601              1.958              3.722
 Vibration     4          0.606              1.944              3.322
 Vibration     5          0.610              1.928              3.026
 Vibration     6          0.618              1.904              2.688
 Vibration     7          0.648              1.808              1.943
 Vibration     8          0.688              1.688              1.460
 Vibration     9          0.696              1.662              1.384
 Vibration    10          0.711              1.622              1.275
 Vibration    11          0.774              1.449              0.927
 Vibration    12          0.790              1.408              0.864
 Vibration    13          0.911              1.127              0.532
 Vibration    14          0.923              1.101              0.509
 Vibration    15          0.974              1.001              0.425

 Normal termination of Gaussian 09 at Tue Jan 28 12:50:52 2020.
