 Gaussian 09, Revision D.01,
 Gaussian 09:  ES64L-G09RevD.01 24-Apr-2013

 -----------------------------
 # b3lyp 6-31G(2df,p) opt Freq
 -----------------------------

 -----
 titel
 -----
 Symbolic Z-matrix:
 Charge =  0 Multiplicity = 1

 SCF Done:  E(RB3LYP) =  -423.168729798     A.U. after   14 cycles
 Optimization completed.
    -- Stationary point found.
 Normal termination of Gaussian 09 at Tue Jan 28 14:12:26 2020.

 ----------------------------------------------------------------------
 #N Geom=AllCheck Guess=TCheck SCRF=Check GenChk RB3LYP/6-31G(2df,p) Fr
 eq
 ----------------------------------------------------------------------

 Structure from the checkpoint file:  "/scratch/puck/g09_db6b7785-373f-4076-842d-cdaf0e864f98/Gau-61185.chk"
 -----
 titel
 -----
 Charge =  0 Multiplicity = 1

                         Standard orientation:
 ---------------------------------------------------------------------
 Center     Atomic      Atomic             Coordinates (Angstroms)
 Number     Number       Type             X           Y           Z
 ---------------------------------------------------------------------
      1          8           0        2.749014   -0.885264    0.103665
      2          6           0        2.102073    0.374490    0.199434
      3          6           0        0.742618    0.257003   -0.491799
      4          6           0       -0.008568    1.571616   -0.517917
      5          6           0       -1.132040    1.546023    0.201332
      6          6           0       -1.395171    0.195304    0.805897
      7          6           0       -2.296451   -0.742448   -0.034276
      8          8           0       -1.147243   -1.357485   -0.648413
      9          6           0       -0.235816   -0.674709    0.244682
     10          1           0        3.570852   -0.842817    0.600931
     11          1           0        1.955339    0.672560    1.250521
     12          1           0        2.693581    1.168308   -0.284137
     13          1           0        0.915312   -0.140797   -1.499959
     14          1           0        0.359540    2.435746   -1.061797
     15          1           0       -1.812816    2.382343    0.321389
     16          1           0       -1.590727    0.209875    1.880721
     17          1           0       -2.875770   -1.462503    0.559782
     18          1           0       -2.955902   -0.266680   -0.769644
     19          1           0        0.266549   -1.377721    0.916051
 ---------------------------------------------------------------------

 SCF Done:  E(RB3LYP) =  -423.168729798     A.U. after    1 cycles

 The electronic state is 1-A.
 Alpha  occ. eigenvalues --  -19.13618 -19.12375 -10.22856 -10.22456 -10.22370
 Alpha  occ. eigenvalues --  -10.19018 -10.18429 -10.18394 -10.18306  -1.03053
 Alpha  occ. eigenvalues --   -1.01684  -0.83317  -0.75134  -0.69692  -0.67530
 Alpha  occ. eigenvalues --   -0.61602  -0.54788  -0.53630  -0.51413  -0.49963
 Alpha  occ. eigenvalues --   -0.47783  -0.44193  -0.43973  -0.42370  -0.39573
 Alpha  occ. eigenvalues --   -0.37231  -0.36634  -0.34301  -0.33391  -0.32053
 Alpha  occ. eigenvalues --   -0.29428  -0.27102  -0.24763  -0.23912
 Alpha virt. eigenvalues --    0.01506   0.07498   0.08974   0.11252   0.12482
 Alpha virt. eigenvalues --    0.13536   0.14232   0.15783   0.16168   0.17273
 Alpha virt. eigenvalues --    0.17736   0.18465   0.18936   0.20421   0.22221

 Mulliken charges:
               1
     1  O   -0.418102
     2  C   -0.093022
     3  C   -0.042128
     4  C   -0.090579
     5  C   -0.088282
     6  C   -0.124936
     7  C   -0.075703
     8  O   -0.293606
     9  C    0.119355
    10  H    0.287997
    11  H    0.085894
    12  H    0.085761
    13  H    0.103186
    14  H    0.094147
    15  H    0.095615
    16  H    0.078074
    17  H    0.093837
    18  H    0.100589
    19  H    0.081904
 Sum of Mulliken charges =   0.00000

 Dipole moment (field-independent basis, Debye):
    X=              0.6490    Y=              2.0864    Z=              1.8358  Tot=              2.8538
 Quadrupole moment (field-independent basis, Debye-Ang):
   XX=            -44.5589   YY=            -55.7762   ZZ=            -52.8862
   XY=              0.2632   XZ=              0.9436   YZ=             -3.2008

  Exact polarizability:  93.764   0.812  73.103  -5.581  -3.700  62.730
 Approx polarizability: 128.210  -0.266 105.509 -13.407  -2.340 101.442

                      1                      2                      3
                      A                      A                      A
 Frequencies --     90.8101               117.0105               169.4130
 Red. masses --      4.0671                 3.7571                 2.6995
 Frc consts  --      0.0198                 0.0303                 0.0456
 IR Inten    --      0.7744                 4.4240                 5.9411

                      4                      5                      6
                      A                      A                      A
 Frequencies --    220.8953               269.0552               291.2054
 Red. masses --      2.1199                 1.3075                 3.3613
 Frc consts  --      0.0609                 0.0558                 0.1679
 IR Inten    --     17.1830                78.0507                 5.5557

                      7                      8                      9
                      A                      A                      A
 Frequencies --    402.7874               446.9033               537.8165
 Red. masses --      2.8394                 4.2343                 3.0510
 Frc consts  --      0.2714                 0.4983                 0.5199
 IR Inten    --      2.1566                12.7783                 4.0318

                     10                     11                     12
                      A                      A                      A
 Frequencies --    653.0243               759.7705               782.5242
 Red. masses --      4.0019                 2.7090                 1.7493
 Frc consts  --      1.0055                 0.9213                 0.6311
 IR Inten    --      2.2132                16.6241                22.7750

                     13                     14                     15
                      A                      A                      A
 Frequencies --    832.6929               856.4705               892.4888
 Red. masses --      1.8518                 2.4860                 3.4482
 Frc consts  --      0.7565                 1.0744                 1.6182
 IR Inten    --      1.3036                 5.7243                11.1406

                     16                     17                     18
                      A                      A                      A
 Frequencies --    904.1690               975.8113               979.4709
 Red. masses --      2.1590                 1.5668                 1.8617
 Frc consts  --      1.0399                 0.8790                 1.0523
 IR Inten    --      3.2714                 8.5098                 6.5842

                     19                     20                     21
                      A                      A                      A
 Frequencies --   1007.5234              1027.8075              1041.3833
 Red. masses --      2.4628                 6.6107                 2.3234
 Frc consts  --      1.4729                 4.1145                 1.4846
 IR Inten    --      1.5328               104.8109                16.0213

                     22                     23                     24
                      A                      A                      A
 Frequencies --   1062.3037              1070.1606              1081.3546
 Red. masses --      2.1191                 5.1046                 1.6869
 Frc consts  --      1.4089                 3.4444                 1.1622
 IR Inten    --      1.4115                45.4281                 4.4958

                     25                     26                     27
                      A                      A                      A
 Frequencies --   1112.9596              1133.1508              1166.3511
 Red. masses --      2.0740                 1.1430                 1.1433
 Frc consts  --      1.5136                 0.8647                 0.9164
 IR Inten    --     24.5690                 2.7447                 1.4981

                     28                     29                     30
                      A                      A                      A
 Frequencies --   1208.5668              1224.5282              1233.1056
 Red. masses --      1.5175                 1.4505                 1.2255
 Frc consts  --      1.3060                 1.2815                 1.0979
 IR Inten    --     22.3834                 3.1160                 1.6955

                     31                     32                     33
                      A                      A                      A
 Frequencies --   1262.7742              1294.9455              1310.9816
 Red. masses --      1.3946                 1.3418                 1.2655
 Frc consts  --      1.3102                 1.3257                 1.2815
 IR Inten    --     13.2346                23.9718                 2.9910

                     34                     35                     36
                      A                      A                      A
 Frequencies --   1326.1729              1329.2205              1367.8156
 Red. masses --      1.6389                 1.4377                 1.4152
 Frc consts  --      1.6983                 1.4966                 1.5600
 IR Inten    --      3.6925                 1.4750                 7.0836

                     37                     38                     39
                      A                      A                      A
 Frequencies --   1392.7460              1450.4305              1520.4035
 Red. masses --      1.7366                 1.4408                 1.0826
 Frc consts  --      1.9847                 1.7859                 1.4744
 IR Inten    --      1.1624                 7.7645                 4.0816

                     40                     41                     42
                      A                      A                      A
 Frequencies --   1522.2569              1674.7531              2962.6535
 Red. masses --      1.1017                 6.5655                 1.0547
 Frc consts  --      1.5041                10.8497                 5.4545
 IR Inten    --      0.6400                 0.6617                54.1120

                     43                     44                     45
                      A                      A                      A
 Frequencies --   2990.9029              3002.1722              3038.4503
 Red. masses --      1.1052                 1.0590                 1.0838
 Frc consts  --      5.8252                 5.6236                 5.8953
 IR Inten    --     53.0174                93.0264                19.2731

                     46                     47                     48
                      A                      A                      A
 Frequencies --   3055.8906              3063.8706              3082.0259
 Red. masses --      1.1049                 1.0873                 1.0880
 Frc consts  --      6.0793                 6.0137                 6.0893
 IR Inten    --     43.3125                16.8908                53.5529

                     49                     50                     51
                      A                      A                      A
 Frequencies --   3174.1207              3199.1505              3831.7546
 Red. masses --      1.0841                 1.1032                 1.0664
 Frc consts  --      6.4353                 6.6522                 9.2250
 IR Inten    --      6.5005                23.1981                24.6013

 - Thermochemistry -
 -------------------
 Temperature   298.150 Kelvin.  Pressure   1.00000 Atm.
 Atom     1 has atomic number  8 and mass  15.99491

 Molecular mass:   126.06808 amu.
 Principal axes and moments of inertia in atomic units:
                           1         2         3
     Eigenvalues --   596.524121376.941781736.06203
           X            0.99995   0.00982  -0.00201
           Y           -0.00987   0.99950  -0.03006
           Z            0.00171   0.03008   0.99955
 This molecule is an asymmetric top.
 Rotational symmetry number  1.
 Warning -- assumption of classical behavior for rotation
           may cause significant error
 Rotational temperatures (Kelvin)      0.14520     0.06290     0.04989
 Rotational constants (GHZ):           3.02543     1.31069     1.03956
 Zero-point vibrational energy     421115.5 (Joules/Mol)
                                  100.64901 (Kcal/Mol)
 Warning -- explicit consideration of   9 degrees of freedom as
           vibrations may cause significant error
 Vibrational temperatures:    130.66   168.35   243.75   317.82   387.11
          (Kelvin)            418.98   579.52   642.99   773.80   939.56
                             1093.14  1125.88  1198.06  1232.27  1284.09
                             1300.90  1403.97  1409.24  1449.60  1478.78
                             1498.32  1528.42  1539.72  1555.83  1601.30
                             1630.35  1678.12  1738.86  1761.82  1774.16
                             1816.85  1863.14  1886.21  1908.06  1912.45
                             1967.98  2003.85  2086.84  2187.52  2190.19
                             2409.59  4262.59  4303.24  4319.45  4371.65
                             4396.74  4408.22  4434.34  4566.85  4602.86
                             5513.03

 Zero-point correction=                           0.160394 (Hartree/Particle)
 Thermal correction to Energy=                    0.168496
 Thermal correction to Enthalpy=                  0.169440
 Thermal correction to Gibbs Free Energy=         0.127459
 Sum of electronic and zero-point Energies=           -423.008335
 Sum of electronic and thermal Energies=              -423.000234
 Sum of electronic and thermal Enthalpies=            -422.999289
 Sum of electronic and thermal Free Energies=         -423.041270

                     E (Thermal)             CV                S
                      KCal/Mol        Cal/Mol-Kelvin    Cal/Mol-Kelvin
 Total                  105.733             30.769             88.356
 Electronic               0.000              0.000              0.000
 Translational            0.889              2.981             40.409
 Rotational               0.889              2.981             28.746
 Vibrational            103.956             24.807             19.202
 Vibration     1          0.602              1.956              3.643
 Vibration     2          0.608              1.935              3.149
 Vibration     3          0.625              1.880              2.442
 Vibration     4          0.648              1.809              1.952
 Vibration     5          0.673              1.730              1.602
 Vibration     6          0.687              1.690              1.467
 Vibration     7          0.768              1.464              0.952
 Vibration     8          0.806              1.368              0.805
 Vibration     9          0.893              1.166              0.570

 Optimization completed.
    -- Stationary point found.
 Normal termination of Gaussian 09 at Tue Jan 28 14:57:52 2020.
