 Gaussian 09, Revision D.01,
 Gaussian 09:  ES64L-G09RevD.01 24-Apr-2013

 -----------------------------
 # b3lyp 6-31G(2df,p) opt Freq
 -----------------------------

 -----
 titel
 -----
 Symbolic Z-matrix:
 Charge =  0 Multiplicity = 1

 SCF Done:  E(RB3LYP) =  -423.248285656     A.U. after   14 cycles
 Optimization completed.
    -- Stationary point found.
 Normal termination of Gaussian 09 at Tue Jan 28 14:10:24 2020.

 ----------------------------------------------------------------------
 #N Geom=AllCheck Guess=TCheck SCRF=Check GenChk RB3LYP/6-31G(2df,p) Fr
 eq
 ----------------------------------------------------------------------

 Structure from the checkpoint file:  "/scratch/puck/g09_bdc0ab98-1cc9-499d-9241-897165518e35/Gau-144492.chk"
 -----
 titel
 -----
 Charge =  0 Multiplicity = 1

                         Standard orientation:
 ---------------------------------------------------------------------
 Center     Atomic      Atomic             Coordinates (Angstroms)
 Number     Number       Type             X           Y           Z
 ---------------------------------------------------------------------
      1          6           0       -3.567807   -0.059379    0.152831
      2          6           0       -2.085654   -0.039822    0.531730
      3          6           0       -1.177810   -0.503430   -0.625437
      4          6           0        0.275482   -0.449731   -0.280008
      5          6           0        1.171393   -1.418359   -0.079674
      6          6           0        2.502084   -0.812761    0.252024
      7          8           0        2.286768    0.596518    0.221829
      8          6           0        0.977250    0.853218   -0.093826
      9          8           0        0.542091    1.967614   -0.190286
     10          1           0       -4.192924    0.268485    0.988864
     11          1           0       -3.767520    0.606898   -0.693433
     12          1           0       -3.894183   -1.065817   -0.133047
     13          1           0       -1.786729    0.971711    0.824474
     14          1           0       -1.913401   -0.685630    1.401612
     15          1           0       -1.449080   -1.521029   -0.928600
     16          1           0       -1.355005    0.150484   -1.488744
     17          1           0        1.011043   -2.487528   -0.140521
     18          1           0        2.865751   -1.098121    1.247605
     19          1           0        3.281546   -1.070921   -0.476388
 ---------------------------------------------------------------------

 SCF Done:  E(RB3LYP) =  -423.248285656     A.U. after    1 cycles

 The electronic state is 1-A.
 Alpha  occ. eigenvalues --  -19.17977 -19.11887 -10.29876 -10.25734 -10.21345
 Alpha  occ. eigenvalues --  -10.20840 -10.19498 -10.18430 -10.17521  -1.09811
 Alpha  occ. eigenvalues --   -1.01832  -0.83353  -0.78140  -0.73388  -0.68520
 Alpha  occ. eigenvalues --   -0.60106  -0.59637  -0.55216  -0.49871  -0.49544
 Alpha  occ. eigenvalues --   -0.47349  -0.44845  -0.42852  -0.41812  -0.40852
 Alpha  occ. eigenvalues --   -0.39561  -0.38778  -0.35955  -0.34926  -0.34630
 Alpha  occ. eigenvalues --   -0.33301  -0.29995  -0.27112  -0.26617
 Alpha virt. eigenvalues --   -0.03616   0.07379   0.09887   0.10139   0.12067
 Alpha virt. eigenvalues --    0.12516   0.13813   0.14579   0.15050   0.15607
 Alpha virt. eigenvalues --    0.17403   0.18008   0.19142   0.20748   0.23179

 Mulliken charges:
               1
     1  C   -0.380620
     2  C   -0.168446
     3  C   -0.302153
     4  C    0.183562
     5  C   -0.218467
     6  C   -0.127577
     7  O   -0.225877
     8  C    0.402310
     9  O   -0.353076
    10  H    0.115644
    11  H    0.120569
    12  H    0.111149
    13  H    0.132265
    14  H    0.095019
    15  H    0.100529
    16  H    0.123926
    17  H    0.121316
    18  H    0.134872
    19  H    0.135055
 Sum of Mulliken charges =   0.00000

 Dipole moment (field-independent basis, Debye):
    X=              0.0285    Y=             -4.2774    Z=              0.0833  Tot=              4.2783
 Quadrupole moment (field-independent basis, Debye-Ang):
   XX=            -50.0639   YY=            -57.0989   ZZ=            -52.4854
   XY=             -5.7636   XZ=              0.2218   YZ=              0.1090

  Exact polarizability:  99.057 -11.874  81.036   3.981  -1.471  57.327
 Approx polarizability: 127.592 -25.580 137.994   8.029  -5.224  87.347

                      1                      2                      3
                      A                      A                      A
 Frequencies --     62.4818                81.3899               113.9305
 Red. masses --      2.7654                 2.0076                 3.8200
 Frc consts  --      0.0064                 0.0078                 0.0292
 IR Inten    --      2.8567                 0.6563                 0.6007

                      4                      5                      6
                      A                      A                      A
 Frequencies --    197.1697               239.7294               264.1929
 Red. masses --      4.7853                 1.1839                 2.4304
 Frc consts  --      0.1096                 0.0401                 0.0999
 IR Inten    --      0.2784                 0.4691                 3.2082

                      7                      8                      9
                      A                      A                      A
 Frequencies --    296.8652               325.1250               452.5740
 Red. masses --      2.3147                 2.8780                 4.3062
 Frc consts  --      0.1202                 0.1792                 0.5197
 IR Inten    --      2.0962                 1.7004                 0.8212

                     10                     11                     12
                      A                      A                      A
 Frequencies --    534.4171               656.6171               745.0395
 Red. masses --      4.7844                 5.1728                 1.1963
 Frc consts  --      0.8051                 1.3140                 0.3912
 IR Inten    --      2.6582                 7.5056                 3.4484

                     13                     14                     15
                      A                      A                      A
 Frequencies --    762.5132               795.5060               796.8229
 Red. masses --      4.6682                 6.4479                 3.9788
 Frc consts  --      1.5992                 2.4041                 1.4884
 IR Inten    --      0.4384                 0.4977                 3.1170

                     16                     17                     18
                      A                      A                      A
 Frequencies --    847.4397               883.7046               902.5931
 Red. masses --      1.4493                 1.3302                 1.8465
 Frc consts  --      0.6132                 0.6120                 0.8863
 IR Inten    --     21.3397                 0.2697                 1.7972

                     19                     20                     21
                      A                      A                      A
 Frequencies --    954.6180              1028.8765              1039.2126
 Red. masses --      2.0390                 1.7634                 3.0927
 Frc consts  --      1.0948                 1.0998                 1.9679
 IR Inten    --      5.8560                 6.8484                13.5829

                     22                     23                     24
                      A                      A                      A
 Frequencies --   1060.0008              1091.8937              1111.1525
 Red. masses --      2.7011                 6.4520                 2.0370
 Frc consts  --      1.7881                 4.5322                 1.4818
 IR Inten    --     66.9161                89.6016                 1.3690

                     25                     26                     27
                      A                      A                      A
 Frequencies --   1120.2464              1200.6276              1218.0482
 Red. masses --      1.7720                 1.0890                 2.1116
 Frc consts  --      1.3102                 0.9249                 1.8458
 IR Inten    --     26.0341                 0.0185                 9.9278

                     28                     29                     30
                      A                      A                      A
 Frequencies --   1253.0170              1310.3716              1321.3400
 Red. masses --      1.4809                 1.4162                 1.2626
 Frc consts  --      1.3699                 1.4327                 1.2988
 IR Inten    --      3.0329                 4.9072                 3.4191

                     31                     32                     33
                      A                      A                      A
 Frequencies --   1354.7659              1372.0844              1384.8385
 Red. masses --      1.7700                 1.6176                 1.4557
 Frc consts  --      1.9140                 1.7943                 1.6448
 IR Inten    --      6.7493                26.2526                 2.7604

                     34                     35                     36
                      A                      A                      A
 Frequencies --   1411.3522              1476.0415              1493.6229
 Red. masses --      1.2341                 1.0979                 1.0526
 Frc consts  --      1.4484                 1.4093                 1.3836
 IR Inten    --      0.4356                 1.0027                 0.6567

                     37                     38                     39
                      A                      A                      A
 Frequencies --   1495.1475              1498.3710              1508.4855
 Red. masses --      1.0892                 1.0405                 1.0825
 Frc consts  --      1.4346                 1.3764                 1.4513
 IR Inten    --      3.5586                 5.3734                 3.9327

                     40                     41                     42
                      A                      A                      A
 Frequencies --   1713.2041              1857.7558              3022.2458
 Red. masses --      7.8343                12.8250                 1.0570
 Frc consts  --     13.5478                26.0787                 5.6882
 IR Inten    --      3.6461               342.0723                34.9945

                     43                     44                     45
                      A                      A                      A
 Frequencies --   3023.4980              3029.3761              3035.8740
 Red. masses --      1.0590                 1.0387                 1.0623
 Frc consts  --      5.7040                 5.6160                 5.7688
 IR Inten    --      2.6272                20.7590                45.4351

                     46                     47                     48
                      A                      A                      A
 Frequencies --   3053.0560              3065.3674              3082.1867
 Red. masses --      1.1059                 1.0978                 1.1004
 Frc consts  --      6.0734                 6.0777                 6.1590
 IR Inten    --     16.4188                 6.3731                 0.7323

                     49                     50                     51
                      A                      A                      A
 Frequencies --   3104.3864              3105.5729              3215.9253
 Red. masses --      1.1023                 1.1009                 1.0962
 Frc consts  --      6.2588                 6.2557                 6.6794
 IR Inten    --     49.2926                32.2303                 3.8880

 - Thermochemistry -
 -------------------
 Temperature   298.150 Kelvin.  Pressure   1.00000 Atm.
 Atom     1 has atomic number  6 and mass  12.00000

 Molecular mass:   126.06808 amu.
 Principal axes and moments of inertia in atomic units:
                           1         2         3
     Eigenvalues --   529.345111828.598722210.19915
           X            0.99985  -0.01726  -0.00003
           Y            0.01726   0.99984   0.00441
           Z           -0.00004  -0.00441   0.99999
 This molecule is an asymmetric top.
 Rotational symmetry number  1.
 Warning -- assumption of classical behavior for rotation
           may cause significant error
 Rotational temperatures (Kelvin)      0.16362     0.04737     0.03919
 Rotational constants (GHZ):           3.40938     0.98695     0.81655
 Zero-point vibrational energy     418517.6 (Joules/Mol)
                                  100.02810 (Kcal/Mol)
 Warning -- explicit consideration of  10 degrees of freedom as
           vibrations may cause significant error
 Vibrational temperatures:     89.90   117.10   163.92   283.68   344.92
          (Kelvin)            380.11   427.12   467.78   651.15   768.91
                              944.72  1071.94  1097.09  1144.55  1146.45
                             1219.28  1271.45  1298.63  1373.48  1480.32
                             1495.19  1525.10  1570.99  1598.70  1611.78
                             1727.43  1752.50  1802.81  1885.33  1901.11
                             1949.20  1974.12  1992.47  2030.62  2123.69
                             2148.99  2151.18  2155.82  2170.37  2464.92
                             2672.89  4348.33  4350.13  4358.59  4367.94
                             4392.66  4410.37  4434.57  4466.51  4468.22
                             4626.99

 Zero-point correction=                           0.159405 (Hartree/Particle)
 Thermal correction to Energy=                    0.168325
 Thermal correction to Enthalpy=                  0.169269
 Thermal correction to Gibbs Free Energy=         0.124961
 Sum of electronic and zero-point Energies=           -423.088881
 Sum of electronic and thermal Energies=              -423.079961
 Sum of electronic and thermal Enthalpies=            -423.079017
 Sum of electronic and thermal Free Energies=         -423.123325

                     E (Thermal)             CV                S
                      KCal/Mol        Cal/Mol-Kelvin    Cal/Mol-Kelvin
 Total                  105.625             32.306             93.254
 Electronic               0.000              0.000              0.000
 Translational            0.889              2.981             40.409
 Rotational               0.889              2.981             29.149
 Vibrational            103.848             26.344             23.696
 Vibration     1          0.597              1.972              4.377
 Vibration     2          0.600              1.962              3.857
 Vibration     3          0.607              1.938              3.201
 Vibration     4          0.637              1.844              2.159
 Vibration     5          0.657              1.780              1.805
 Vibration     6          0.671              1.739              1.634
 Vibration     7          0.691              1.680              1.435
 Vibration     8          0.709              1.625              1.284
 Vibration     9          0.811              1.355              0.788
 Vibration    10          0.889              1.174              0.577

 Optimization completed.
    -- Stationary point found.
 Normal termination of Gaussian 09 at Tue Jan 28 14:52:56 2020.
