 Gaussian 09, Revision D.01,
 Gaussian 09:  ES64L-G09RevD.01 24-Apr-2013

 -----------------------------
 # b3lyp 6-31G(2df,p) opt Freq
 -----------------------------

 -----
 titel
 -----
 Symbolic Z-matrix:
 Charge =  0 Multiplicity = 1

 SCF Done:  E(RB3LYP) =  -423.187491266     A.U. after   14 cycles
 Optimization completed.
    -- Stationary point found.
 Normal termination of Gaussian 09 at Tue Jan 28 08:18:19 2020.

 ----------------------------------------------------------------------
 #N Geom=AllCheck Guess=TCheck SCRF=Check GenChk RB3LYP/6-31G(2df,p) Fr
 eq
 ----------------------------------------------------------------------

 Structure from the checkpoint file:  "/scratch/puck/g09_cb219947-5346-4dd8-8efb-3d2efa792963/Gau-59935.chk"
 -----
 titel
 -----
 Charge =  0 Multiplicity = 1

                         Standard orientation:
 ---------------------------------------------------------------------
 Center     Atomic      Atomic             Coordinates (Angstroms)
 Number     Number       Type             X           Y           Z
 ---------------------------------------------------------------------
      1          6           0       -3.246891    0.311215   -0.225484
      2          8           0       -1.993890   -0.167185   -0.733162
      3          6           0       -1.024719   -0.327030    0.187896
      4          8           0       -1.168454   -0.085990    1.360323
      5          6           0        0.240382   -0.880547   -0.438471
      6          6           0        1.513297   -0.379421    0.276067
      7          6           0        2.750903   -1.190847   -0.151210
      8          6           0        1.712398    1.049539    0.035530
      9          6           0        1.883145    2.217728   -0.190854
     10          1           0       -3.120618    1.287184    0.249309
     11          1           0       -3.906846    0.387919   -1.089535
     12          1           0       -3.657001   -0.385934    0.509640
     13          1           0        0.188626   -1.973353   -0.349305
     14          1           0        0.262011   -0.643996   -1.504565
     15          1           0        1.348412   -0.521622    1.350845
     16          1           0        3.643395   -0.834398    0.368763
     17          1           0        2.611976   -2.250499    0.085539
     18          1           0        2.927165   -1.097325   -1.227150
     19          1           0        2.030539    3.253600   -0.371676
 ---------------------------------------------------------------------

 SCF Done:  E(RB3LYP) =  -423.187491266     A.U. after    1 cycles

 The electronic state is 1-A.
 Alpha  occ. eigenvalues --  -19.18363 -19.12438 -10.30442 -10.23683 -10.21684
 Alpha  occ. eigenvalues --  -10.20172 -10.18492 -10.17760 -10.16887  -1.10136
 Alpha  occ. eigenvalues --   -1.01283  -0.82673  -0.75159  -0.72384  -0.69460
 Alpha  occ. eigenvalues --   -0.62677  -0.56363  -0.52228  -0.50638  -0.49153
 Alpha  occ. eigenvalues --   -0.47679  -0.46728  -0.43356  -0.42688  -0.41000
 Alpha  occ. eigenvalues --   -0.38691  -0.37438  -0.36288  -0.35680  -0.35027
 Alpha  occ. eigenvalues --   -0.30151  -0.27140  -0.26380  -0.26198
 Alpha virt. eigenvalues --    0.01390   0.05523   0.05675   0.10003   0.11613
 Alpha virt. eigenvalues --    0.12602   0.12939   0.13777   0.14490   0.15778
 Alpha virt. eigenvalues --    0.16521   0.17352   0.17882   0.19314   0.23043

 Mulliken charges:
               1
     1  C   -0.240904
     2  O   -0.229571
     3  C    0.453249
     4  O   -0.361353
     5  C   -0.323969
     6  C   -0.129579
     7  C   -0.399458
     8  C    0.341167
     9  C   -0.488112
    10  H    0.144492
    11  H    0.132979
    12  H    0.139683
    13  H    0.129852
    14  H    0.131393
    15  H    0.131816
    16  H    0.130071
    17  H    0.114954
    18  H    0.126548
    19  H    0.196741
 Sum of Mulliken charges =   0.00000

 Dipole moment (field-independent basis, Debye):
    X=             -0.4489    Y=             -0.6835    Z=             -1.4478  Tot=              1.6628
 Quadrupole moment (field-independent basis, Debye-Ang):
   XX=            -46.9147   YY=            -48.0544   ZZ=            -57.5213
   XY=             -1.5229   XZ=              1.6708   YZ=             -1.1372

  Exact polarizability:  86.138  -0.499  84.718   1.111  -2.222  62.766
 Approx polarizability: 100.309   3.008 131.181   1.550  -5.506 104.981

                      1                      2                      3
                      A                      A                      A
 Frequencies --     27.0600                59.6991               111.7181
 Red. masses --      4.8639                 3.7912                 1.1189
 Frc consts  --      0.0021                 0.0080                 0.0082
 IR Inten    --      1.6652                 0.2948                 0.2846

                      4                      5                      6
                      A                      A                      A
 Frequencies --    127.0175               157.6117               212.4056
 Red. masses --      3.3229                 3.6038                 1.8007
 Frc consts  --      0.0316                 0.0527                 0.0479
 IR Inten    --      1.3456                 1.6000                 0.2639

                      7                      8                      9
                      A                      A                      A
 Frequencies --    222.8598               256.5398               298.9796
 Red. masses --      2.6405                 1.4843                 3.1665
 Frc consts  --      0.0773                 0.0576                 0.1668
 IR Inten    --      4.1176                 0.4549                11.6400

                     10                     11                     12
                      A                      A                      A
 Frequencies --    320.0551               406.7898               529.4133
 Red. masses --      4.2051                 3.7154                 3.9938
 Frc consts  --      0.2538                 0.3622                 0.6595
 IR Inten    --      2.1859                 6.3496                 3.6728

                     13                     14                     15
                      A                      A                      A
 Frequencies --    558.7876               606.9641               626.9391
 Red. masses --      4.4432                 2.8844                 1.2165
 Frc consts  --      0.8174                 0.6261                 0.2817
 IR Inten    --      7.9787                 5.6665                41.9416

                     16                     17                     18
                      A                      A                      A
 Frequencies --    642.6275               719.0002               811.0365
 Red. masses --      1.2339                 4.1998                 2.9180
 Frc consts  --      0.3002                 1.2792                 1.1309
 IR Inten    --     41.9172                 6.9460                 1.9340

                     19                     20                     21
                      A                      A                      A
 Frequencies --    898.1253               914.1430               956.7554
 Red. masses --      4.1212                 1.8263                 1.9063
 Frc consts  --      1.9586                 0.8992                 1.0281
 IR Inten    --      6.4684                 4.5159                 1.1356

                     22                     23                     24
                      A                      A                      A
 Frequencies --   1028.0445              1076.1956              1091.8870
 Red. masses --      3.6166                 2.7637                 2.1134
 Frc consts  --      2.2520                 1.8859                 1.4845
 IR Inten    --     19.7496                 2.2084                16.6678

                     25                     26                     27
                      A                      A                      A
 Frequencies --   1153.5884              1178.9709              1188.4221
 Red. masses --      1.9491                 1.2868                 1.6517
 Frc consts  --      1.5282                 1.0538                 1.3744
 IR Inten    --      2.9656                 1.5931               129.6833

                     28                     29                     30
                      A                      A                      A
 Frequencies --   1211.1609              1244.3632              1299.1529
 Red. masses --      1.4597                 1.8434                 1.4285
 Frc consts  --      1.2616                 1.6818                 1.4205
 IR Inten    --      9.0257               173.2729                57.2416

                     31                     32                     33
                      A                      A                      A
 Frequencies --   1360.7236              1378.0745              1409.8628
 Red. masses --      1.5407                 1.5948                 1.2185
 Frc consts  --      1.6808                 1.7844                 1.4271
 IR Inten    --     26.3913                63.4901                 0.9633

                     34                     35                     36
                      A                      A                      A
 Frequencies --   1461.2762              1473.6306              1481.1598
 Red. masses --      1.0843                 1.2223                 1.0469
 Frc consts  --      1.3641                 1.5639                 1.3532
 IR Inten    --      6.5930                21.0863                 6.4385

                     37                     38                     39
                      A                      A                      A
 Frequencies --   1491.6461              1496.9041              1501.3948
 Red. masses --      1.0440                 1.0578                 1.0528
 Frc consts  --      1.3686                 1.3965                 1.3983
 IR Inten    --      5.4260                 7.2407                 1.8008

                     40                     41                     42
                      A                      A                      A
 Frequencies --   1819.2420              2235.5563              3035.9690
 Red. masses --     11.2402                 5.9271                 1.0610
 Frc consts  --     21.9183                17.4528                 5.7617
 IR Inten    --    180.9472                 0.9937                 7.4443

                     43                     44                     45
                      A                      A                      A
 Frequencies --   3040.0109              3043.7701              3052.7663
 Red. masses --      1.0442                 1.0776                 1.0297
 Frc consts  --      5.6854                 5.8821                 5.6542
 IR Inten    --     26.8166                 3.0885                28.4081

                     46                     47                     48
                      A                      A                      A
 Frequencies --   3109.7651              3114.4348              3124.3082
 Red. masses --      1.0998                 1.0970                 1.1018
 Frc consts  --      6.2665                 6.2691                 6.3365
 IR Inten    --      7.6269                23.3584                20.0040

                     49                     50                     51
                      A                      A                      A
 Frequencies --   3127.9164              3159.9675              3504.9153
 Red. masses --      1.1055                 1.1061                 1.1620
 Frc consts  --      6.3727                 6.5074                 8.4105
 IR Inten    --     18.0311                15.6259                62.0142

 - Thermochemistry -
 -------------------
 Temperature   298.150 Kelvin.  Pressure   1.00000 Atm.
 Atom     1 has atomic number  6 and mass  12.00000

 Molecular mass:   126.06808 amu.
 Principal axes and moments of inertia in atomic units:
                           1         2         3
     Eigenvalues --   635.319551949.478492222.60893
           X            0.99956  -0.02950   0.00025
           Y            0.02950   0.99956   0.00430
           Z           -0.00038  -0.00429   0.99999
 This molecule is an asymmetric top.
 Rotational symmetry number  1.
 Warning -- assumption of classical behavior for rotation
           may cause significant error
 Rotational temperatures (Kelvin)      0.13633     0.04443     0.03897
 Rotational constants (GHZ):           2.84068     0.92576     0.81199
 Zero-point vibrational energy     408881.3 (Joules/Mol)
                                   97.72496 (Kcal/Mol)
 Warning -- explicit consideration of  14 degrees of freedom as
           vibrations may cause significant error
 Vibrational temperatures:     38.93    85.89   160.74   182.75   226.77
          (Kelvin)            305.60   320.65   369.10   430.16   460.49
                              585.28   761.71   803.97   873.28   902.02
                              924.60  1034.48  1166.90  1292.20  1315.25
                             1376.56  1479.12  1548.40  1570.98  1659.75
                             1696.27  1709.87  1742.59  1790.36  1869.19
                             1957.78  1982.74  2028.48  2102.45  2120.22
                             2131.06  2146.14  2153.71  2160.17  2617.48
                             3216.46  4368.08  4373.89  4379.30  4392.24
                             4474.25  4480.97  4495.18  4500.37  4546.48
                             5042.79

 Zero-point correction=                           0.155735 (Hartree/Particle)
 Thermal correction to Energy=                    0.166354
 Thermal correction to Enthalpy=                  0.167299
 Thermal correction to Gibbs Free Energy=         0.118725
 Sum of electronic and zero-point Energies=           -423.031757
 Sum of electronic and thermal Energies=              -423.021137
 Sum of electronic and thermal Enthalpies=            -423.020193
 Sum of electronic and thermal Free Energies=         -423.068766

                     E (Thermal)             CV                S
                      KCal/Mol        Cal/Mol-Kelvin    Cal/Mol-Kelvin
 Total                  104.389             36.873            102.232
 Electronic               0.000              0.000              0.000
 Translational            0.889              2.981             40.409
 Rotational               0.889              2.981             29.400
 Vibrational            102.612             30.912             32.424
 Vibration     1          0.593              1.984              6.034
 Vibration     2          0.597              1.974              4.467
 Vibration     3          0.607              1.940              3.239
 Vibration     4          0.611              1.926              2.991
 Vibration     5          0.621              1.894              2.578
 Vibration     6          0.643              1.822              2.023
 Vibration     7          0.649              1.806              1.936
 Vibration     8          0.666              1.752              1.685
 Vibration     9          0.692              1.676              1.423
 Vibration    10          0.706              1.635              1.310
 Vibration    11          0.772              1.455              0.938
 Vibration    12          0.884              1.185              0.589
 Vibration    13          0.914              1.120              0.526
 Vibration    14          0.966              1.017              0.438

 Normal termination of Gaussian 09 at Tue Jan 28 09:54:08 2020.
