 Gaussian 09, Revision D.01,
 Gaussian 09:  ES64L-G09RevD.01 24-Apr-2013

 -----------------------------
 # b3lyp 6-31G(2df,p) opt Freq
 -----------------------------

 -----
 titel
 -----
 Symbolic Z-matrix:
 Charge =  0 Multiplicity = 1

 SCF Done:  E(RB3LYP) =  -423.196791708     A.U. after   14 cycles
 Optimization completed.
    -- Stationary point found.
 Normal termination of Gaussian 09 at Tue Jan 28 00:05:01 2020.

 ----------------------------------------------------------------------
 #N Geom=AllCheck Guess=TCheck SCRF=Check GenChk RB3LYP/6-31G(2df,p) Fr
 eq
 ----------------------------------------------------------------------

 Structure from the checkpoint file:  "/scratch/puck/g09_e46ba9c4-cb75-47b1-8fe1-1057f2437543/Gau-71693.chk"
 -----
 titel
 -----
 Charge =  0 Multiplicity = 1

                         Standard orientation:
 ---------------------------------------------------------------------
 Center     Atomic      Atomic             Coordinates (Angstroms)
 Number     Number       Type             X           Y           Z
 ---------------------------------------------------------------------
      1          8           0       -1.135010    2.123655   -0.416453
      2          6           0       -0.048050    1.246108   -0.475971
      3          6           0        0.513282    0.714444    0.802654
      4          6           0        1.925812    0.151360    0.825558
      5          6           0        2.025474   -0.741061   -0.434373
      6          6           0        0.590931   -1.256285   -0.696212
      7          6           0       -0.337286   -0.199205   -0.115258
      8          6           0       -1.699190   -0.590442    0.308905
      9          8           0       -2.120276   -1.723179    0.243073
     10          1           0       -0.819755    2.964144   -0.067672
     11          1           0        0.619539    1.410314   -1.323061
     12          1           0        0.069596    1.094662    1.717602
     13          1           0        2.694717    0.931623    0.843332
     14          1           0        2.052838   -0.446717    1.735038
     15          1           0        2.375332   -0.146971   -1.284780
     16          1           0        2.743150   -1.555638   -0.308993
     17          1           0        0.404567   -1.442084   -1.758570
     18          1           0        0.396162   -2.196286   -0.170866
     19          1           0       -2.319701    0.233631    0.713192
 ---------------------------------------------------------------------

 SCF Done:  E(RB3LYP) =  -423.196791708     A.U. after    1 cycles

 The electronic state is 1-A.
 Alpha  occ. eigenvalues --  -19.15797 -19.12270 -10.25686 -10.25126 -10.20638
 Alpha  occ. eigenvalues --  -10.20169 -10.19545 -10.18932 -10.18494  -1.04438
 Alpha  occ. eigenvalues --   -1.02900  -0.88948  -0.77025  -0.72362  -0.64901
 Alpha  occ. eigenvalues --   -0.61983  -0.57989  -0.54468  -0.51608  -0.48682
 Alpha  occ. eigenvalues --   -0.47055  -0.46047  -0.43097  -0.41698  -0.39903
 Alpha  occ. eigenvalues --   -0.38437  -0.37543  -0.35161  -0.34699  -0.33966
 Alpha  occ. eigenvalues --   -0.32728  -0.28513  -0.26485  -0.23844
 Alpha virt. eigenvalues --   -0.01155   0.06602   0.08457   0.09901   0.12766
 Alpha virt. eigenvalues --    0.13081   0.13948   0.14892   0.15767   0.16827
 Alpha virt. eigenvalues --    0.18904   0.19082   0.19880   0.21907   0.23262

 Mulliken charges:
               1
     1  O   -0.426895
     2  C    0.048237
     3  C   -0.136770
     4  C   -0.222395
     5  C   -0.233067
     6  C   -0.278953
     7  C    0.219129
     8  C    0.080091
     9  O   -0.279334
    10  H    0.291512
    11  H    0.094129
    12  H    0.096976
    13  H    0.102409
    14  H    0.111568
    15  H    0.106815
    16  H    0.106037
    17  H    0.107801
    18  H    0.125965
    19  H    0.086746
 Sum of Mulliken charges =   0.00000

 Dipole moment (field-independent basis, Debye):
    X=              3.1774    Y=              2.9041    Z=              0.5452  Tot=              4.3390
 Quadrupole moment (field-independent basis, Debye-Ang):
   XX=            -58.4248   YY=            -52.3401   ZZ=            -51.8391
   XY=             -4.4096   XZ=             -0.9372   YZ=              1.9556

  Exact polarizability:  84.000   2.405  81.722  -0.947   2.868  63.668
 Approx polarizability: 115.915  11.228 126.700   0.712   3.283  97.991

                      1                      2                      3
                      A                      A                      A
 Frequencies --    101.4716               198.2824               202.5927
 Red. masses --      4.6743                 2.9559                 1.9995
 Frc consts  --      0.0284                 0.0685                 0.0484
 IR Inten    --      1.9888                 3.1823                 1.6751

                      4                      5                      6
                      A                      A                      A
 Frequencies --    217.5696               254.4784               285.9028
 Red. masses --      3.2000                 2.3029                 1.6449
 Frc consts  --      0.0892                 0.0879                 0.0792
 IR Inten    --      0.3109                30.8752                28.5862

                      7                      8                      9
                      A                      A                      A
 Frequencies --    310.8816               350.3189               452.1510
 Red. masses --      2.3134                 2.0980                 4.7404
 Frc consts  --      0.1317                 0.1517                 0.5710
 IR Inten    --     51.2489                 5.5765                 3.5453

                     10                     11                     12
                      A                      A                      A
 Frequencies --    548.5845               616.4580               634.8014
 Red. masses --      4.4064                 4.0138                 2.1001
 Frc consts  --      0.7813                 0.8987                 0.4986
 IR Inten    --      5.5093                19.3719                 1.1092

                     13                     14                     15
                      A                      A                      A
 Frequencies --    749.7702               779.8351               856.9181
 Red. masses --      2.8812                 3.9542                 2.1598
 Frc consts  --      0.9543                 1.4168                 0.9344
 IR Inten    --     19.6287                 2.8109                 1.3280

                     16                     17                     18
                      A                      A                      A
 Frequencies --    877.5134               907.6776               951.2397
 Red. masses --      2.0370                 1.9643                 1.9055
 Frc consts  --      0.9242                 0.9535                 1.0158
 IR Inten    --      1.3844                 3.1136                14.3610

                     19                     20                     21
                      A                      A                      A
 Frequencies --    972.7099              1010.6700              1043.6156
 Red. masses --      1.6014                 2.0350                 1.4296
 Frc consts  --      0.8927                 1.2247                 0.9174
 IR Inten    --     12.9617                23.8419                10.5238

                     22                     23                     24
                      A                      A                      A
 Frequencies --   1055.4820              1064.2991              1088.2898
 Red. masses --      2.1709                 1.4011                 2.0358
 Frc consts  --      1.4249                 0.9351                 1.4206
 IR Inten    --     20.4029                 5.3306                 7.1972

                     25                     26                     27
                      A                      A                      A
 Frequencies --   1151.9403              1173.5950              1193.3783
 Red. masses --      3.1167                 1.4889                 1.4694
 Frc consts  --      2.4367                 1.2082                 1.2329
 IR Inten    --     45.3677                 3.0113                 4.4315

                     28                     29                     30
                      A                      A                      A
 Frequencies --   1243.6399              1260.0312              1270.4285
 Red. masses --      1.4646                 1.5665                 1.6970
 Frc consts  --      1.3346                 1.4653                 1.6137
 IR Inten    --     11.9537                19.3186                14.6195

                     31                     32                     33
                      A                      A                      A
 Frequencies --   1297.8868              1305.9917              1339.9171
 Red. masses --      1.4525                 1.4441                 1.3689
 Frc consts  --      1.4415                 1.4512                 1.4481
 IR Inten    --     59.8105                 4.3479                 1.0204

                     34                     35                     36
                      A                      A                      A
 Frequencies --   1344.9590              1379.6730              1428.9930
 Red. masses --      1.4144                 1.8488                 1.2737
 Frc consts  --      1.5074                 2.0735                 1.5324
 IR Inten    --      9.6489                15.8536                11.1574

                     37                     38                     39
                      A                      A                      A
 Frequencies --   1457.5912              1491.5546              1495.3815
 Red. masses --      2.1460                 1.0898                 1.0838
 Frc consts  --      2.6863                 1.4285                 1.4280
 IR Inten    --     15.0006                 2.4529                 5.2287

                     40                     41                     42
                      A                      A                      A
 Frequencies --   1514.1831              1795.5537              2937.5513
 Red. masses --      1.1060                10.1013                 1.0839
 Frc consts  --      1.4941                19.1878                 5.5106
 IR Inten    --      1.7216               234.9519                71.7260

                     43                     44                     45
                      A                      A                      A
 Frequencies --   3036.6523              3048.9757              3055.7164
 Red. masses --      1.0589                 1.0691                 1.0627
 Frc consts  --      5.7531                 5.8555                 5.8464
 IR Inten    --     39.2536                 9.1678                21.3488

                     46                     47                     48
                      A                      A                      A
 Frequencies --   3074.2329              3089.0677              3091.0868
 Red. masses --      1.0984                 1.0920                 1.0959
 Frc consts  --      6.1161                 6.1393                 6.1694
 IR Inten    --     26.5600                38.1714                 5.3569

                     49                     50                     51
                      A                      A                      A
 Frequencies --   3106.4306              3164.0880              3805.3145
 Red. masses --      1.1030                 1.0893                 1.0663
 Frc consts  --      6.2710                 6.4255                 9.0975
 IR Inten    --     41.9309                10.6477                28.4146

 - Thermochemistry -
 -------------------
 Temperature   298.150 Kelvin.  Pressure   1.00000 Atm.
 Atom     1 has atomic number  8 and mass  15.99491

 Molecular mass:   126.06808 amu.
 Principal axes and moments of inertia in atomic units:
                           1         2         3
     Eigenvalues --   865.860591096.170981636.68086
           X            0.99506  -0.09908  -0.00594
           Y            0.09919   0.99479   0.02353
           Z            0.00358  -0.02400   0.99971
 This molecule is an asymmetric top.
 Rotational symmetry number  1.
 Warning -- assumption of classical behavior for rotation
           may cause significant error
 Rotational temperatures (Kelvin)      0.10003     0.07901     0.05292
 Rotational constants (GHZ):           2.08433     1.64640     1.10268
 Zero-point vibrational energy     419203.3 (Joules/Mol)
                                  100.19200 (Kcal/Mol)
 Warning -- explicit consideration of  11 degrees of freedom as
           vibrations may cause significant error
 Vibrational temperatures:    145.99   285.28   291.49   313.03   366.14
          (Kelvin)            411.35   447.29   504.03   650.54   789.29
                              886.94   913.34  1078.75  1122.01  1232.91
                             1262.54  1305.94  1368.62  1399.51  1454.13
                             1501.53  1518.60  1531.29  1565.80  1657.38
                             1688.54  1717.00  1789.32  1812.90  1827.86
                             1867.37  1879.03  1927.84  1935.09  1985.04
                             2056.00  2097.15  2146.01  2151.52  2178.57
                             2583.40  4226.48  4369.06  4386.79  4396.49
                             4423.13  4444.47  4447.38  4469.46  4552.41
                             5474.99

 Zero-point correction=                           0.159666 (Hartree/Particle)
 Thermal correction to Energy=                    0.168079
 Thermal correction to Enthalpy=                  0.169023
 Thermal correction to Gibbs Free Energy=         0.126865
 Sum of electronic and zero-point Energies=           -423.037126
 Sum of electronic and thermal Energies=              -423.028713
 Sum of electronic and thermal Enthalpies=            -423.027768
 Sum of electronic and thermal Free Energies=         -423.069926

                     E (Thermal)             CV                S
                      KCal/Mol        Cal/Mol-Kelvin    Cal/Mol-Kelvin
 Total                  105.471             32.286             88.729
 Electronic               0.000              0.000              0.000
 Translational            0.889              2.981             40.409
 Rotational               0.889              2.981             28.831
 Vibrational            103.694             26.324             19.489
 Vibration     1          0.604              1.948              3.426
 Vibration     2          0.637              1.842              2.149
 Vibration     3          0.639              1.836              2.109
 Vibration     4          0.646              1.814              1.979
 Vibration     5          0.665              1.755              1.699
 Vibration     6          0.684              1.700              1.498
 Vibration     7          0.700              1.653              1.358
 Vibration     8          0.727              1.575              1.165
 Vibration     9          0.811              1.356              0.789
 Vibration    10          0.904              1.143              0.547
 Vibration    11          0.976              0.997              0.422

 Optimization completed.
    -- Stationary point found.
 Normal termination of Gaussian 09 at Tue Jan 28 00:46:49 2020.
