 Gaussian 09, Revision D.01,
 Gaussian 09:  ES64L-G09RevD.01 24-Apr-2013

 -----------------------------
 # b3lyp 6-31G(2df,p) opt Freq
 -----------------------------

 -----
 titel
 -----
 Symbolic Z-matrix:
 Charge =  0 Multiplicity = 1

 SCF Done:  E(RB3LYP) =  -423.153471708     A.U. after   13 cycles
 Optimization completed.
    -- Stationary point found.
 Normal termination of Gaussian 09 at Mon Jan 27 11:18:02 2020.

 ----------------------------------------------------------------------
 #N Geom=AllCheck Guess=TCheck SCRF=Check GenChk RB3LYP/6-31G(2df,p) Fr
 eq
 ----------------------------------------------------------------------

 Structure from the checkpoint file:  "/scratch/puck/g09_ad6d9fbd-b140-47fa-a6d5-3a3d0db90aa7/Gau-49380.chk"
 -----
 titel
 -----
 Charge =  0 Multiplicity = 1

                         Standard orientation:
 ---------------------------------------------------------------------
 Center     Atomic      Atomic             Coordinates (Angstroms)
 Number     Number       Type             X           Y           Z
 ---------------------------------------------------------------------
      1          6           0       -1.910321    0.817764   -0.408673
      2          6           0       -1.903359   -0.753191   -0.525943
      3          6           0       -0.504644   -0.742804    0.113900
      4          6           0        0.768820   -1.488850   -0.153635
      5          8           0        1.891024   -0.658663    0.119656
      6          6           0        1.839558    0.610807   -0.514375
      7          6           0        0.754592    1.534851    0.082536
      8          6           0       -0.507120    0.725657    0.216912
      9          8           0       -0.626747   -0.098218    1.386137
     10          1           0       -1.917406    1.306417   -1.386421
     11          1           0       -2.676978    1.266325    0.227593
     12          1           0       -2.667172   -1.296364    0.034852
     13          1           0       -1.903651   -1.092181   -1.564873
     14          1           0        0.887581   -2.371647    0.482496
     15          1           0        0.774944   -1.819452   -1.206784
     16          1           0        2.835561    1.044768   -0.391228
     17          1           0        1.655047    0.483564   -1.594617
     18          1           0        1.067825    1.909211    1.061841
     19          1           0        0.604872    2.398999   -0.573535
 ---------------------------------------------------------------------

 SCF Done:  E(RB3LYP) =  -423.153471708     A.U. after    1 cycles

 The electronic state is 1-A.
 Alpha  occ. eigenvalues --  -19.14402 -19.14121 -10.23476 -10.23341 -10.23266
 Alpha  occ. eigenvalues --  -10.22940 -10.19351 -10.19232 -10.19049  -1.07774
 Alpha  occ. eigenvalues --   -1.02833  -0.80258  -0.77808  -0.71909  -0.66724
 Alpha  occ. eigenvalues --   -0.60629  -0.60262  -0.52104  -0.51003  -0.48882
 Alpha  occ. eigenvalues --   -0.46747  -0.45569  -0.44196  -0.41960  -0.40712
 Alpha  occ. eigenvalues --   -0.38104  -0.37469  -0.36345  -0.35384  -0.33870
 Alpha  occ. eigenvalues --   -0.30223  -0.27576  -0.25858  -0.24384
 Alpha virt. eigenvalues --    0.07757   0.08576   0.11182   0.11323   0.12095
 Alpha virt. eigenvalues --    0.13198   0.13905   0.14548   0.16251   0.16617
 Alpha virt. eigenvalues --    0.17724   0.18275   0.18939   0.19488   0.22025

 Mulliken charges:
               1
     1  C   -0.296371
     2  C   -0.300732
     3  C    0.315269
     4  C   -0.185616
     5  O   -0.242046
     6  C   -0.068039
     7  C   -0.325723
     8  C    0.344223
     9  O   -0.308675
    10  H    0.105131
    11  H    0.110874
    12  H    0.111553
    13  H    0.106253
    14  H    0.119438
    15  H    0.090766
    16  H    0.111439
    17  H    0.084248
    18  H    0.124752
    19  H    0.103256
 Sum of Mulliken charges =   0.00000

 Dipole moment (field-independent basis, Debye):
    X=             -0.6248    Y=              0.6845    Z=             -2.4128  Tot=              2.5847
 Quadrupole moment (field-independent basis, Debye-Ang):
   XX=            -54.5329   YY=            -49.4947   ZZ=            -55.2987
   XY=              2.3209   XZ=              0.2279   YZ=              0.3230

  Exact polarizability:  79.894   2.341  78.910   1.157   0.403  64.217
 Approx polarizability: 104.501   2.109 115.739   2.534  -0.618 105.803

                      1                      2                      3
                      A                      A                      A
 Frequencies --    133.1455               203.9365               293.8867
 Red. masses --      2.6920                 1.9068                 3.0125
 Frc consts  --      0.0281                 0.0467                 0.1533
 IR Inten    --      0.4522                 0.1483                 1.3442

                      4                      5                      6
                      A                      A                      A
 Frequencies --    314.4663               356.2999               406.9974
 Red. masses --      2.1629                 2.0194                 4.8493
 Frc consts  --      0.1260                 0.1510                 0.4733
 IR Inten    --      3.4891                 2.5588                 3.3966

                      7                      8                      9
                      A                      A                      A
 Frequencies --    458.5806               521.9624               543.0025
 Red. masses --      3.3756                 3.8920                 3.5742
 Frc consts  --      0.4182                 0.6247                 0.6209
 IR Inten    --      1.6242                 5.1109                10.3975

                     10                     11                     12
                      A                      A                      A
 Frequencies --    681.7302               740.8189               749.1762
 Red. masses --      2.5777                 4.4901                 4.0449
 Frc consts  --      0.7059                 1.4519                 1.3376
 IR Inten    --      3.0792                11.2439                 5.3294

                     13                     14                     15
                      A                      A                      A
 Frequencies --    769.1228               835.7013               891.0945
 Red. masses --      1.3050                 2.4892                 3.3299
 Frc consts  --      0.4548                 1.0243                 1.5578
 IR Inten    --      0.8228                 9.3898                24.0422

                     16                     17                     18
                      A                      A                      A
 Frequencies --    911.1873               925.8623               965.4527
 Red. masses --      2.9784                 2.8416                 2.8937
 Frc consts  --      1.4569                 1.4352                 1.5892
 IR Inten    --      3.9784                 2.4914                12.9100

                     19                     20                     21
                      A                      A                      A
 Frequencies --    988.2827              1017.2175              1039.3101
 Red. masses --      1.7483                 1.6170                 3.7837
 Frc consts  --      1.0061                 0.9858                 2.4080
 IR Inten    --      1.9272                 2.7304                 1.4640

                     22                     23                     24
                      A                      A                      A
 Frequencies --   1104.8034              1114.4105              1139.9130
 Red. masses --      4.4798                 2.1668                 1.6194
 Frc consts  --      3.2217                 1.5854                 1.2398
 IR Inten    --     75.1677                 1.0377                 6.6986

                     25                     26                     27
                      A                      A                      A
 Frequencies --   1177.0398              1194.1065              1219.0701
 Red. masses --      1.9109                 2.0017                 1.2427
 Frc consts  --      1.5598                 1.6817                 1.0881
 IR Inten    --      8.9779                10.5019                 2.1401

                     28                     29                     30
                      A                      A                      A
 Frequencies --   1224.2437              1259.1869              1267.0104
 Red. masses --      1.3698                 1.2211                 1.5861
 Frc consts  --      1.2096                 1.1407                 1.5002
 IR Inten    --      2.3553                13.0452                 8.8739

                     31                     32                     33
                      A                      A                      A
 Frequencies --   1291.3882              1317.8172              1365.9054
 Red. masses --      1.5860                 1.3860                 1.5187
 Frc consts  --      1.5583                 1.4181                 1.6694
 IR Inten    --     10.4330                14.6258                 2.6792

                     34                     35                     36
                      A                      A                      A
 Frequencies --   1388.1263              1418.5292              1454.0593
 Red. masses --      1.4273                 1.3947                 2.2709
 Frc consts  --      1.6204                 1.6535                 2.8289
 IR Inten    --      2.1600                 8.5554                12.1830

                     37                     38                     39
                      A                      A                      A
 Frequencies --   1463.9360              1469.8889              1485.0733
 Red. masses --      1.0948                 1.0930                 1.1052
 Frc consts  --      1.3824                 1.3914                 1.4361
 IR Inten    --      0.0025                 2.8568                 0.6682

                     40                     41                     42
                      A                      A                      A
 Frequencies --   1495.8318              1500.2333              2959.5342
 Red. masses --      1.1129                 1.6081                 1.0706
 Frc consts  --      1.4672                 2.1324                 5.5251
 IR Inten    --      3.6012                 3.6003                24.9882

                     43                     44                     45
                      A                      A                      A
 Frequencies --   2964.1877              3047.8889              3060.5948
 Red. masses --      1.0704                 1.0596                 1.0566
 Frc consts  --      5.5410                 5.7994                 5.8313
 IR Inten    --     85.2681                19.4602                38.3873

                     46                     47                     48
                      A                      A                      A
 Frequencies --   3068.6160              3075.0693              3087.7464
 Red. masses --      1.0595                 1.0909                 1.0936
 Frc consts  --      5.8781                 6.0776                 6.1434
 IR Inten    --     38.1357                30.9015                27.7267

                     49                     50                     51
                      A                      A                      A
 Frequencies --   3097.6647              3112.1951              3129.0707
 Red. masses --      1.1028                 1.1090                 1.1083
 Frc consts  --      6.2346                 6.3286                 6.3932
 IR Inten    --     25.7359                 1.4510                36.8597

 - Thermochemistry -
 -------------------
 Temperature   298.150 Kelvin.  Pressure   1.00000 Atm.
 Atom     1 has atomic number  6 and mass  12.00000

 Molecular mass:   126.06808 amu.
 Principal axes and moments of inertia in atomic units:
                           1         2         3
     Eigenvalues --   610.071521063.185991311.25017
           X            0.99963   0.02613   0.00781
           Y           -0.02620   0.99962   0.00882
           Z           -0.00757  -0.00902   0.99993
 This molecule is an asymmetric top.
 Rotational symmetry number  1.
 Warning -- assumption of classical behavior for rotation
           may cause significant error
 Rotational temperatures (Kelvin)      0.14197     0.08147     0.06605
 Rotational constants (GHZ):           2.95825     1.69748     1.37635
 Zero-point vibrational energy     422882.1 (Joules/Mol)
                                  101.07126 (Kcal/Mol)
 Warning -- explicit consideration of   9 degrees of freedom as
           vibrations may cause significant error
 Vibrational temperatures:    191.57   293.42   422.84   452.45   512.64
          (Kelvin)            585.58   659.79   750.99   781.26   980.86
                             1065.87  1077.90  1106.59  1202.39  1282.08
                             1310.99  1332.11  1389.07  1421.92  1463.55
                             1495.33  1589.56  1603.39  1640.08  1693.50
                             1718.05  1753.97  1761.41  1811.69  1822.94
                             1858.02  1896.04  1965.23  1997.20  2040.94
                             2092.06  2106.27  2114.84  2136.69  2152.17
                             2158.50  4258.10  4264.80  4385.23  4403.51
                             4415.05  4424.33  4442.57  4456.84  4477.75
                             4502.03

 Zero-point correction=                           0.161067 (Hartree/Particle)
 Thermal correction to Energy=                    0.168285
 Thermal correction to Enthalpy=                  0.169229
 Thermal correction to Gibbs Free Energy=         0.129765
 Sum of electronic and zero-point Energies=           -422.992404
 Sum of electronic and thermal Energies=              -422.985187
 Sum of electronic and thermal Enthalpies=            -422.984243
 Sum of electronic and thermal Free Energies=         -423.023707

                     E (Thermal)             CV                S
                      KCal/Mol        Cal/Mol-Kelvin    Cal/Mol-Kelvin
 Total                  105.600             29.425             83.060
 Electronic               0.000              0.000              0.000
 Translational            0.889              2.981             40.409
 Rotational               0.889              2.981             28.233
 Vibrational            103.823             23.463             14.419
 Vibration     1          0.613              1.920              2.900
 Vibration     2          0.640              1.834              2.097
 Vibration     3          0.689              1.685              1.451
 Vibration     4          0.702              1.646              1.339
 Vibration     5          0.732              1.562              1.138
 Vibration     6          0.772              1.455              0.937
 Vibration     7          0.817              1.342              0.770
 Vibration     8          0.877              1.201              0.605
 Vibration     9          0.898              1.155              0.559

 Normal termination of Gaussian 09 at Mon Jan 27 12:07:49 2020.
