 Gaussian 09, Revision D.01,
 Gaussian 09:  ES64L-G09RevD.01 24-Apr-2013

 -----------------------------
 # b3lyp 6-31G(2df,p) opt Freq
 -----------------------------

 -----
 titel
 -----
 Symbolic Z-matrix:
 Charge =  0 Multiplicity = 1

 SCF Done:  E(RB3LYP) =  -423.222103049     A.U. after   14 cycles
 Optimization completed.
    -- Stationary point found.
 Normal termination of Gaussian 09 at Tue Jan 28 00:42:20 2020.

 ----------------------------------------------------------------------
 #N Geom=AllCheck Guess=TCheck SCRF=Check GenChk RB3LYP/6-31G(2df,p) Fr
 eq
 ----------------------------------------------------------------------

 Structure from the checkpoint file:  "/scratch/puck/g09_38cd7eac-3623-45db-b389-b8ca1b718299/Gau-81423.chk"
 -----
 titel
 -----
 Charge =  0 Multiplicity = 1

                         Standard orientation:
 ---------------------------------------------------------------------
 Center     Atomic      Atomic             Coordinates (Angstroms)
 Number     Number       Type             X           Y           Z
 ---------------------------------------------------------------------
      1          6           0        2.298498   -0.278594   -0.806017
      2          6           0        1.558333    0.319052    0.412045
      3          6           0        0.652904   -0.694000    1.138909
      4          6           0       -0.700285   -0.917559    0.472883
      5          8           0       -0.520782   -1.712458   -0.700923
      6          6           0       -1.391874    0.387517    0.044996
      7          8           0       -2.584435    0.379430   -0.203316
      8          6           0       -0.549411    1.576002   -0.149987
      9          6           0        0.782327    1.539377   -0.000063
     10          1           0        2.945916   -1.100968   -0.485751
     11          1           0        1.583929   -0.668006   -1.532938
     12          1           0        2.926071    0.475019   -1.292958
     13          1           0        2.328271    0.648392    1.123022
     14          1           0        1.161163   -1.658378    1.242603
     15          1           0        0.457868   -0.322585    2.151919
     16          1           0       -1.379051   -1.427571    1.171562
     17          1           0       -1.384643   -1.778469   -1.125718
     18          1           0       -1.066669    2.474275   -0.473226
     19          1           0        1.365934    2.431745   -0.221197
 ---------------------------------------------------------------------

 SCF Done:  E(RB3LYP) =  -423.222103049     A.U. after    1 cycles

 The electronic state is 1-A.
 Alpha  occ. eigenvalues --  -19.14552 -19.12660 -10.26230 -10.23669 -10.21311
 Alpha  occ. eigenvalues --  -10.20560 -10.19225 -10.19054 -10.17947  -1.04232
 Alpha  occ. eigenvalues --   -1.01673  -0.84362  -0.76104  -0.74433  -0.66570
 Alpha  occ. eigenvalues --   -0.61810  -0.59093  -0.53100  -0.50957  -0.47311
 Alpha  occ. eigenvalues --   -0.46557  -0.43849  -0.42636  -0.41586  -0.41279
 Alpha  occ. eigenvalues --   -0.39237  -0.37970  -0.36586  -0.34938  -0.33998
 Alpha  occ. eigenvalues --   -0.32708  -0.28913  -0.27151  -0.23604
 Alpha virt. eigenvalues --   -0.05596   0.05262   0.08019   0.09886   0.12410
 Alpha virt. eigenvalues --    0.13151   0.13833   0.15610   0.16722   0.17225
 Alpha virt. eigenvalues --    0.18704   0.19037   0.20239   0.21553   0.22127

 Mulliken charges:
               1
     1  C   -0.389585
     2  C   -0.034951
     3  C   -0.253651
     4  C    0.034528
     5  O   -0.430769
     6  C    0.351108
     7  O   -0.351652
     8  C   -0.152569
     9  C   -0.043705
    10  H    0.117210
    11  H    0.149073
    12  H    0.109576
    13  H    0.084800
    14  H    0.111037
    15  H    0.106429
    16  H    0.084506
    17  H    0.293476
    18  H    0.106882
    19  H    0.108258
 Sum of Mulliken charges =   0.00000

 Dipole moment (field-independent basis, Debye):
    X=              2.4387    Y=              0.5244    Z=              0.7718  Tot=              2.6111
 Quadrupole moment (field-independent basis, Debye-Ang):
   XX=            -58.3485   YY=            -51.7051   ZZ=            -51.9429
   XY=              3.9555   XZ=              0.7834   YZ=             -0.6490

  Exact polarizability: 100.112   1.616  75.652   1.615  -2.695  60.740
 Approx polarizability: 164.452   4.737 106.992   6.488  -0.827  91.833

                      1                      2                      3
                      A                      A                      A
 Frequencies --     45.7088               155.8864               205.6349
 Red. masses --      5.3022                 3.1915                 3.8374
 Frc consts  --      0.0065                 0.0457                 0.0956
 IR Inten    --      4.3321                 2.7541                 3.7785

                      4                      5                      6
                      A                      A                      A
 Frequencies --    243.4567               264.2747               310.1341
 Red. masses --      1.0874                 3.8649                 3.7295
 Frc consts  --      0.0380                 0.1590                 0.2113
 IR Inten    --      0.7910                 1.4408                 4.1276

                      7                      8                      9
                      A                      A                      A
 Frequencies --    372.5081               404.4647               428.2077
 Red. masses --      1.9400                 2.2395                 1.3069
 Frc consts  --      0.1586                 0.2159                 0.1412
 IR Inten    --      1.1832                20.1591               101.9264

                     10                     11                     12
                      A                      A                      A
 Frequencies --    462.2781               524.8919               590.6588
 Red. masses --      4.3064                 3.9306                 4.4799
 Frc consts  --      0.5422                 0.6380                 0.9209
 IR Inten    --      4.1442                12.0575                 6.5027

                     13                     14                     15
                      A                      A                      A
 Frequencies --    699.0352               741.4228               774.0959
 Red. masses --      3.6570                 2.9306                 2.6508
 Frc consts  --      1.0529                 0.9491                 0.9359
 IR Inten    --      1.2369                 6.0815                 3.9084

                     16                     17                     18
                      A                      A                      A
 Frequencies --    838.1182               884.2889               914.2022
 Red. masses --      1.8005                 2.7307                 2.0455
 Frc consts  --      0.7452                 1.2581                 1.0072
 IR Inten    --     11.6631                27.8815                 3.8133

                     19                     20                     21
                      A                      A                      A
 Frequencies --    955.1723               978.0143              1031.7285
 Red. masses --      2.5103                 2.5301                 1.2962
 Frc consts  --      1.3494                 1.4259                 0.8130
 IR Inten    --      1.8771                 4.8875                 1.1746

                     22                     23                     24
                      A                      A                      A
 Frequencies --   1040.4630              1062.0621              1118.4038
 Red. masses --      1.9212                 1.6583                 2.2991
 Frc consts  --      1.2254                 1.1021                 1.6943
 IR Inten    --     35.6277                 5.3348                 7.2306

                     25                     26                     27
                      A                      A                      A
 Frequencies --   1131.8331              1156.5872              1231.7632
 Red. masses --      1.8571                 1.2707                 1.2360
 Frc consts  --      1.4017                 1.0015                 1.1049
 IR Inten    --     39.8169                 7.2208                50.8413

                     28                     29                     30
                      A                      A                      A
 Frequencies --   1249.5325              1280.5539              1329.2505
 Red. masses --      1.2451                 1.6825                 1.3284
 Frc consts  --      1.1454                 1.6256                 1.3829
 IR Inten    --      7.6765                19.8545                 6.2834

                     31                     32                     33
                      A                      A                      A
 Frequencies --   1355.9494              1359.9513              1385.7248
 Red. masses --      1.6999                 1.4089                 1.4211
 Frc consts  --      1.8414                 1.5352                 1.6078
 IR Inten    --      2.6941                 8.0406                 3.6916

                     34                     35                     36
                      A                      A                      A
 Frequencies --   1400.6857              1417.7802              1427.4639
 Red. masses --      1.3547                 1.5775                 1.5045
 Frc consts  --      1.5659                 1.8683                 1.8062
 IR Inten    --      9.2934                 5.8348                19.8123

                     37                     38                     39
                      A                      A                      A
 Frequencies --   1472.2364              1494.5520              1505.4727
 Red. masses --      1.0964                 1.0489                 1.0620
 Frc consts  --      1.4001                 1.3804                 1.4181
 IR Inten    --      4.2144                 4.9402                 5.2599

                     40                     41                     42
                      A                      A                      A
 Frequencies --   1677.2604              1763.5405              2997.4918
 Red. masses --      6.8500                11.4684                 1.0827
 Frc consts  --     11.3538                21.0148                 5.7318
 IR Inten    --     26.4695               221.4441                35.5736

                     43                     44                     45
                      A                      A                      A
 Frequencies --   3005.9744              3037.9092              3041.3968
 Red. masses --      1.0818                 1.0422                 1.0574
 Frc consts  --      5.7592                 5.6668                 5.7629
 IR Inten    --     22.4475                42.8158                26.2053

                     46                     47                     48
                      A                      A                      A
 Frequencies --   3082.2520              3102.7749              3140.4686
 Red. masses --      1.1022                 1.1016                 1.0872
 Frc consts  --      6.1694                 6.2487                 6.3178
 IR Inten    --     18.4049                26.4795                11.8444

                     49                     50                     51
                      A                      A                      A
 Frequencies --   3145.7359              3183.8971              3790.1729
 Red. masses --      1.0997                 1.0945                 1.0659
 Frc consts  --      6.4118                 6.5371                 9.0215
 IR Inten    --     10.4079                11.1978                29.0688

 - Thermochemistry -
 -------------------
 Temperature   298.150 Kelvin.  Pressure   1.00000 Atm.
 Atom     1 has atomic number  6 and mass  12.00000

 Molecular mass:   126.06808 amu.
 Principal axes and moments of inertia in atomic units:
                           1         2         3
     Eigenvalues --   719.290701191.618781542.89175
           X            0.99988   0.01134  -0.01054
           Y           -0.01160   0.99962  -0.02498
           Z            0.01025   0.02510   0.99963
 This molecule is an asymmetric top.
 Rotational symmetry number  1.
 Warning -- assumption of classical behavior for rotation
           may cause significant error
 Rotational temperatures (Kelvin)      0.12042     0.07269     0.05614
 Rotational constants (GHZ):           2.50906     1.51453     1.16971
 Zero-point vibrational energy     419968.9 (Joules/Mol)
                                  100.37498 (Kcal/Mol)
 Warning -- explicit consideration of  12 degrees of freedom as
           vibrations may cause significant error
 Vibrational temperatures:     65.76   224.29   295.86   350.28   380.23
          (Kelvin)            446.21   535.96   581.93   616.09   665.11
                              755.20   849.83  1005.75  1066.74  1113.75
                             1205.86  1272.29  1315.33  1374.28  1407.14
                             1484.43  1496.99  1528.07  1609.13  1628.45
                             1664.07  1772.23  1797.80  1842.43  1912.49
                             1950.91  1956.66  1993.75  2015.27  2039.87
                             2053.80  2118.22  2150.32  2166.04  2413.20
                             2537.34  4312.72  4324.92  4370.87  4375.89
                             4434.67  4464.20  4518.43  4526.01  4580.91
                             5453.21

 Zero-point correction=                           0.159958 (Hartree/Particle)
 Thermal correction to Energy=                    0.168571
 Thermal correction to Enthalpy=                  0.169515
 Thermal correction to Gibbs Free Energy=         0.126571
 Sum of electronic and zero-point Energies=           -423.062145
 Sum of electronic and thermal Energies=              -423.053532
 Sum of electronic and thermal Enthalpies=            -423.052588
 Sum of electronic and thermal Free Energies=         -423.095532

                     E (Thermal)             CV                S
                      KCal/Mol        Cal/Mol-Kelvin    Cal/Mol-Kelvin
 Total                  105.780             32.872             90.383
 Electronic               0.000              0.000              0.000
 Translational            0.889              2.981             40.409
 Rotational               0.889              2.981             28.671
 Vibrational            104.002             26.910             21.303
 Vibration     1          0.595              1.979              4.995
 Vibration     2          0.620              1.896              2.599
 Vibration     3          0.640              1.832              2.082
 Vibration     4          0.659              1.774              1.777
 Vibration     5          0.671              1.738              1.633
 Vibration     6          0.699              1.654              1.362
 Vibration     7          0.744              1.529              1.069
 Vibration     8          0.770              1.460              0.946
 Vibration     9          0.790              1.409              0.865
 Vibration    10          0.820              1.334              0.760
 Vibration    11          0.880              1.195              0.599
 Vibration    12          0.948              1.052              0.466

 Optimization completed.
    -- Stationary point found.
 Normal termination of Gaussian 09 at Tue Jan 28 01:26:56 2020.
