 Gaussian 09, Revision D.01,
 Gaussian 09:  ES64L-G09RevD.01 24-Apr-2013

 -----------------------------
 # b3lyp 6-31G(2df,p) opt Freq
 -----------------------------

 -----
 titel
 -----
 Symbolic Z-matrix:
 Charge =  0 Multiplicity = 1

 SCF Done:  E(RB3LYP) =  -423.184907161     A.U. after   14 cycles
 Optimization completed.
    -- Stationary point found.
 Normal termination of Gaussian 09 at Mon Jan 27 13:38:29 2020.

 ----------------------------------------------------------------------
 #N Geom=AllCheck Guess=TCheck SCRF=Check GenChk RB3LYP/6-31G(2df,p) Fr
 eq
 ----------------------------------------------------------------------

 Structure from the checkpoint file:  "/scratch/puck/g09_5c18cf69-b35c-4803-a844-d52e2ce4140d/Gau-102198.chk"
 -----
 titel
 -----
 Charge =  0 Multiplicity = 1

                         Standard orientation:
 ---------------------------------------------------------------------
 Center     Atomic      Atomic             Coordinates (Angstroms)
 Number     Number       Type             X           Y           Z
 ---------------------------------------------------------------------
      1          8           0        3.227638   -0.643486    0.124429
      2          6           0        2.196559   -0.142397    0.489989
      3          6           0        1.355709    0.814725   -0.334674
      4          6           0       -0.113992    0.453975   -0.340139
      5          6           0       -1.185648    1.513858   -0.421467
      6          6           0       -1.051369    0.683899    0.829960
      7          6           0       -1.932588   -0.549512    0.898463
      8          8           0       -1.833827   -1.156757   -0.387637
      9          6           0       -0.532391   -0.901676   -0.900491
     10          1           0        1.783730   -0.351671    1.504643
     11          1           0        1.478917    1.811623    0.111992
     12          1           0        1.772891    0.857155   -1.346503
     13          1           0       -0.863312    2.548321   -0.371005
     14          1           0       -2.039419    1.332733   -1.067096
     15          1           0       -0.715790    1.144360    1.752137
     16          1           0       -1.576601   -1.228551    1.690542
     17          1           0       -2.992515   -0.339016    1.074992
     18          1           0        0.183544   -1.678330   -0.580510
     19          1           0       -0.599610   -0.931911   -1.993382
 ---------------------------------------------------------------------

 SCF Done:  E(RB3LYP) =  -423.184907161     A.U. after    1 cycles

 The electronic state is 1-A.
 Alpha  occ. eigenvalues --  -19.14463 -19.14376 -10.27577 -10.23500 -10.23458
 Alpha  occ. eigenvalues --  -10.21256 -10.20449 -10.20275 -10.19463  -1.05070
 Alpha  occ. eigenvalues --   -1.04394  -0.87691  -0.77078  -0.72965  -0.66332
 Alpha  occ. eigenvalues --   -0.59611  -0.58040  -0.56264  -0.51940  -0.48281
 Alpha  occ. eigenvalues --   -0.47207  -0.46060  -0.44942  -0.43665  -0.41583
 Alpha  occ. eigenvalues --   -0.40663  -0.39479  -0.38187  -0.36060  -0.32393
 Alpha  occ. eigenvalues --   -0.30436  -0.28808  -0.25961  -0.25107
 Alpha virt. eigenvalues --   -0.02692   0.08396   0.09703   0.10866   0.11197
 Alpha virt. eigenvalues --    0.11561   0.14165   0.14401   0.15351   0.15624
 Alpha virt. eigenvalues --    0.16170   0.18409   0.18842   0.19692   0.21604

 Mulliken charges:
               1
     1  O   -0.238464
     2  C    0.162186
     3  C   -0.382261
     4  C    0.314017
     5  C   -0.344210
     6  C   -0.097768
     7  C   -0.092413
     8  O   -0.252640
     9  C   -0.141568
    10  H    0.075431
    11  H    0.122807
    12  H    0.125211
    13  H    0.111627
    14  H    0.127732
    15  H    0.090930
    16  H    0.094141
    17  H    0.112709
    18  H    0.098966
    19  H    0.113567
 Sum of Mulliken charges =   0.00000

 Dipole moment (field-independent basis, Debye):
    X=             -1.3654    Y=              2.1213    Z=              0.9456  Tot=              2.6941
 Quadrupole moment (field-independent basis, Debye-Ang):
   XX=            -65.7954   YY=            -53.6921   ZZ=            -50.5378
   XY=              1.8178   XZ=             -1.1454   YZ=             -0.2691

  Exact polarizability:  85.281  -4.698  70.518  -4.676  -1.936  70.796
 Approx polarizability: 119.740  -9.765 103.845  -8.072  -0.252 108.637

                      1                      2                      3
                      A                      A                      A
 Frequencies --     58.3073                75.4156               144.4216
 Red. masses --      5.3748                 3.2236                 2.6749
 Frc consts  --      0.0108                 0.0108                 0.0329
 IR Inten    --      6.0760                 2.5107                 1.6723

                      4                      5                      6
                      A                      A                      A
 Frequencies --    249.4405               263.0306               296.2132
 Red. masses --      2.5828                 2.4244                 2.6027
 Frc consts  --      0.0947                 0.0988                 0.1345
 IR Inten    --      6.7467                 1.5565                 0.0640

                      7                      8                      9
                      A                      A                      A
 Frequencies --    391.9786               447.7255               456.0444
 Red. masses --      2.1954                 3.0911                 2.7253
 Frc consts  --      0.1987                 0.3651                 0.3339
 IR Inten    --      1.8572                 2.3965                 8.5010

                     10                     11                     12
                      A                      A                      A
 Frequencies --    597.1187               692.3653               731.3522
 Red. masses --      2.9286                 3.2042                 3.2005
 Frc consts  --      0.6152                 0.9050                 1.0086
 IR Inten    --      4.1525                 3.1023                 4.5669

                     13                     14                     15
                      A                      A                      A
 Frequencies --    797.2539               835.8013               908.2615
 Red. masses --      1.7466                 2.0477                 2.6236
 Frc consts  --      0.6541                 0.8428                 1.2752
 IR Inten    --      6.5082                 1.0062                12.1638

                     16                     17                     18
                      A                      A                      A
 Frequencies --    926.4025               939.8064               945.4030
 Red. masses --      1.5666                 3.0852                 1.9153
 Frc consts  --      0.7922                 1.6055                 1.0086
 IR Inten    --      6.5320                10.9109                 7.5496

                     19                     20                     21
                      A                      A                      A
 Frequencies --    998.5831              1042.5453              1048.5237
 Red. masses --      1.5845                 2.3124                 1.5672
 Frc consts  --      0.9309                 1.4808                 1.0151
 IR Inten    --     16.6215                12.3572                 9.9693

                     22                     23                     24
                      A                      A                      A
 Frequencies --   1077.8966              1088.4597              1100.7617
 Red. masses --      1.6074                 1.9433                 2.3373
 Frc consts  --      1.1003                 1.3565                 1.6686
 IR Inten    --     10.5674                13.6990                15.2461

                     25                     26                     27
                      A                      A                      A
 Frequencies --   1113.5186              1126.5910              1192.3795
 Red. masses --      2.2611                 2.1843                 1.4992
 Frc consts  --      1.6518                 1.6334                 1.2559
 IR Inten    --     18.0723                20.4011                 7.3648

                     28                     29                     30
                      A                      A                      A
 Frequencies --   1219.7985              1256.3530              1260.3580
 Red. masses --      1.1244                 1.2795                 1.7134
 Frc consts  --      0.9857                 1.1899                 1.6036
 IR Inten    --     12.4368                 1.8903                 1.0001

                     31                     32                     33
                      A                      A                      A
 Frequencies --   1298.3761              1316.7512              1357.8367
 Red. masses --      1.6548                 1.6312                 1.8001
 Frc consts  --      1.6436                 1.6664                 1.9555
 IR Inten    --      6.2533                 1.0773                 3.8302

                     34                     35                     36
                      A                      A                      A
 Frequencies --   1373.5853              1420.4019              1424.8918
 Red. masses --      1.6680                 1.3461                 1.3030
 Frc consts  --      1.8542                 1.6001                 1.5587
 IR Inten    --      5.7236                 1.8679                 3.3525

                     37                     38                     39
                      A                      A                      A
 Frequencies --   1454.5199              1488.1884              1509.2875
 Red. masses --      1.0923                 1.4275                 1.0897
 Frc consts  --      1.3616                 1.8627                 1.4625
 IR Inten    --      5.6688                 5.3949                 0.4981

                     40                     41                     42
                      A                      A                      A
 Frequencies --   1521.3852              1835.7715              2858.9022
 Red. masses --      1.0988                10.2465                 1.0819
 Frc consts  --      1.4984                20.3452                 5.2098
 IR Inten    --      0.4412               173.9840                87.0207

                     43                     44                     45
                      A                      A                      A
 Frequencies --   2957.6024              2972.6816              3015.6224
 Red. masses --      1.0706                 1.0709                 1.0633
 Frc consts  --      5.5175                 5.5757                 5.6971
 IR Inten    --     64.2664                78.9341                11.5103

                     46                     47                     48
                      A                      A                      A
 Frequencies --   3065.2416              3070.8416              3080.3285
 Red. masses --      1.0909                 1.0931                 1.0974
 Frc consts  --      6.0390                 6.0735                 6.1351
 IR Inten    --     32.2188                35.4114                15.8172

                     49                     50                     51
                      A                      A                      A
 Frequencies --   3127.6741              3178.3351              3216.1300
 Red. masses --      1.0539                 1.0918                 1.1164
 Frc consts  --      6.0745                 6.4984                 6.8037
 IR Inten    --     11.1332                 8.6361                 6.7706

 - Thermochemistry -
 -------------------
 Temperature   298.150 Kelvin.  Pressure   1.00000 Atm.
 Atom     1 has atomic number  8 and mass  15.99491

 Molecular mass:   126.06808 amu.
 Principal axes and moments of inertia in atomic units:
                           1         2         3
     Eigenvalues --   568.648521641.531491818.09391
           X            0.99996   0.00283  -0.00888
           Y           -0.00309   0.99958  -0.02890
           Z            0.00879   0.02893   0.99954
 This molecule is an asymmetric top.
 Rotational symmetry number  1.
 Warning -- assumption of classical behavior for rotation
           may cause significant error
 Rotational temperatures (Kelvin)      0.15232     0.05276     0.04764
 Rotational constants (GHZ):           3.17374     1.09943     0.99266
 Zero-point vibrational energy     417655.0 (Joules/Mol)
                                   99.82194 (Kcal/Mol)
 Warning -- explicit consideration of  10 degrees of freedom as
           vibrations may cause significant error
 Vibrational temperatures:     83.89   108.51   207.79   358.89   378.44
          (Kelvin)            426.18   563.97   644.18   656.15   859.12
                              996.16  1052.25  1147.07  1202.53  1306.78
                             1332.88  1352.17  1360.22  1436.74  1499.99
                             1508.59  1550.85  1566.05  1583.75  1602.10
                             1620.91  1715.57  1755.02  1807.61  1813.37
                             1868.07  1894.51  1953.62  1976.28  2043.64
                             2050.10  2092.73  2141.17  2171.53  2188.93
                             2641.26  4113.32  4255.32  4277.02  4338.80
                             4410.19  4418.25  4431.90  4500.02  4572.91
                             4627.29

 Zero-point correction=                           0.159076 (Hartree/Particle)
 Thermal correction to Energy=                    0.167460
 Thermal correction to Enthalpy=                  0.168404
 Thermal correction to Gibbs Free Energy=         0.125266
 Sum of electronic and zero-point Energies=           -423.025831
 Sum of electronic and thermal Energies=              -423.017447
 Sum of electronic and thermal Enthalpies=            -423.016503
 Sum of electronic and thermal Free Energies=         -423.059641

                     E (Thermal)             CV                S
                      KCal/Mol        Cal/Mol-Kelvin    Cal/Mol-Kelvin
 Total                  105.083             31.170             90.792
 Electronic               0.000              0.000              0.000
 Translational            0.889              2.981             40.409
 Rotational               0.889              2.981             28.919
 Vibrational            103.305             25.208             21.464
 Vibration     1          0.596              1.974              4.514
 Vibration     2          0.599              1.965              4.007
 Vibration     3          0.616              1.909              2.744
 Vibration     4          0.662              1.764              1.735
 Vibration     5          0.670              1.741              1.642
 Vibration     6          0.690              1.681              1.438
 Vibration     7          0.759              1.487              0.993
 Vibration     8          0.807              1.366              0.803
 Vibration     9          0.814              1.348              0.778
 Vibration    10          0.955              1.038              0.455

 Optimization completed.
    -- Stationary point found.
 Normal termination of Gaussian 09 at Mon Jan 27 14:20:06 2020.
