 Gaussian 09, Revision D.01,
 Gaussian 09:  ES64L-G09RevD.01 24-Apr-2013

 -----------------------------
 # b3lyp 6-31G(2df,p) opt Freq
 -----------------------------

 -----
 titel
 -----
 Symbolic Z-matrix:
 Charge =  0 Multiplicity = 1

 SCF Done:  E(RB3LYP) =  -423.176848169     A.U. after   14 cycles
 Optimization completed.
    -- Stationary point found.
 Normal termination of Gaussian 09 at Tue Jan 28 14:02:47 2020.

 ----------------------------------------------------------------------
 #N Geom=AllCheck Guess=TCheck SCRF=Check GenChk RB3LYP/6-31G(2df,p) Fr
 eq
 ----------------------------------------------------------------------

 Structure from the checkpoint file:  "/scratch/puck/g09_bd19e407-fcfe-417b-ae3e-ab43184b7943/Gau-9766.chk"
 -----
 titel
 -----
 Charge =  0 Multiplicity = 1

                         Standard orientation:
 ---------------------------------------------------------------------
 Center     Atomic      Atomic             Coordinates (Angstroms)
 Number     Number       Type             X           Y           Z
 ---------------------------------------------------------------------
      1          6           0        2.818083   -0.368263   -0.056195
      2          8           0        1.648118    0.302020    0.363194
      3          6           0        0.535667    0.083200   -0.465510
      4          6           0       -0.244944   -1.228435   -0.229532
      5          6           0       -0.945340   -0.946802    1.131048
      6          6           0       -1.733944    0.119977    0.294329
      7          6           0       -1.609534   -0.891510   -0.894775
      8          6           0       -0.603340    1.068725   -0.053911
      9          8           0       -0.556417    2.266143   -0.016315
     10          1           0        3.098742   -0.081120   -1.080999
     11          1           0        3.618323   -0.072411    0.626018
     12          1           0        2.710456   -1.462225   -0.020072
     13          1           0        0.805710    0.220481   -1.524942
     14          1           0        0.271860   -2.166059   -0.430709
     15          1           0       -1.593906   -1.765877    1.448566
     16          1           0       -0.327260   -0.598371    1.960776
     17          1           0       -2.674537    0.561896    0.614785
     18          1           0       -2.328857   -1.708176   -0.806434
     19          1           0       -1.614024   -0.494793   -1.914749
 ---------------------------------------------------------------------

 SCF Done:  E(RB3LYP) =  -423.176848169     A.U. after    1 cycles

 The electronic state is 1-A.
 Alpha  occ. eigenvalues --  -19.14836 -19.12986 -10.26273 -10.23744 -10.22950
 Alpha  occ. eigenvalues --  -10.20372 -10.20316 -10.20289 -10.19888  -1.04971
 Alpha  occ. eigenvalues --   -1.03227  -0.89800  -0.73432  -0.68234  -0.67626
 Alpha  occ. eigenvalues --   -0.66011  -0.56206  -0.53804  -0.49941  -0.49674
 Alpha  occ. eigenvalues --   -0.47727  -0.45044  -0.44183  -0.41418  -0.39608
 Alpha  occ. eigenvalues --   -0.39235  -0.38341  -0.37065  -0.34661  -0.33060
 Alpha  occ. eigenvalues --   -0.32814  -0.31583  -0.26358  -0.23110
 Alpha virt. eigenvalues --   -0.01136   0.08587   0.10242   0.11359   0.12238
 Alpha virt. eigenvalues --    0.13005   0.13837   0.14596   0.15410   0.16723
 Alpha virt. eigenvalues --    0.17470   0.18195   0.19117   0.20205   0.20756

 Mulliken charges:
               1
     1  C   -0.238738
     2  O   -0.250685
     3  C    0.035899
     4  C   -0.062211
     5  C   -0.235967
     6  C   -0.130268
     7  C   -0.245940
     8  C    0.423627
     9  O   -0.329755
    10  H    0.109941
    11  H    0.133223
    12  H    0.106930
    13  H    0.080148
    14  H    0.071508
    15  H    0.107089
    16  H    0.121878
    17  H    0.084560
    18  H    0.113208
    19  H    0.105554
 Sum of Mulliken charges =   0.00000

 Dipole moment (field-independent basis, Debye):
    X=             -0.0167    Y=             -3.6528    Z=             -0.8014  Tot=              3.7398
 Quadrupole moment (field-independent basis, Debye-Ang):
   XX=            -47.9621   YY=            -60.2632   ZZ=            -51.9034
   XY=              0.4975   XZ=             -1.1843   YZ=             -0.4742

  Exact polarizability:  85.125   1.003  76.133  -0.673  -0.720  66.547
 Approx polarizability: 110.182   1.587 120.400  -0.095   0.264 102.051

                      1                      2                      3
                      A                      A                      A
 Frequencies --     79.8516               120.0998               176.6861
 Red. masses --      2.6625                 3.0608                 2.1201
 Frc consts  --      0.0100                 0.0260                 0.0390
 IR Inten    --      1.9246                 1.5371                 0.2833

                      4                      5                      6
                      A                      A                      A
 Frequencies --    191.5748               280.5605               327.4610
 Red. masses --      1.8399                 3.1236                 4.3016
 Frc consts  --      0.0398                 0.1449                 0.2718
 IR Inten    --      0.1651                 5.6722                 2.5205

                      7                      8                      9
                      A                      A                      A
 Frequencies --    448.6017               499.3030               525.4802
 Red. masses --      2.3057                 3.6190                 3.1559
 Frc consts  --      0.2734                 0.5316                 0.5134
 IR Inten    --      1.3235                 0.4977                 6.6421

                     10                     11                     12
                      A                      A                      A
 Frequencies --    606.6204               692.6945               796.0366
 Red. masses --      3.8534                 3.6261                 4.4725
 Frc consts  --      0.8355                 1.0251                 1.6698
 IR Inten    --      3.6603                 4.3911                24.5938

                     13                     14                     15
                      A                      A                      A
 Frequencies --    827.4331               848.2265               868.9421
 Red. masses --      3.3023                 2.4488                 2.6299
 Frc consts  --      1.3321                 1.0381                 1.1700
 IR Inten    --      6.7391                 1.9835                 3.6601

                     16                     17                     18
                      A                      A                      A
 Frequencies --    894.0539               929.0498               992.4887
 Red. masses --      1.9445                 2.0266                 1.7248
 Frc consts  --      0.9158                 1.0306                 1.0010
 IR Inten    --      4.0142                 1.1359                 4.0888

                     19                     20                     21
                      A                      A                      A
 Frequencies --   1008.5414              1020.5505              1037.5576
 Red. masses --      3.0817                 2.0291                 2.5308
 Frc consts  --      1.8468                 1.2452                 1.6052
 IR Inten    --     20.0155                 1.2275                26.0992

                     22                     23                     24
                      A                      A                      A
 Frequencies --   1069.6877              1084.5571              1104.2643
 Red. masses --      1.2397                 1.3110                 1.3153
 Frc consts  --      0.8358                 0.9086                 0.9450
 IR Inten    --      0.3126                23.2056                 0.4620

                     25                     26                     27
                      A                      A                      A
 Frequencies --   1160.4487              1166.5042              1181.9195
 Red. masses --      2.8881                 2.1083                 1.3055
 Frc consts  --      2.2915                 1.6903                 1.0745
 IR Inten    --    123.9577                11.0255                 3.3599

                     28                     29                     30
                      A                      A                      A
 Frequencies --   1215.0835              1227.1841              1234.9776
 Red. masses --      1.8336                 1.3636                 1.7606
 Frc consts  --      1.5950                 1.2099                 1.5821
 IR Inten    --     29.7296                 0.3653                15.4297

                     31                     32                     33
                      A                      A                      A
 Frequencies --   1245.2188              1256.7290              1299.3746
 Red. masses --      1.5901                 1.8156                 1.6877
 Frc consts  --      1.4527                 1.6895                 1.6789
 IR Inten    --      4.6846                14.4697                 1.3588

                     34                     35                     36
                      A                      A                      A
 Frequencies --   1318.9876              1376.2759              1478.3403
 Red. masses --      1.5161                 1.3959                 1.1198
 Frc consts  --      1.5541                 1.5579                 1.4420
 IR Inten    --      2.4148                20.5187                 1.4050

                     37                     38                     39
                      A                      A                      A
 Frequencies --   1487.3739              1490.7539              1507.0918
 Red. masses --      1.0862                 1.0771                 1.0589
 Frc consts  --      1.4157                 1.4104                 1.4170
 IR Inten    --      2.5895                 3.2279                 8.9720

                     40                     41                     42
                      A                      A                      A
 Frequencies --   1518.4255              1880.9621              2976.0856
 Red. masses --      1.1161                12.4638                 1.0668
 Frc consts  --      1.5161                25.9814                 5.5670
 IR Inten    --      1.7712               238.7199                30.6719

                     43                     44                     45
                      A                      A                      A
 Frequencies --   2983.4809              3030.8264              3053.5468
 Red. masses --      1.0507                 1.1032                 1.0588
 Frc consts  --      5.5102                 5.9706                 5.8168
 IR Inten    --     60.6841                47.4528                38.8976

                     46                     47                     48
                      A                      A                      A
 Frequencies --   3071.0377              3117.7961              3119.3149
 Red. masses --      1.0560                 1.0998                 1.0990
 Frc consts  --      5.8677                 6.2987                 6.3001
 IR Inten    --     24.9046                26.9846                20.8133

                     49                     50                     51
                      A                      A                      A
 Frequencies --   3122.0461              3134.3658              3150.3516
 Red. masses --      1.0952                 1.1105                 1.0913
 Frc consts  --      6.2895                 6.4278                 6.3815
 IR Inten    --     35.8861                16.7146                24.9681

 - Thermochemistry -
 -------------------
 Temperature   298.150 Kelvin.  Pressure   1.00000 Atm.
 Atom     1 has atomic number  6 and mass  12.00000

 Molecular mass:   126.06808 amu.
 Principal axes and moments of inertia in atomic units:
                           1         2         3
     Eigenvalues --   704.573811161.691111536.21133
           X            0.99991   0.00983  -0.00907
           Y           -0.00986   0.99995  -0.00318
           Z            0.00904   0.00327   0.99995
 This molecule is an asymmetric top.
 Rotational symmetry number  1.
 Warning -- assumption of classical behavior for rotation
           may cause significant error
 Rotational temperatures (Kelvin)      0.12293     0.07456     0.05638
 Rotational constants (GHZ):           2.56147     1.55355     1.17480
 Zero-point vibrational energy     420097.5 (Joules/Mol)
                                  100.40572 (Kcal/Mol)
 Warning -- explicit consideration of  10 degrees of freedom as
           vibrations may cause significant error
 Vibrational temperatures:    114.89   172.80   254.21   275.63   403.66
          (Kelvin)            471.14   645.44   718.38   756.05   872.79
                              996.63  1145.32  1190.49  1220.41  1250.21
                             1286.34  1336.69  1427.97  1451.06  1468.34
                             1492.81  1539.04  1560.43  1588.79  1669.62
                             1678.34  1700.52  1748.23  1765.64  1776.86
                             1791.59  1808.15  1869.51  1897.73  1980.15
                             2127.00  2140.00  2144.86  2168.37  2184.67
                             2706.28  4281.92  4292.56  4360.68  4393.37
                             4418.53  4485.81  4487.99  4491.92  4509.65
                             4532.65

 Zero-point correction=                           0.160007 (Hartree/Particle)
 Thermal correction to Energy=                    0.168066
 Thermal correction to Enthalpy=                  0.169010
 Thermal correction to Gibbs Free Energy=         0.127098
 Sum of electronic and zero-point Energies=           -423.016841
 Sum of electronic and thermal Energies=              -423.008782
 Sum of electronic and thermal Enthalpies=            -423.007838
 Sum of electronic and thermal Free Energies=         -423.049750

                     E (Thermal)             CV                S
                      KCal/Mol        Cal/Mol-Kelvin    Cal/Mol-Kelvin
 Total                  105.463             30.648             88.211
 Electronic               0.000              0.000              0.000
 Translational            0.889              2.981             40.409
 Rotational               0.889              2.981             28.621
 Vibrational            103.685             24.687             19.181
 Vibration     1          0.600              1.963              3.895
 Vibration     2          0.609              1.933              3.099
 Vibration     3          0.628              1.871              2.363
 Vibration     4          0.634              1.852              2.213
 Vibration     5          0.680              1.710              1.530
 Vibration     6          0.711              1.621              1.273
 Vibration     7          0.808              1.364              0.800
 Vibration     8          0.855              1.252              0.660
 Vibration     9          0.880              1.194              0.597
 Vibration    10          0.965              1.018              0.438

 Optimization completed.
    -- Stationary point found.
 Normal termination of Gaussian 09 at Tue Jan 28 14:52:46 2020.
