 Gaussian 09, Revision D.01,
 Gaussian 09:  ES64L-G09RevD.01 24-Apr-2013

 -----------------------------
 # b3lyp 6-31G(2df,p) opt Freq
 -----------------------------

 -----
 titel
 -----
 Symbolic Z-matrix:
 Charge =  0 Multiplicity = 1

 SCF Done:  E(RB3LYP) =  -423.155730912     A.U. after   14 cycles
 Optimization completed.
    -- Stationary point found.
 Normal termination of Gaussian 09 at Mon Jan 27 12:05:34 2020.

 ----------------------------------------------------------------------
 #N Geom=AllCheck Guess=TCheck SCRF=Check GenChk RB3LYP/6-31G(2df,p) Fr
 eq
 ----------------------------------------------------------------------

 Structure from the checkpoint file:  "/scratch/puck/g09_dd24ad22-cfa5-4e82-bb28-cebcbbaecb74/Gau-24868.chk"
 -----
 titel
 -----
 Charge =  0 Multiplicity = 1

                         Standard orientation:
 ---------------------------------------------------------------------
 Center     Atomic      Atomic             Coordinates (Angstroms)
 Number     Number       Type             X           Y           Z
 ---------------------------------------------------------------------
      1          6           0        2.157321   -0.759799    0.461443
      2          8           0        2.155590    0.047921   -0.720555
      3          6           0        0.948511   -0.049164    0.044313
      4          6           0        0.435886    1.226124    0.699065
      5          8           0       -0.662594    1.644801   -0.102222
      6          6           0       -1.292185    0.491575   -0.637413
      7          6           0       -2.212617   -0.308797    0.332129
      8          6           0       -1.212262   -1.500654    0.293414
      9          6           0       -0.256983   -0.678328   -0.624765
     10          1           0        2.236540   -1.834042    0.297346
     11          1           0        2.755683   -0.377159    1.288441
     12          1           0        0.118504    1.030701    1.736466
     13          1           0        1.189603    2.016911    0.703963
     14          1           0       -1.742571    0.777217   -1.589697
     15          1           0       -2.326514    0.173116    1.306079
     16          1           0       -3.208372   -0.526024   -0.060861
     17          1           0       -0.788038   -1.796275    1.256924
     18          1           0       -1.606289   -2.396160   -0.191377
     19          1           0        0.021459   -1.135806   -1.574190
 ---------------------------------------------------------------------

 SCF Done:  E(RB3LYP) =  -423.155730912     A.U. after    1 cycles

 The electronic state is 1-A.
 Alpha  occ. eigenvalues --  -19.15001 -19.13968 -10.24274 -10.23634 -10.23025
 Alpha  occ. eigenvalues --  -10.22994 -10.18966 -10.18879 -10.18142  -1.07272
 Alpha  occ. eigenvalues --   -1.03618  -0.83583  -0.74463  -0.68353  -0.66319
 Alpha  occ. eigenvalues --   -0.64404  -0.57013  -0.55336  -0.51745  -0.48705
 Alpha  occ. eigenvalues --   -0.48471  -0.45966  -0.43574  -0.41217  -0.40501
 Alpha  occ. eigenvalues --   -0.39634  -0.36865  -0.35461  -0.33771  -0.32166
 Alpha  occ. eigenvalues --   -0.30231  -0.29235  -0.27151  -0.24201
 Alpha virt. eigenvalues --    0.07015   0.08444   0.08460   0.10802   0.11809
 Alpha virt. eigenvalues --    0.14040   0.14158   0.15098   0.15801   0.16983
 Alpha virt. eigenvalues --    0.18123   0.18330   0.18574   0.20147   0.22090

 Mulliken charges:
               1
     1  C   -0.257303
     2  O   -0.276320
     3  C    0.421297
     4  C   -0.162986
     5  O   -0.262072
     6  C    0.125678
     7  C   -0.248279
     8  C   -0.239505
     9  C   -0.140487
    10  H    0.114508
    11  H    0.113197
    12  H    0.093361
    13  H    0.125215
    14  H    0.084937
    15  H    0.109659
    16  H    0.104161
    17  H    0.099117
    18  H    0.107222
    19  H    0.088600
 Sum of Mulliken charges =   0.00000

 Dipole moment (field-independent basis, Debye):
    X=             -0.6872    Y=             -1.9025    Z=              1.3944  Tot=              2.4568
 Quadrupole moment (field-independent basis, Debye-Ang):
   XX=            -53.9648   YY=            -54.7081   ZZ=            -52.0708
   XY=              0.6052   XZ=              4.8560   YZ=              1.3521

  Exact polarizability:  84.893  -0.277  71.371   4.464   0.846  65.549
 Approx polarizability: 112.013  -1.178 104.133   3.834  -1.657 102.718

                      1                      2                      3
                      A                      A                      A
 Frequencies --     65.9828               147.9733               203.4650
 Red. masses --      2.4701                 3.0160                 2.7147
 Frc consts  --      0.0063                 0.0389                 0.0662
 IR Inten    --      0.6296                 1.3403                 2.5007

                      4                      5                      6
                      A                      A                      A
 Frequencies --    299.4565               355.5512               398.4829
 Red. masses --      2.6469                 3.6694                 2.9189
 Frc consts  --      0.1398                 0.2733                 0.2731
 IR Inten    --      1.5791                 4.6111                 2.0664

                      7                      8                      9
                      A                      A                      A
 Frequencies --    435.4829               546.1640               656.3684
 Red. masses --      3.2594                 3.5512                 5.9785
 Frc consts  --      0.3642                 0.6241                 1.5175
 IR Inten    --      4.1976                 7.3495                 4.8823

                     10                     11                     12
                      A                      A                      A
 Frequencies --    724.2851               748.0322               791.0212
 Red. masses --      1.3540                 2.4339                 2.6345
 Frc consts  --      0.4185                 0.8024                 0.9712
 IR Inten    --      0.7906                10.6291                13.3403

                     13                     14                     15
                      A                      A                      A
 Frequencies --    829.9458               862.7228               882.7522
 Red. masses --      2.9610                 2.1307                 2.5361
 Frc consts  --      1.2017                 0.9344                 1.1644
 IR Inten    --     11.8334                 3.0509                 4.8362

                     16                     17                     18
                      A                      A                      A
 Frequencies --    912.6437               958.7559               966.7867
 Red. masses --      1.7836                 2.6349                 3.3665
 Frc consts  --      0.8753                 1.4270                 1.8539
 IR Inten    --      7.8115                 4.0204                32.2949

                     19                     20                     21
                      A                      A                      A
 Frequencies --    980.4766              1003.5075              1021.7358
 Red. masses --      2.7405                 1.7226                 2.9750
 Frc consts  --      1.5522                 1.0220                 1.8299
 IR Inten    --      3.4145                 5.8045                15.8735

                     22                     23                     24
                      A                      A                      A
 Frequencies --   1060.6279              1114.5324              1120.3421
 Red. masses --      2.4787                 2.4776                 2.0482
 Frc consts  --      1.6428                 1.8133                 1.5147
 IR Inten    --     36.7473                28.9979                26.0579

                     25                     26                     27
                      A                      A                      A
 Frequencies --   1127.6169              1165.5536              1198.3341
 Red. masses --      1.3391                 1.4458                 1.5975
 Frc consts  --      1.0032                 1.1573                 1.3516
 IR Inten    --      3.6495                 4.0178                17.4226

                     28                     29                     30
                      A                      A                      A
 Frequencies --   1220.0228              1232.9917              1246.5925
 Red. masses --      1.2816                 1.2362                 1.4356
 Frc consts  --      1.1240                 1.1073                 1.3144
 IR Inten    --      5.7488                 7.3038                 0.9507

                     31                     32                     33
                      A                      A                      A
 Frequencies --   1251.2540              1265.1416              1275.8274
 Red. masses --      1.7472                 1.5499                 1.5746
 Frc consts  --      1.6117                 1.4616                 1.5101
 IR Inten    --      6.1694                 5.3990                 1.3350

                     34                     35                     36
                      A                      A                      A
 Frequencies --   1295.2997              1337.1306              1370.2956
 Red. masses --      1.6681                 1.3201                 1.3907
 Frc consts  --      1.6489                 1.3906                 1.5385
 IR Inten    --      1.6337                11.8120                 9.8549

                     37                     38                     39
                      A                      A                      A
 Frequencies --   1440.7870              1472.2533              1490.1635
 Red. masses --      2.2606                 1.0851                 1.1122
 Frc consts  --      2.7649                 1.3857                 1.4551
 IR Inten    --      7.2475                 1.1305                 3.4361

                     40                     41                     42
                      A                      A                      A
 Frequencies --   1505.5041              1535.7635              2970.1654
 Red. masses --      1.0903                 1.4855                 1.0709
 Frc consts  --      1.4560                 2.0643                 5.5662
 IR Inten    --      2.8065                 3.2499                46.4437

                     43                     44                     45
                      A                      A                      A
 Frequencies --   3059.2942              3067.9202              3074.9852
 Red. masses --      1.0591                 1.0606                 1.0506
 Frc consts  --      5.8402                 5.8815                 5.8531
 IR Inten    --     31.2093                30.0898                27.9906

                     46                     47                     48
                      A                      A                      A
 Frequencies --   3091.4810              3103.2594              3105.4292
 Red. masses --      1.0904                 1.0945                 1.1010
 Frc consts  --      6.1400                 6.2102                 6.2555
 IR Inten    --     26.8074                11.3800                10.6853

                     49                     50                     51
                      A                      A                      A
 Frequencies --   3114.4224              3127.3496              3158.2756
 Red. masses --      1.0932                 1.1049                 1.1189
 Frc consts  --      6.2475                 6.3666                 6.5759
 IR Inten    --      7.3900                47.7421                22.2130

 - Thermochemistry -
 -------------------
 Temperature   298.150 Kelvin.  Pressure   1.00000 Atm.
 Atom     1 has atomic number  6 and mass  12.00000

 Molecular mass:   126.06808 amu.
 Principal axes and moments of inertia in atomic units:
                           1         2         3
     Eigenvalues --   596.564811164.600971458.65375
           X            0.99970   0.01617   0.01815
           Y           -0.01642   0.99977   0.01367
           Z           -0.01792  -0.01397   0.99974
 This molecule is an asymmetric top.
 Rotational symmetry number  1.
 Warning -- assumption of classical behavior for rotation
           may cause significant error
 Rotational temperatures (Kelvin)      0.14519     0.07437     0.05938
 Rotational constants (GHZ):           3.02522     1.54966     1.23726
 Zero-point vibrational energy     421026.9 (Joules/Mol)
                                  100.62786 (Kcal/Mol)
 Warning -- explicit consideration of   8 degrees of freedom as
           vibrations may cause significant error
 Vibrational temperatures:     94.93   212.90   292.74   430.85   511.56
          (Kelvin)            573.33   626.56   785.81   944.37  1042.08
                             1076.25  1138.10  1194.11  1241.26  1270.08
                             1313.09  1379.43  1390.99  1410.69  1443.82
                             1470.05  1526.01  1603.56  1611.92  1622.39
                             1676.97  1724.13  1755.34  1774.00  1793.57
                             1800.27  1820.25  1835.63  1863.64  1923.83
                             1971.55  2072.97  2118.24  2144.01  2166.08
                             2209.62  4273.40  4401.64  4414.05  4424.21
                             4447.95  4464.89  4468.01  4480.95  4499.55
                             4544.05

 Zero-point correction=                           0.160361 (Hartree/Particle)
 Thermal correction to Energy=                    0.167872
 Thermal correction to Enthalpy=                  0.168816
 Thermal correction to Gibbs Free Energy=         0.128091
 Sum of electronic and zero-point Energies=           -422.995370
 Sum of electronic and thermal Energies=              -422.987859
 Sum of electronic and thermal Enthalpies=            -422.986915
 Sum of electronic and thermal Free Energies=         -423.027640

                     E (Thermal)             CV                S
                      KCal/Mol        Cal/Mol-Kelvin    Cal/Mol-Kelvin
 Total                  105.341             29.540             85.714
 Electronic               0.000              0.000              0.000
 Translational            0.889              2.981             40.409
 Rotational               0.889              2.981             28.407
 Vibrational            103.564             23.578             16.898
 Vibration     1          0.597              1.971              4.270
 Vibration     2          0.617              1.905              2.698
 Vibration     3          0.639              1.835              2.102
 Vibration     4          0.692              1.675              1.420
 Vibration     5          0.731              1.564              1.141
 Vibration     6          0.765              1.473              0.968
 Vibration     7          0.796              1.393              0.841
 Vibration     8          0.901              1.148              0.552

 Optimization completed.
    -- Stationary point found.
 Normal termination of Gaussian 09 at Mon Jan 27 12:56:25 2020.
