 Gaussian 09, Revision D.01,
 Gaussian 09:  ES64L-G09RevD.01 24-Apr-2013

 -----------------------------
 # b3lyp 6-31G(2df,p) opt Freq
 -----------------------------

 -----
 titel
 -----
 Symbolic Z-matrix:
 Charge =  0 Multiplicity = 1

 SCF Done:  E(RB3LYP) =  -423.159950929     A.U. after   13 cycles
 Optimization completed.
    -- Stationary point found.
 Normal termination of Gaussian 09 at Mon Jan 27 23:49:31 2020.

 ----------------------------------------------------------------------
 #N Geom=AllCheck Guess=TCheck SCRF=Check GenChk RB3LYP/6-31G(2df,p) Fr
 eq
 ----------------------------------------------------------------------

 Structure from the checkpoint file:  "/scratch/puck/g09_8f363b5b-af7f-4b35-a1b0-721b1ff2002f/Gau-104220.chk"
 -----
 titel
 -----
 Charge =  0 Multiplicity = 1

                         Standard orientation:
 ---------------------------------------------------------------------
 Center     Atomic      Atomic             Coordinates (Angstroms)
 Number     Number       Type             X           Y           Z
 ---------------------------------------------------------------------
      1          8           0        2.613307   -0.131275   -0.121129
      2          6           0        1.241406   -0.089946   -0.456304
      3          6           0        0.611695    1.189320    0.144115
      4          6           0       -0.698650    1.641314   -0.542933
      5          6           0       -1.489042    0.568122    0.262765
      6          8           0       -1.793650   -0.601758   -0.488679
      7          6           0       -0.864488   -1.645699   -0.197495
      8          6           0        0.340282   -0.986767    0.460348
      9          6           0       -0.225686    0.294364    1.126451
     10          1           0        2.951464   -1.002788   -0.353193
     11          1           0        1.089776   -0.228869   -1.538190
     12          1           0        1.332995    1.943407    0.455721
     13          1           0       -0.978121    2.654212   -0.239747
     14          1           0       -0.763194    1.562384   -1.631779
     15          1           0       -2.396963    0.914990    0.763625
     16          1           0       -1.324273   -2.384685    0.476950
     17          1           0       -0.616302   -2.155140   -1.137118
     18          1           0        0.922013   -1.661134    1.091864
     19          1           0       -0.267748    0.397643    2.208654
 ---------------------------------------------------------------------

 SCF Done:  E(RB3LYP) =  -423.159950929     A.U. after    1 cycles

 The electronic state is 1-A.
 Alpha  occ. eigenvalues --  -19.13904 -19.13103 -10.23078 -10.22612 -10.22513
 Alpha  occ. eigenvalues --  -10.18646 -10.18500 -10.18326 -10.17656  -1.03022
 Alpha  occ. eigenvalues --   -1.02028  -0.85979  -0.76851  -0.67896  -0.66758
 Alpha  occ. eigenvalues --   -0.61838  -0.56286  -0.53272  -0.51760  -0.48665
 Alpha  occ. eigenvalues --   -0.47571  -0.44694  -0.44372  -0.43237  -0.39353
 Alpha  occ. eigenvalues --   -0.37727  -0.35332  -0.33862  -0.32762  -0.30898
 Alpha  occ. eigenvalues --   -0.29655  -0.28107  -0.25612  -0.23845
 Alpha virt. eigenvalues --    0.07166   0.08316   0.10030   0.10883   0.12614
 Alpha virt. eigenvalues --    0.13500   0.14233   0.15555   0.16715   0.16948
 Alpha virt. eigenvalues --    0.17769   0.19563   0.20213   0.22252   0.22632

 Mulliken charges:
               1
     1  O   -0.441686
     2  C    0.126132
     3  C   -0.042387
     4  C   -0.255271
     5  C    0.109942
     6  O   -0.274053
     7  C   -0.093364
     8  C   -0.085552
     9  C   -0.071808
    10  H    0.279796
    11  H    0.062377
    12  H    0.078576
    13  H    0.101144
    14  H    0.100491
    15  H    0.076822
    16  H    0.090880
    17  H    0.099587
    18  H    0.072563
    19  H    0.065809
 Sum of Mulliken charges =   0.00000

 Dipole moment (field-independent basis, Debye):
    X=              0.6306    Y=             -0.9355    Z=              0.4792  Tot=              1.2257
 Quadrupole moment (field-independent basis, Debye-Ang):
   XX=            -57.9049   YY=            -48.8832   ZZ=            -52.4844
   XY=             -5.6166   XZ=             -3.3067   YZ=              0.6242

  Exact polarizability:  76.284  -2.766  79.638  -1.258   0.052  65.684
 Approx polarizability: 107.424  -2.700 111.582   0.192   1.296 101.464

                      1                      2                      3
                      A                      A                      A
 Frequencies --     79.9170               201.6278               281.9731
 Red. masses --      3.9981                 2.8053                 1.6975
 Frc consts  --      0.0150                 0.0672                 0.0795
 IR Inten    --      3.1042                 3.0047                33.8694

                      4                      5                      6
                      A                      A                      A
 Frequencies --    313.0047               333.5048               382.9729
 Red. masses --      2.0094                 2.1299                 2.2775
 Frc consts  --      0.1160                 0.1396                 0.1968
 IR Inten    --     15.4364                55.6501                 4.9150

                      7                      8                      9
                      A                      A                      A
 Frequencies --    421.8868               640.6053               650.3149
 Red. masses --      4.6347                 4.8530                 4.0014
 Frc consts  --      0.4860                 1.1734                 0.9970
 IR Inten    --      8.4413                 2.0350                 2.6797

                     10                     11                     12
                      A                      A                      A
 Frequencies --    731.4477               783.0019               836.5778
 Red. masses --      4.4743                 2.1541                 1.8649
 Frc consts  --      1.4104                 0.7781                 0.7690
 IR Inten    --      2.6637                15.2343                 4.0685

                     13                     14                     15
                      A                      A                      A
 Frequencies --    857.4625               879.6011               886.7321
 Red. masses --      2.3964                 2.6838                 2.4937
 Frc consts  --      1.0381                 1.2234                 1.1553
 IR Inten    --      3.3709                 1.8996                 2.7338

                     16                     17                     18
                      A                      A                      A
 Frequencies --    933.5460               936.9829               966.8591
 Red. masses --      2.6082                 1.6391                 2.4928
 Frc consts  --      1.3392                 0.8478                 1.3730
 IR Inten    --      4.8242                 0.1680                14.9707

                     19                     20                     21
                      A                      A                      A
 Frequencies --    983.8735              1026.2550              1049.4804
 Red. masses --      1.9379                 2.4159                 1.8056
 Frc consts  --      1.1052                 1.4991                 1.1717
 IR Inten    --     11.1303                 2.4831                45.0815

                     22                     23                     24
                      A                      A                      A
 Frequencies --   1064.6025              1079.5586              1123.4965
 Red. masses --      2.5492                 1.9895                 1.8777
 Frc consts  --      1.7023                 1.3661                 1.3964
 IR Inten    --     40.7536                29.9933                16.6098

                     25                     26                     27
                      A                      A                      A
 Frequencies --   1134.4733              1147.8796              1182.7233
 Red. masses --      2.9941                 2.0952                 1.9449
 Frc consts  --      2.2704                 1.6265                 1.6029
 IR Inten    --     56.8424                14.0234                23.2514

                     28                     29                     30
                      A                      A                      A
 Frequencies --   1202.2326              1214.8726              1229.1014
 Red. masses --      1.3531                 1.2838                 1.2894
 Frc consts  --      1.1523                 1.1164                 1.1477
 IR Inten    --     18.9663                 4.0341                 7.2946

                     31                     32                     33
                      A                      A                      A
 Frequencies --   1243.2138              1251.5932              1270.2267
 Red. masses --      1.5491                 1.5308                 1.5071
 Frc consts  --      1.4107                 1.4128                 1.4327
 IR Inten    --      4.3967                 1.0389                 4.7580

                     34                     35                     36
                      A                      A                      A
 Frequencies --   1286.9612              1293.9575              1329.7609
 Red. masses --      1.6933                 1.4174                 1.5712
 Frc consts  --      1.6524                 1.3982                 1.6370
 IR Inten    --      4.6912                 4.4387                44.3323

                     37                     38                     39
                      A                      A                      A
 Frequencies --   1341.6599              1392.4922              1422.1787
 Red. masses --      1.2359                 1.3732                 1.4994
 Frc consts  --      1.3108                 1.5689                 1.7868
 IR Inten    --     12.8565                 2.9536                 4.5140

                     40                     41                     42
                      A                      A                      A
 Frequencies --   1468.2047              1520.4594              2972.7135
 Red. masses --      1.1080                 1.0912                 1.0846
 Frc consts  --      1.4073                 1.4863                 5.6474
 IR Inten    --      2.3788                 0.6589                56.6994

                     43                     44                     45
                      A                      A                      A
 Frequencies --   2980.6985              3041.6932              3051.0505
 Red. masses --      1.0678                 1.0956                 1.0605
 Frc consts  --      5.5896                 5.9724                 5.8165
 IR Inten    --     84.2042                42.8798                27.8283

                     46                     47                     48
                      A                      A                      A
 Frequencies --   3066.1199              3092.7798              3108.5206
 Red. masses --      1.0862                 1.0876                 1.1071
 Frc consts  --      6.0166                 6.1293                 6.3032
 IR Inten    --     56.4701                22.8029                20.7311

                     49                     50                     51
                      A                      A                      A
 Frequencies --   3121.9905              3134.8571              3804.9582
 Red. masses --      1.0885                 1.0928                 1.0660
 Frc consts  --      6.2511                 6.3275                 9.0929
 IR Inten    --     24.3188                34.3084                15.8246

 - Thermochemistry -
 -------------------
 Temperature   298.150 Kelvin.  Pressure   1.00000 Atm.
 Atom     1 has atomic number  8 and mass  15.99491

 Molecular mass:   126.06808 amu.
 Principal axes and moments of inertia in atomic units:
                           1         2         3
     Eigenvalues --   629.073691044.605151365.97041
           X            0.99944  -0.03207  -0.00940
           Y            0.03202   0.99947  -0.00529
           Z            0.00957   0.00499   0.99994
 This molecule is an asymmetric top.
 Rotational symmetry number  1.
 Warning -- assumption of classical behavior for rotation
           may cause significant error
 Rotational temperatures (Kelvin)      0.13768     0.08292     0.06341
 Rotational constants (GHZ):           2.86889     1.72768     1.32122
 Zero-point vibrational energy     423194.9 (Joules/Mol)
                                  101.14600 (Kcal/Mol)
 Warning -- explicit consideration of   7 degrees of freedom as
           vibrations may cause significant error
 Vibrational temperatures:    114.98   290.10   405.70   450.34   479.84
          (Kelvin)            551.01   607.00   921.69   935.66  1052.39
                             1126.56  1203.65  1233.70  1265.55  1275.81
                             1343.16  1348.11  1391.09  1415.57  1476.55
                             1509.97  1531.72  1553.24  1616.46  1632.25
                             1651.54  1701.67  1729.74  1747.93  1768.40
                             1788.71  1800.76  1827.57  1851.65  1861.71
                             1913.23  1930.35  2003.48  2046.20  2112.42
                             2187.60  4277.07  4288.55  4376.31  4389.78
                             4411.46  4449.81  4472.46  4491.84  4510.35
                             5474.48

 Zero-point correction=                           0.161186 (Hartree/Particle)
 Thermal correction to Energy=                    0.168430
 Thermal correction to Enthalpy=                  0.169374
 Thermal correction to Gibbs Free Energy=         0.129484
 Sum of electronic and zero-point Energies=           -422.998765
 Sum of electronic and thermal Energies=              -422.991521
 Sum of electronic and thermal Enthalpies=            -422.990576
 Sum of electronic and thermal Free Energies=         -423.030467

                     E (Thermal)             CV                S
                      KCal/Mol        Cal/Mol-Kelvin    Cal/Mol-Kelvin
 Total                  105.692             29.183             83.957
 Electronic               0.000              0.000              0.000
 Translational            0.889              2.981             40.409
 Rotational               0.889              2.981             28.286
 Vibrational            103.914             23.221             15.262
 Vibration     1          0.600              1.963              3.893
 Vibration     2          0.639              1.838              2.118
 Vibration     3          0.681              1.707              1.522
 Vibration     4          0.701              1.649              1.346
 Vibration     5          0.715              1.609              1.243
 Vibration     6          0.752              1.507              1.027
 Vibration     7          0.784              1.423              0.886

 Optimization completed.
    -- Stationary point found.
 Normal termination of Gaussian 09 at Tue Jan 28 00:36:13 2020.
