 Gaussian 09, Revision D.01,
 Gaussian 09:  ES64L-G09RevD.01 24-Apr-2013

 -----------------------------
 # b3lyp 6-31G(2df,p) opt Freq
 -----------------------------

 -----
 titel
 -----
 Symbolic Z-matrix:
 Charge =  0 Multiplicity = 1

 SCF Done:  E(RB3LYP) =  -423.224706989     A.U. after   14 cycles
 Optimization completed.
    -- Stationary point found.
 Normal termination of Gaussian 09 at Tue Jan 28 12:35:34 2020.

 ----------------------------------------------------------------------
 #N Geom=AllCheck Guess=TCheck SCRF=Check GenChk RB3LYP/6-31G(2df,p) Fr
 eq
 ----------------------------------------------------------------------

 Structure from the checkpoint file:  "/scratch/puck/g09_66bf47aa-1a3b-4666-aa17-8ceaa3b13673/Gau-141944.chk"
 -----
 titel
 -----
 Charge =  0 Multiplicity = 1

                         Standard orientation:
 ---------------------------------------------------------------------
 Center     Atomic      Atomic             Coordinates (Angstroms)
 Number     Number       Type             X           Y           Z
 ---------------------------------------------------------------------
      1          6           0        2.528584   -1.297371    0.512298
      2          6           0        1.621650   -0.517914   -0.452834
      3          6           0        1.541050    0.997871   -0.162258
      4          6           0        0.049212    1.305631    0.021470
      5          8           0       -0.440896    2.389432    0.247363
      6          6           0       -0.688103    0.024169   -0.124360
      7          6           0       -2.179052   -0.051484    0.016094
      8          8           0       -2.681766   -1.376092    0.062055
      9          6           0        0.177940   -0.963704   -0.384733
     10          1           0        2.206544   -1.155672    1.549656
     11          1           0        2.506548   -2.370618    0.296203
     12          1           0        3.566007   -0.958835    0.429971
     13          1           0        1.994010   -0.690492   -1.472049
     14          1           0        2.078205    1.276280    0.750594
     15          1           0        1.947788    1.617571   -0.966698
     16          1           0       -2.489127    0.542351    0.889258
     17          1           0       -2.653197    0.423862   -0.850886
     18          1           0       -2.376211   -1.774506    0.883476
     19          1           0       -0.106958   -1.999861   -0.538935
 ---------------------------------------------------------------------

 SCF Done:  E(RB3LYP) =  -423.224706989     A.U. after    1 cycles

 The electronic state is 1-A.
 Alpha  occ. eigenvalues --  -19.14328 -19.12134 -10.26143 -10.23637 -10.20733
 Alpha  occ. eigenvalues --  -10.20520 -10.19308 -10.18966 -10.18887  -1.03168
 Alpha  occ. eigenvalues --   -1.02394  -0.85777  -0.76741  -0.71743  -0.68729
 Alpha  occ. eigenvalues --   -0.62926  -0.57033  -0.52904  -0.49946  -0.48641
 Alpha  occ. eigenvalues --   -0.45888  -0.44428  -0.42485  -0.41758  -0.41627
 Alpha  occ. eigenvalues --   -0.39554  -0.37785  -0.36203  -0.35525  -0.34547
 Alpha  occ. eigenvalues --   -0.33657  -0.28494  -0.26304  -0.23741
 Alpha virt. eigenvalues --   -0.04261   0.05193   0.07402   0.09240   0.12673
 Alpha virt. eigenvalues --    0.12837   0.13791   0.14624   0.15807   0.16627
 Alpha virt. eigenvalues --    0.17508   0.17863   0.18828   0.20073   0.22464

 Mulliken charges:
               1
     1  C   -0.395873
     2  C   -0.026211
     3  C   -0.351173
     4  C    0.328879
     5  O   -0.333579
     6  C    0.143925
     7  C   -0.168811
     8  O   -0.410252
     9  C   -0.155463
    10  H    0.119362
    11  H    0.117866
    12  H    0.122945
    13  H    0.093161
    14  H    0.130495
    15  H    0.132324
    16  H    0.116959
    17  H    0.137752
    18  H    0.284024
    19  H    0.113670
 Sum of Mulliken charges =   0.00000

 Dipole moment (field-independent basis, Debye):
    X=              2.1404    Y=             -2.4938    Z=              0.4261  Tot=              3.3139
 Quadrupole moment (field-independent basis, Debye-Ang):
   XX=            -54.2088   YY=            -60.0437   ZZ=            -50.7673
   XY=             -0.1406   XZ=             -2.7385   YZ=             -3.3154

  Exact polarizability:  92.117  -8.025  87.800  -2.193   2.285  57.439
 Approx polarizability: 122.590 -20.244 145.766  -5.800   9.671  90.716

                      1                      2                      3
                      A                      A                      A
 Frequencies --     58.7341                77.7567               127.5934
 Red. masses --      2.8746                 2.8888                 2.9179
 Frc consts  --      0.0058                 0.0103                 0.0280
 IR Inten    --      2.7030                 4.0409                 1.2545

                      4                      5                      6
                      A                      A                      A
 Frequencies --    175.7850               252.4511               290.8043
 Red. masses --      3.7185                 1.0969                 1.4930
 Frc consts  --      0.0677                 0.0412                 0.0744
 IR Inten    --      5.9723                 0.8129                52.9459

                      7                      8                      9
                      A                      A                      A
 Frequencies --    306.8133               341.0352               360.4980
 Red. masses --      3.0520                 1.8611                 3.8343
 Frc consts  --      0.1693                 0.1275                 0.2936
 IR Inten    --     14.9432                52.3967                 3.4126

                     10                     11                     12
                      A                      A                      A
 Frequencies --    429.7153               554.1095               593.3179
 Red. masses --      2.1458                 3.4971                 5.1956
 Frc consts  --      0.2335                 0.6326                 1.0776
 IR Inten    --      2.6605                 6.7449                 5.8313

                     13                     14                     15
                      A                      A                      A
 Frequencies --    622.4418               681.4932               809.1497
 Red. masses --      3.3564                 3.1332                 5.3567
 Frc consts  --      0.7662                 0.8573                 2.0663
 IR Inten    --      4.4881                 7.1553                 6.8476

                     16                     17                     18
                      A                      A                      A
 Frequencies --    858.6039               889.3863               912.5771
 Red. masses --      2.7402                 1.4506                 1.4091
 Frc consts  --      1.1902                 0.6761                 0.6914
 IR Inten    --      2.1917                 2.5957                10.0404

                     19                     20                     21
                      A                      A                      A
 Frequencies --    958.3308               987.6300              1008.3120
 Red. masses --      1.7043                 2.5276                 2.3006
 Frc consts  --      0.9222                 1.4526                 1.3781
 IR Inten    --      0.8627                63.5883                 6.0198

                     22                     23                     24
                      A                      A                      A
 Frequencies --   1039.5259              1079.5879              1097.9934
 Red. masses --      1.8369                 1.9498                 5.1617
 Frc consts  --      1.1695                 1.3389                 3.6664
 IR Inten    --     13.8005                 7.7522                30.4102

                     25                     26                     27
                      A                      A                      A
 Frequencies --   1129.6565              1204.5143              1206.4012
 Red. masses --      1.5548                 1.1727                 1.4623
 Frc consts  --      1.1690                 1.0024                 1.2539
 IR Inten    --      1.8599                13.5394                20.4377

                     28                     29                     30
                      A                      A                      A
 Frequencies --   1208.6544              1266.7698              1302.7858
 Red. masses --      1.6190                 1.8265                 1.7231
 Frc consts  --      1.3935                 1.7269                 1.7231
 IR Inten    --      4.6809                13.5197                17.7944

                     31                     32                     33
                      A                      A                      A
 Frequencies --   1317.9894              1343.0672              1392.5291
 Red. masses --      1.7933                 1.4987                 1.3079
 Frc consts  --      1.8354                 1.5928                 1.4942
 IR Inten    --     17.9584                 5.9032                 3.9685

                     34                     35                     36
                      A                      A                      A
 Frequencies --   1406.6799              1416.6062              1453.0387
 Red. masses --      1.2236                 1.4658                 1.0893
 Frc consts  --      1.4266                 1.7331                 1.3551
 IR Inten    --     11.2471                60.6486                 6.0166

                     37                     38                     39
                      A                      A                      A
 Frequencies --   1485.7948              1497.4146              1499.2980
 Red. masses --      1.0810                 1.0447                 1.0519
 Frc consts  --      1.4061                 1.3802                 1.3932
 IR Inten    --      2.2409                 4.3652                 2.1077

                     40                     41                     42
                      A                      A                      A
 Frequencies --   1695.5008              1803.5956              2997.6471
 Red. masses --      7.8265                12.7920                 1.0691
 Frc consts  --     13.2560                24.5170                 5.6602
 IR Inten    --     13.6089               264.5444                29.9168

                     43                     44                     45
                      A                      A                      A
 Frequencies --   3007.4067              3030.8324              3057.2933
 Red. masses --      1.0826                 1.0346                 1.0916
 Frc consts  --      5.7688                 5.5992                 6.0117
 IR Inten    --     17.5925                27.5670                14.2063

                     46                     47                     48
                      A                      A                      A
 Frequencies --   3058.1218              3098.4675              3102.5922
 Red. masses --      1.0616                 1.1019                 1.1016
 Frc consts  --      5.8494                 6.2328                 6.2477
 IR Inten    --      7.6284                10.0531                25.9579

                     49                     50                     51
                      A                      A                      A
 Frequencies --   3106.6791              3187.0284              3814.9998
 Red. masses --      1.1020                 1.0927                 1.0662
 Frc consts  --      6.2666                 6.5391                 9.1425
 IR Inten    --     22.9795                 6.0559                17.2774

 - Thermochemistry -
 -------------------
 Temperature   298.150 Kelvin.  Pressure   1.00000 Atm.
 Atom     1 has atomic number  6 and mass  12.00000

 Molecular mass:   126.06808 amu.
 Principal axes and moments of inertia in atomic units:
                           1         2         3
     Eigenvalues --   808.894901396.307042077.50346
           X            0.99939  -0.03485   0.00161
           Y            0.03487   0.99928  -0.01511
           Z           -0.00108   0.01516   0.99988
 This molecule is an asymmetric top.
 Rotational symmetry number  1.
 Warning -- assumption of classical behavior for rotation
           may cause significant error
 Rotational temperatures (Kelvin)      0.10708     0.06203     0.04169
 Rotational constants (GHZ):           2.23112     1.29251     0.86871
 Zero-point vibrational energy     416330.4 (Joules/Mol)
                                   99.50536 (Kcal/Mol)
 Warning -- explicit consideration of  12 degrees of freedom as
           vibrations may cause significant error
 Vibrational temperatures:     84.51   111.87   183.58   252.92   363.22
          (Kelvin)            418.40   441.44   490.67   518.68   618.26
                              797.24   853.65   895.55   980.52  1164.18
                             1235.34  1279.63  1312.99  1378.82  1420.98
                             1450.73  1495.64  1553.28  1579.77  1625.32
                             1733.03  1735.74  1738.98  1822.60  1874.42
                             1896.29  1932.37  2003.54  2023.90  2038.18
                             2090.60  2137.72  2154.44  2157.15  2439.44
                             2594.97  4312.94  4326.98  4360.69  4398.76
                             4399.95  4458.00  4463.93  4469.81  4585.42
                             5488.93

 Zero-point correction=                           0.158572 (Hartree/Particle)
 Thermal correction to Energy=                    0.167840
 Thermal correction to Enthalpy=                  0.168784
 Thermal correction to Gibbs Free Energy=         0.123891
 Sum of electronic and zero-point Energies=           -423.066135
 Sum of electronic and thermal Energies=              -423.056867
 Sum of electronic and thermal Enthalpies=            -423.055923
 Sum of electronic and thermal Free Energies=         -423.100816

                     E (Thermal)             CV                S
                      KCal/Mol        Cal/Mol-Kelvin    Cal/Mol-Kelvin
 Total                  105.321             33.809             94.485
 Electronic               0.000              0.000              0.000
 Translational            0.889              2.981             40.409
 Rotational               0.889              2.981             29.241
 Vibrational            103.543             27.848             24.835
 Vibration     1          0.596              1.974              4.499
 Vibration     2          0.599              1.964              3.947
 Vibration     3          0.611              1.926              2.982
 Vibration     4          0.628              1.872              2.373
 Vibration     5          0.664              1.759              1.713
 Vibration     6          0.687              1.691              1.469
 Vibration     7          0.697              1.661              1.379
 Vibration     8          0.721              1.593              1.207
 Vibration     9          0.735              1.554              1.120
 Vibration    10          0.791              1.406              0.860
 Vibration    11          0.910              1.131              0.536
 Vibration    12          0.951              1.046              0.461

 Normal termination of Gaussian 09 at Tue Jan 28 13:14:35 2020.
