 Gaussian 09, Revision D.01,
 Gaussian 09:  ES64L-G09RevD.01 24-Apr-2013

 -----------------------------
 # b3lyp 6-31G(2df,p) opt Freq
 -----------------------------

 -----
 titel
 -----
 Symbolic Z-matrix:
 Charge =  0 Multiplicity = 1

 SCF Done:  E(RB3LYP) =  -423.128895657     A.U. after   14 cycles
 SCF Done:  E(RB3LYP) =  -423.128895615     A.U. after    7 cycles
 SCF Done:  E(RB3LYP) =  -423.128895774     A.U. after    7 cycles
 SCF Done:  E(RB3LYP) =  -423.128895665     A.U. after    7 cycles
 SCF Done:  E(RB3LYP) =  -423.128895863     A.U. after    7 cycles
 Optimization completed.
    -- Stationary point found.
 Normal termination of Gaussian 09 at Tue Jan 28 12:57:47 2020.

 ----------------------------------------------------------------------
 #N Geom=AllCheck Guess=TCheck SCRF=Check GenChk RB3LYP/6-31G(2df,p) Fr
 eq
 ----------------------------------------------------------------------

 Structure from the checkpoint file:  "/scratch/puck/g09_78ba7e1a-8e07-4f01-b41d-cf90bf412b8c/Gau-1446.chk"
 -----
 titel
 -----
 Charge =  0 Multiplicity = 1

                         Standard orientation:
 ---------------------------------------------------------------------
 Center     Atomic      Atomic             Coordinates (Angstroms)
 Number     Number       Type             X           Y           Z
 ---------------------------------------------------------------------
      1          8           0       -1.087600    2.424335   -0.162003
      2          6           0        0.147800    1.882369    0.274287
      3          6           0        0.332380    0.440177   -0.158639
      4          6           0        1.597721   -0.348676    0.231344
      5          8           0        2.600379   -0.332349   -0.753004
      6          6           0        0.719170   -1.618083    0.406503
      7          6           0       -0.512086   -0.669055    0.560721
      8          6           0       -1.794234   -1.042360    0.003803
      9          6           0       -2.861100   -1.328668   -0.473833
     10          1           0       -1.786061    1.807154    0.082250
     11          1           0        0.929537    2.509565   -0.168638
     12          1           0        0.253263    1.955734    1.371101
     13          1           0        0.191271    0.353775   -1.240479
     14          1           0        1.984290   -0.008226    1.204615
     15          1           0        3.377552   -0.784225   -0.409520
     16          1           0        0.667932   -2.170194   -0.534667
     17          1           0        0.934296   -2.303297    1.229074
     18          1           0       -0.632889   -0.399337    1.617465
     19          1           0       -3.799326   -1.591070   -0.896269
 ---------------------------------------------------------------------

 SCF Done:  E(RB3LYP) =  -423.128895863     A.U. after    1 cycles

 The electronic state is 1-A.
 Alpha  occ. eigenvalues --  -19.14489 -19.12978 -10.24177 -10.22526 -10.21791
 Alpha  occ. eigenvalues --  -10.19222 -10.19180 -10.18476 -10.17568  -1.02885
 Alpha  occ. eigenvalues --   -1.01133  -0.86090  -0.75413  -0.71625  -0.67061
 Alpha  occ. eigenvalues --   -0.63022  -0.57324  -0.54880  -0.51666  -0.50181
 Alpha  occ. eigenvalues --   -0.47928  -0.46095  -0.44146  -0.40858  -0.38717
 Alpha  occ. eigenvalues --   -0.37304  -0.36983  -0.35691  -0.33530  -0.31293
 Alpha  occ. eigenvalues --   -0.27788  -0.26430  -0.26010  -0.25875
 Alpha virt. eigenvalues --    0.04031   0.04723   0.06989   0.08290   0.10228
 Alpha virt. eigenvalues --    0.11573   0.12811   0.13100   0.15086   0.16606
 Alpha virt. eigenvalues --    0.17593   0.17808   0.19440   0.20420   0.22025

 Mulliken charges:
               1
     1  O   -0.420543
     2  C   -0.091709
     3  C   -0.003916
     4  C    0.099962
     5  O   -0.431547
     6  C   -0.287024
     7  C   -0.196926
     8  C    0.305835
     9  C   -0.442171
    10  H    0.288636
    11  H    0.118206
    12  H    0.076850
    13  H    0.106018
    14  H    0.068320
    15  H    0.285413
    16  H    0.123402
    17  H    0.102663
    18  H    0.100930
    19  H    0.197601
 Sum of Mulliken charges =   0.00000

 Dipole moment (field-independent basis, Debye):
    X=              1.1445    Y=             -1.9522    Z=              1.7727  Tot=              2.8746
 Quadrupole moment (field-independent basis, Debye-Ang):
   XX=            -45.1736   YY=            -58.7306   ZZ=            -53.7344
   XY=             -0.1536   XZ=              3.8019   YZ=              1.6475

  Exact polarizability:  99.810   6.017  73.521   8.020   1.246  62.475
 Approx polarizability: 143.272  10.459  99.138  16.253   2.154 100.142

                      1                      2                      3
                      A                      A                      A
 Frequencies --     72.0888                89.4275               121.7996
 Red. masses --      4.3528                 4.3045                 3.6452
 Frc consts  --      0.0133                 0.0203                 0.0319
 IR Inten    --      0.5006                 1.3408                 0.2285

                      4                      5                      6
                      A                      A                      A
 Frequencies --    193.9108               212.8500               262.0559
 Red. masses --      2.5448                 2.7435                 1.1728
 Frc consts  --      0.0564                 0.0732                 0.0475
 IR Inten    --      4.8244                 4.1012                74.6882

                      7                      8                      9
                      A                      A                      A
 Frequencies --    282.9659               311.1011               359.5859
 Red. masses --      4.1690                 1.3336                 2.3988
 Frc consts  --      0.1967                 0.0760                 0.1827
 IR Inten    --      6.3489               122.9891                16.7653

                     10                     11                     12
                      A                      A                      A
 Frequencies --    444.6481               484.7245               499.9954
 Red. masses --      4.5046                 3.8247                 4.4834
 Frc consts  --      0.5247                 0.5295                 0.6604
 IR Inten    --     10.6890                 4.8602                 5.4983

                     13                     14                     15
                      A                      A                      A
 Frequencies --    526.2901               587.9884               621.1647
 Red. masses --      3.7572                 2.5329                 1.2190
 Frc consts  --      0.6131                 0.5159                 0.2771
 IR Inten    --      4.8175                 4.1372                44.4261

                     16                     17                     18
                      A                      A                      A
 Frequencies --    634.8315               791.1610               857.6987
 Red. masses --      1.2172                 2.3534                 2.1077
 Frc consts  --      0.2890                 0.8679                 0.9135
 IR Inten    --     40.6424                 3.9820                 2.2658

                     19                     20                     21
                      A                      A                      A
 Frequencies --    901.6887               992.1336              1013.5798
 Red. masses --      1.6970                 2.3163                 3.8310
 Frc consts  --      0.8129                 1.3434                 2.3189
 IR Inten    --      2.1720                 6.3862                 7.3350

                     22                     23                     24
                      A                      A                      A
 Frequencies --   1044.5175              1056.7450              1098.1449
 Red. masses --      2.2991                 4.5879                 1.8272
 Frc consts  --      1.4779                 3.0186                 1.2982
 IR Inten    --     30.0816                76.5123                 1.1649

                     25                     26                     27
                      A                      A                      A
 Frequencies --   1103.0565              1129.8428              1142.5704
 Red. masses --      2.2446                 2.7948                 2.1119
 Frc consts  --      1.6091                 2.1020                 1.6244
 IR Inten    --     33.2237                19.3977                47.5206

                     28                     29                     30
                      A                      A                      A
 Frequencies --   1199.1642              1206.2818              1225.0404
 Red. masses --      1.3350                 1.1770                 1.2347
 Frc consts  --      1.1311                 1.0091                 1.0917
 IR Inten    --     10.6333                11.8920                 4.1909

                     31                     32                     33
                      A                      A                      A
 Frequencies --   1245.1866              1277.6564              1312.8592
 Red. masses --      1.3474                 1.3492                 1.3170
 Frc consts  --      1.2309                 1.2977                 1.3375
 IR Inten    --      6.1028                22.6184                61.8905

                     34                     35                     36
                      A                      A                      A
 Frequencies --   1336.2131              1364.5598              1386.4323
 Red. masses --      1.4179                 1.4484                 1.2335
 Frc consts  --      1.4916                 1.5890                 1.3969
 IR Inten    --      9.3451                 4.7948                 7.3912

                     37                     38                     39
                      A                      A                      A
 Frequencies --   1428.1208              1444.0487              1489.4283
 Red. masses --      1.3007                 1.4536                 1.1751
 Frc consts  --      1.5630                 1.7859                 1.5358
 IR Inten    --     46.4266                14.8314                 6.3810

                     40                     41                     42
                      A                      A                      A
 Frequencies --   1509.4951              2230.3169              2947.8558
 Red. masses --      1.0892                 5.9915                 1.0721
 Frc consts  --      1.4623                17.5597                 5.4891
 IR Inten    --      0.8436                 5.3316                46.5809

                     43                     44                     45
                      A                      A                      A
 Frequencies --   2979.9626              3023.8783              3063.3746
 Red. masses --      1.0835                 1.0822                 1.0871
 Frc consts  --      5.6691                 5.8302                 6.0107
 IR Inten    --     56.7612                14.7458                22.0051

                     46                     47                     48
                      A                      A                      A
 Frequencies --   3068.9097              3080.0186              3133.3330
 Red. masses --      1.0588                 1.0857                 1.1093
 Frc consts  --      5.8753                 6.0685                 6.4166
 IR Inten    --     31.0510                16.4242                23.0676

                     49                     50                     51
                      A                      A                      A
 Frequencies --   3503.6803              3803.6378              3819.4956
 Red. masses --      1.1606                 1.0663                 1.0662
 Frc consts  --      8.3941                 9.0894                 9.1642
 IR Inten    --     76.8054                20.8812                27.1990

 - Thermochemistry -
 -------------------
 Temperature   298.150 Kelvin.  Pressure   1.00000 Atm.
 Atom     1 has atomic number  8 and mass  15.99491

 Molecular mass:   126.06808 amu.
 Principal axes and moments of inertia in atomic units:
                           1         2         3
     Eigenvalues --   964.891151326.719562076.94494
           X            0.99991  -0.00348   0.01279
           Y            0.00340   0.99997   0.00648
           Z           -0.01281  -0.00644   0.99990
 This molecule is an asymmetric top.
 Rotational symmetry number  1.
 Warning -- assumption of classical behavior for rotation
           may cause significant error
 Rotational temperatures (Kelvin)      0.08977     0.06528     0.04170
 Rotational constants (GHZ):           1.87041     1.36030     0.86894
 Zero-point vibrational energy     412206.3 (Joules/Mol)
                                   98.51968 (Kcal/Mol)
 Warning -- explicit consideration of  14 degrees of freedom as
           vibrations may cause significant error
 Vibrational temperatures:    103.72   128.67   175.24   278.99   306.24
          (Kelvin)            377.04   407.12   447.60   517.36   639.75
                              697.41   719.38   757.21   845.98   893.72
                              913.38  1138.30  1234.04  1297.33  1427.46
                             1458.31  1502.83  1520.42  1579.98  1587.05
                             1625.59  1643.90  1725.33  1735.57  1762.56
                             1791.54  1838.26  1888.91  1922.51  1963.29
                             1994.76  2054.74  2077.66  2142.95  2171.82
                             3208.92  4241.30  4287.50  4350.68  4407.51
                             4415.47  4431.45  4508.16  5041.01  5472.58
                             5495.40

 Zero-point correction=                           0.157001 (Hartree/Particle)
 Thermal correction to Energy=                    0.166801
 Thermal correction to Enthalpy=                  0.167746
 Thermal correction to Gibbs Free Energy=         0.122169
 Sum of electronic and zero-point Energies=           -422.971895
 Sum of electronic and thermal Energies=              -422.962095
 Sum of electronic and thermal Enthalpies=            -422.961150
 Sum of electronic and thermal Free Energies=         -423.006727

                     E (Thermal)             CV                S
                      KCal/Mol        Cal/Mol-Kelvin    Cal/Mol-Kelvin
 Total                  104.669             36.204             95.925
 Electronic               0.000              0.000              0.000
 Translational            0.889              2.981             40.409
 Rotational               0.889              2.981             29.365
 Vibrational            102.892             30.243             26.151
 Vibration     1          0.598              1.967              4.096
 Vibration     2          0.602              1.957              3.673
 Vibration     3          0.609              1.931              3.072
 Vibration     4          0.635              1.848              2.190
 Vibration     5          0.644              1.821              2.019
 Vibration     6          0.669              1.742              1.648
 Vibration     7          0.682              1.705              1.516
 Vibration     8          0.700              1.653              1.356
 Vibration     9          0.734              1.556              1.124
 Vibration    10          0.804              1.373              0.812
 Vibration    11          0.841              1.284              0.697
 Vibration    12          0.855              1.250              0.658
 Vibration    13          0.881              1.192              0.596
 Vibration    14          0.945              1.057              0.471

 Optimization completed.
    -- Stationary point found.
 Normal termination of Gaussian 09 at Tue Jan 28 13:41:41 2020.
