 Gaussian 09, Revision D.01,
 Gaussian 09:  ES64L-G09RevD.01 24-Apr-2013

 -----------------------------
 # b3lyp 6-31G(2df,p) opt Freq
 -----------------------------

 -----
 titel
 -----
 Symbolic Z-matrix:
 Charge =  0 Multiplicity = 1

 SCF Done:  E(RB3LYP) =  -423.154307874     A.U. after   13 cycles
 Optimization completed.
    -- Stationary point found.
 Normal termination of Gaussian 09 at Tue Jan 28 03:27:22 2020.

 ----------------------------------------------------------------------
 #N Geom=AllCheck Guess=TCheck SCRF=Check GenChk RB3LYP/6-31G(2df,p) Fr
 eq
 ----------------------------------------------------------------------

 Structure from the checkpoint file:  "/scratch/puck/g09_7e857cfa-64fc-4871-a3cf-91e664f48510/Gau-115362.chk"
 -----
 titel
 -----
 Charge =  0 Multiplicity = 1

                         Standard orientation:
 ---------------------------------------------------------------------
 Center     Atomic      Atomic             Coordinates (Angstroms)
 Number     Number       Type             X           Y           Z
 ---------------------------------------------------------------------
      1          6           0        2.535432   -0.283794    0.366052
      2          6           0        1.215867   -0.736965   -0.252475
      3          8           0        0.787132    0.160842   -1.299879
      4          6           0       -0.434595    0.757406   -0.896313
      5          6           0       -0.248814    1.672782    0.357871
      6          6           0       -0.631991    0.474125    1.228242
      7          6           0        0.019981   -0.815973    0.689959
      8          6           0       -1.178365   -0.270852    0.010900
      9          8           0       -2.320786   -0.998438   -0.233004
     10          1           0        2.423509    0.652592    0.918334
     11          1           0        2.904651   -1.046791    1.060292
     12          1           0        3.288536   -0.139505   -0.413925
     13          1           0        1.369988   -1.721692   -0.717168
     14          1           0       -0.930406    1.176141   -1.772197
     15          1           0        0.741968    2.121543    0.467269
     16          1           0       -1.009488    2.458867    0.408880
     17          1           0       -1.010177    0.502231    2.243582
     18          1           0       -0.105996   -1.690828    1.317345
     19          1           0       -3.068434   -0.392171   -0.274757
 ---------------------------------------------------------------------

 SCF Done:  E(RB3LYP) =  -423.154307874     A.U. after    1 cycles

 The electronic state is 1-A.
 Alpha  occ. eigenvalues --  -19.15585 -19.12952 -10.23553 -10.23035 -10.22892
 Alpha  occ. eigenvalues --  -10.19441 -10.19024 -10.18258 -10.17026  -1.04557
 Alpha  occ. eigenvalues --   -1.02582  -0.87922  -0.77049  -0.71216  -0.64301
 Alpha  occ. eigenvalues --   -0.61556  -0.57748  -0.55963  -0.52738  -0.47716
 Alpha  occ. eigenvalues --   -0.44780  -0.43660  -0.42058  -0.41117  -0.40179
 Alpha  occ. eigenvalues --   -0.38584  -0.37325  -0.36968  -0.35112  -0.32290
 Alpha  occ. eigenvalues --   -0.29908  -0.27991  -0.24667  -0.22889
 Alpha virt. eigenvalues --    0.07271   0.09138   0.10766   0.11640   0.13350
 Alpha virt. eigenvalues --    0.13729   0.14658   0.15497   0.16578   0.16981
 Alpha virt. eigenvalues --    0.18457   0.19327   0.20357   0.21167   0.22758

 Mulliken charges:
               1
     1  C   -0.397719
     2  C    0.114931
     3  O   -0.282711
     4  C    0.013550
     5  C   -0.247652
     6  C   -0.168781
     7  C   -0.116882
     8  C    0.363584
     9  O   -0.460169
    10  H    0.119875
    11  H    0.110726
    12  H    0.124066
    13  H    0.080616
    14  H    0.080415
    15  H    0.100208
    16  H    0.094000
    17  H    0.088082
    18  H    0.095837
    19  H    0.288023
 Sum of Mulliken charges =   0.00000

 Dipole moment (field-independent basis, Debye):
    X=             -1.1062    Y=              0.8493    Z=              1.3180  Tot=              1.9188
 Quadrupole moment (field-independent basis, Debye-Ang):
   XX=            -48.5310   YY=            -53.3645   ZZ=            -54.8096
   XY=             -4.8107   XZ=              1.5555   YZ=             -1.1434

  Exact polarizability:  82.400  -4.494  73.336   1.321  -0.384  66.985
 Approx polarizability: 111.801  -4.840 109.732   2.323   0.682 104.681

                      1                      2                      3
                      A                      A                      A
 Frequencies --    149.0346               204.6241               212.8577
 Red. masses --      3.1728                 1.6428                 1.5336
 Frc consts  --      0.0415                 0.0405                 0.0409
 IR Inten    --      2.1853                 0.6651                 2.4389

                      4                      5                      6
                      A                      A                      A
 Frequencies --    263.4585               318.3786               362.7577
 Red. masses --      3.0952                 1.3565                 2.4463
 Frc consts  --      0.1266                 0.0810                 0.1897
 IR Inten    --      3.6005                47.9128                53.1110

                      7                      8                      9
                      A                      A                      A
 Frequencies --    416.6814               448.4309               532.3669
 Red. masses --      2.6031                 3.4847                 2.9148
 Frc consts  --      0.2663                 0.4129                 0.4867
 IR Inten    --      7.3059                 2.2287                 0.5416

                     10                     11                     12
                      A                      A                      A
 Frequencies --    608.1375               650.9399               705.2905
 Red. masses --      3.5645                 4.4057                 3.9554
 Frc consts  --      0.7767                 1.0999                 1.1592
 IR Inten    --     12.0249                 4.9590                 9.7254

                     13                     14                     15
                      A                      A                      A
 Frequencies --    778.2365               824.8921               835.3550
 Red. masses --      2.9391                 2.8225                 2.5269
 Frc consts  --      1.0488                 1.1315                 1.0389
 IR Inten    --      3.6060                 4.6725                11.2949

                     16                     17                     18
                      A                      A                      A
 Frequencies --    894.3048               922.3079               930.4356
 Red. masses --      1.8483                 3.1589                 2.1395
 Frc consts  --      0.8710                 1.5832                 1.0913
 IR Inten    --      9.4522                 6.1801                 5.3001

                     19                     20                     21
                      A                      A                      A
 Frequencies --    946.3385              1006.3907              1008.4503
 Red. masses --      1.7574                 1.5832                 1.6852
 Frc consts  --      0.9273                 0.9447                 1.0097
 IR Inten    --      2.4876                19.1706                 7.4150

                     22                     23                     24
                      A                      A                      A
 Frequencies --   1026.9915              1062.4233              1104.7977
 Red. masses --      2.2068                 2.1158                 2.1476
 Frc consts  --      1.3713                 1.4071                 1.5444
 IR Inten    --      8.6016                61.1771                 8.5446

                     25                     26                     27
                      A                      A                      A
 Frequencies --   1112.4272              1128.1650              1152.6484
 Red. masses --      2.3617                 1.8613                 1.7278
 Frc consts  --      1.7220                 1.3957                 1.3525
 IR Inten    --     13.9912                 1.6103                10.4524

                     28                     29                     30
                      A                      A                      A
 Frequencies --   1159.8677              1170.7227              1234.0189
 Red. masses --      1.6650                 1.6334                 2.4830
 Frc consts  --      1.3198                 1.3190                 2.2278
 IR Inten    --     29.1301                19.9817                18.8992

                     31                     32                     33
                      A                      A                      A
 Frequencies --   1273.5660              1294.6387              1317.6711
 Red. masses --      1.4138                 1.9286                 1.3315
 Frc consts  --      1.3511                 1.9045                 1.3620
 IR Inten    --      1.6649                98.0810                21.8091

                     34                     35                     36
                      A                      A                      A
 Frequencies --   1334.8036              1356.5066              1385.6407
 Red. masses --      1.4258                 1.5109                 1.3576
 Frc consts  --      1.4968                 1.6381                 1.5357
 IR Inten    --     33.0892                20.3512                13.6098

                     37                     38                     39
                      A                      A                      A
 Frequencies --   1405.9460              1478.1957              1487.9060
 Red. masses --      1.2815                 1.5678                 1.2827
 Frc consts  --      1.4924                 2.0183                 1.6731
 IR Inten    --     11.9551                21.1660                 7.2999

                     40                     41                     42
                      A                      A                      A
 Frequencies --   1494.4122              1505.1850              2994.0061
 Red. masses --      1.0736                 1.4090                 1.0846
 Frc consts  --      1.4127                 1.8808                 5.7285
 IR Inten    --      2.9991                22.8333                52.8061

                     43                     44                     45
                      A                      A                      A
 Frequencies --   3038.6562              3043.9080              3098.1432
 Red. masses --      1.0372                 1.0577                 1.1063
 Frc consts  --      5.6424                 5.7741                 6.2562
 IR Inten    --     20.5347                39.3453                31.6189

                     46                     47                     48
                      A                      A                      A
 Frequencies --   3107.4501              3119.2374              3127.0580
 Red. masses --      1.0995                 1.0906                 1.1018
 Frc consts  --      6.2551                 6.2517                 6.3477
 IR Inten    --     24.1935                40.2944                24.2978

                     49                     50                     51
                      A                      A                      A
 Frequencies --   3179.0794              3191.4506              3795.8915
 Red. masses --      1.0914                 1.0914                 1.0661
 Frc consts  --      6.4990                 6.5496                 9.0507
 IR Inten    --     11.3306                10.8654                23.8642

 - Thermochemistry -
 -------------------
 Temperature   298.150 Kelvin.  Pressure   1.00000 Atm.
 Atom     1 has atomic number  6 and mass  12.00000

 Molecular mass:   126.06808 amu.
 Principal axes and moments of inertia in atomic units:
                           1         2         3
     Eigenvalues --   620.571801192.431361254.15713
           X            0.99931  -0.03261   0.01791
           Y            0.03296   0.99926  -0.01962
           Z           -0.01726   0.02019   0.99965
 This molecule is an asymmetric top.
 Rotational symmetry number  1.
 Warning -- assumption of classical behavior for rotation
           may cause significant error
 Rotational temperatures (Kelvin)      0.13957     0.07264     0.06906
 Rotational constants (GHZ):           2.90819     1.51350     1.43901
 Zero-point vibrational energy     419895.7 (Joules/Mol)
                                  100.35749 (Kcal/Mol)
 Warning -- explicit consideration of  10 degrees of freedom as
           vibrations may cause significant error
 Vibrational temperatures:    214.43   294.41   306.25   379.06   458.08
          (Kelvin)            521.93   599.51   645.19   765.96   874.97
                              936.56  1014.75  1119.71  1186.83  1201.89
                             1286.70  1326.99  1338.69  1361.57  1447.97
                             1450.93  1477.61  1528.59  1589.56  1600.53
                             1623.18  1658.40  1668.79  1684.41  1775.48
                             1832.38  1862.69  1895.83  1920.48  1951.71
                             1993.63  2022.84  2126.79  2140.76  2150.12
                             2165.62  4307.70  4371.94  4379.50  4457.53
                             4470.92  4487.88  4499.13  4573.98  4591.78
                             5461.43

 Zero-point correction=                           0.159930 (Hartree/Particle)
 Thermal correction to Energy=                    0.167664
 Thermal correction to Enthalpy=                  0.168608
 Thermal correction to Gibbs Free Energy=         0.128224
 Sum of electronic and zero-point Energies=           -422.994378
 Sum of electronic and thermal Energies=              -422.986644
 Sum of electronic and thermal Enthalpies=            -422.985700
 Sum of electronic and thermal Free Energies=         -423.026084

                     E (Thermal)             CV                S
                      KCal/Mol        Cal/Mol-Kelvin    Cal/Mol-Kelvin
 Total                  105.211             31.267             84.996
 Electronic               0.000              0.000              0.000
 Translational            0.889              2.981             40.409
 Rotational               0.889              2.981             28.319
 Vibrational            103.433             25.305             16.268
 Vibration     1          0.618              1.904              2.685
 Vibration     2          0.640              1.833              2.091
 Vibration     3          0.644              1.821              2.019
 Vibration     4          0.670              1.740              1.639
 Vibration     5          0.705              1.638              1.318
 Vibration     6          0.737              1.549              1.110
 Vibration     7          0.780              1.434              0.903
 Vibration     8          0.807              1.364              0.801
 Vibration     9          0.887              1.178              0.582
 Vibration    10          0.967              1.015              0.436

 Normal termination of Gaussian 09 at Tue Jan 28 04:11:44 2020.
