 Gaussian 09, Revision D.01,
 Gaussian 09:  ES64L-G09RevD.01 24-Apr-2013

 -----------------------------
 # b3lyp 6-31G(2df,p) opt Freq
 -----------------------------

 -----
 titel
 -----
 Symbolic Z-matrix:
 Charge =  0 Multiplicity = 1

 SCF Done:  E(RB3LYP) =  -423.149473794     A.U. after   12 cycles
 Optimization completed.
    -- Stationary point found.
 Normal termination of Gaussian 09 at Mon Jan 27 18:00:00 2020.

 ----------------------------------------------------------------------
 #N Geom=AllCheck Guess=TCheck SCRF=Check GenChk RB3LYP/6-31G(2df,p) Fr
 eq
 ----------------------------------------------------------------------

 Structure from the checkpoint file:  "/scratch/puck/g09_9c761b85-c107-4986-81cb-5799c3b791fb/Gau-64191.chk"
 -----
 titel
 -----
 Charge =  0 Multiplicity = 1

                         Standard orientation:
 ---------------------------------------------------------------------
 Center     Atomic      Atomic             Coordinates (Angstroms)
 Number     Number       Type             X           Y           Z
 ---------------------------------------------------------------------
      1          6           0        2.445156   -0.376751   -0.009163
      2          6           0        0.945057   -0.462172    0.010367
      3          6           0        0.044889   -1.729428    0.040473
      4          6           0       -0.942478   -0.557009    0.022491
      5          8           0       -2.317196   -0.679546    0.037373
      6          6           0       -0.026314    0.231609    1.032651
      7          6           0       -0.107041    1.697760    0.634450
      8          8           0       -0.125093    1.588930   -0.803568
      9          6           0       -0.045960    0.185158   -1.004449
     10          1           0        2.859172   -0.910598   -0.871371
     11          1           0        2.774948    0.665681   -0.074684
     12          1           0        2.882214   -0.813192    0.895491
     13          1           0        0.065896   -2.371121   -0.845858
     14          1           0        0.078730   -2.322092    0.958028
     15          1           0       -2.696358    0.157472   -0.254046
     16          1           0       -0.004056   -0.046575    2.086522
     17          1           0       -1.020054    2.196058    0.987145
     18          1           0        0.756896    2.293988    0.953923
     19          1           0       -0.038928   -0.059702   -2.066514
 ---------------------------------------------------------------------

 SCF Done:  E(RB3LYP) =  -423.149473794     A.U. after    1 cycles

 The electronic state is 1-A.
 Alpha  occ. eigenvalues --  -19.14809 -19.13721 -10.24255 -10.23001 -10.22618
 Alpha  occ. eigenvalues --  -10.20382 -10.19148 -10.18550 -10.18081  -1.05026
 Alpha  occ. eigenvalues --   -1.02612  -0.89499  -0.73257  -0.72933  -0.66415
 Alpha  occ. eigenvalues --   -0.59792  -0.59445  -0.54974  -0.51832  -0.48521
 Alpha  occ. eigenvalues --   -0.45828  -0.43473  -0.42384  -0.40970  -0.40742
 Alpha  occ. eigenvalues --   -0.39698  -0.37305  -0.34027  -0.32986  -0.32815
 Alpha  occ. eigenvalues --   -0.32083  -0.29908  -0.27156  -0.22617
 Alpha virt. eigenvalues --    0.07129   0.09933   0.11541   0.12741   0.13430
 Alpha virt. eigenvalues --    0.13830   0.14655   0.15865   0.16500   0.17112
 Alpha virt. eigenvalues --    0.17549   0.17935   0.18782   0.20157   0.22408

 Mulliken charges:
               1
     1  C   -0.520966
     2  C    0.300657
     3  C   -0.335440
     4  C    0.381625
     5  O   -0.477478
     6  C   -0.159811
     7  C   -0.126308
     8  O   -0.289884
     9  C    0.017670
    10  H    0.122715
    11  H    0.128444
    12  H    0.120734
    13  H    0.092973
    14  H    0.098445
    15  H    0.290482
    16  H    0.072545
    17  H    0.096965
    18  H    0.103504
    19  H    0.083126
 Sum of Mulliken charges =   0.00000

 Dipole moment (field-independent basis, Debye):
    X=              0.7439    Y=              0.1269    Z=              0.6165  Tot=              0.9745
 Quadrupole moment (field-independent basis, Debye-Ang):
   XX=            -52.8771   YY=            -55.6159   ZZ=            -51.9677
   XY=             -4.0227   XZ=              1.1297   YZ=              3.0169

  Exact polarizability:  77.521  -2.267  77.914   0.162   3.572  68.163
 Approx polarizability: 108.567  -1.591 113.302   0.531   2.461 107.267

                      1                      2                      3
                      A                      A                      A
 Frequencies --    190.9179               197.1937               213.5552
 Red. masses --      1.1264                 2.1014                 2.2714
 Frc consts  --      0.0242                 0.0481                 0.0610
 IR Inten    --      0.5575                26.8220                 4.0000

                      4                      5                      6
                      A                      A                      A
 Frequencies --    229.3437               244.8630               279.3363
 Red. masses --      2.8546                 2.6866                 1.6144
 Frc consts  --      0.0885                 0.0949                 0.0742
 IR Inten    --      4.9242                 1.4806                59.0018

                      7                      8                      9
                      A                      A                      A
 Frequencies --    410.2683               456.0273               517.3208
 Red. masses --      2.1193                 2.6008                 3.0288
 Frc consts  --      0.2102                 0.3187                 0.4776
 IR Inten    --      1.2533                 3.7166                 3.4337

                     10                     11                     12
                      A                      A                      A
 Frequencies --    597.7227               663.7517               697.9462
 Red. masses --      5.1495                 3.0544                 4.6803
 Frc consts  --      1.0840                 0.7928                 1.3433
 IR Inten    --      4.3301                 0.9914                 4.0251

                     13                     14                     15
                      A                      A                      A
 Frequencies --    736.4313               773.8401               832.8390
 Red. masses --      3.3426                 5.4667                 2.8040
 Frc consts  --      1.0681                 1.9288                 1.1459
 IR Inten    --      9.3810                15.1221                 4.3319

                     16                     17                     18
                      A                      A                      A
 Frequencies --    913.4965               947.9162               977.4600
 Red. masses --      2.3887                 3.4750                 1.3867
 Frc consts  --      1.1744                 1.8397                 0.7806
 IR Inten    --      5.2999                23.5901                 8.8520

                     19                     20                     21
                      A                      A                      A
 Frequencies --    986.3226              1002.3435              1015.8363
 Red. masses --      1.3978                 3.9450                 1.7479
 Frc consts  --      0.8012                 2.3352                 1.0627
 IR Inten    --      2.2661                14.9072                 7.3168

                     22                     23                     24
                      A                      A                      A
 Frequencies --   1036.3008              1077.6984              1082.0129
 Red. masses --      1.5497                 1.8301                 2.9609
 Frc consts  --      0.9805                 1.2523                 2.0424
 IR Inten    --      1.1008                44.5065                48.0480

                     25                     26                     27
                      A                      A                      A
 Frequencies --   1099.7417              1125.7476              1144.9959
 Red. masses --      1.9232                 1.4788                 1.5898
 Frc consts  --      1.3704                 1.1042                 1.2280
 IR Inten    --     14.5089                 9.6157                 1.8412

                     28                     29                     30
                      A                      A                      A
 Frequencies --   1175.1976              1191.6922              1197.4327
 Red. masses --      2.0459                 1.9091                 1.3282
 Frc consts  --      1.6647                 1.5974                 1.1221
 IR Inten    --      2.8493                10.5773                 4.8167

                     31                     32                     33
                      A                      A                      A
 Frequencies --   1269.7511              1271.8173              1313.0228
 Red. masses --      1.9436                 1.4269                 2.8026
 Frc consts  --      1.8463                 1.3599                 2.8468
 IR Inten    --     74.4651                33.9788               124.1840

                     34                     35                     36
                      A                      A                      A
 Frequencies --   1345.5243              1371.6516              1410.5324
 Red. masses --      1.7945                 1.7440                 1.2942
 Frc consts  --      1.9142                 1.9333                 1.5171
 IR Inten    --     11.5967                 5.2374                10.3138

                     37                     38                     39
                      A                      A                      A
 Frequencies --   1426.4775              1490.0442              1492.3196
 Red. masses --      2.2827                 1.0466                 1.0491
 Frc consts  --      2.7368                 1.3690                 1.3766
 IR Inten    --     17.2580                 3.7567                 4.2763

                     40                     41                     42
                      A                      A                      A
 Frequencies --   1524.3432              1528.7933              3008.4420
 Red. masses --      1.1053                 1.3113                 1.0571
 Frc consts  --      1.5132                 1.8057                 5.6369
 IR Inten    --      1.7757                10.0290                74.5231

                     43                     44                     45
                      A                      A                      A
 Frequencies --   3028.2733              3043.6494              3047.9266
 Red. masses --      1.0353                 1.1080                 1.0557
 Frc consts  --      5.5939                 6.0474                 5.7782
 IR Inten    --     26.8133                40.9800                44.4684

                     46                     47                     48
                      A                      A                      A
 Frequencies --   3093.5239              3097.3926              3110.7941
 Red. masses --      1.1011                 1.1007                 1.1095
 Frc consts  --      6.2086                 6.2215                 6.3260
 IR Inten    --     16.7027                18.1619                21.9908

                     49                     50                     51
                      A                      A                      A
 Frequencies --   3120.6551              3131.1029              3800.5269
 Red. masses --      1.0884                 1.0909                 1.0657
 Frc consts  --      6.2452                 6.3011                 9.0693
 IR Inten    --     44.9348                18.4525                28.1756

 - Thermochemistry -
 -------------------
 Temperature   298.150 Kelvin.  Pressure   1.00000 Atm.
 Atom     1 has atomic number  6 and mass  12.00000

 Molecular mass:   126.06808 amu.
 Principal axes and moments of inertia in atomic units:
                           1         2         3
     Eigenvalues --   729.15328 952.209851297.14445
           X            0.99751  -0.07049   0.00167
           Y            0.07036   0.99663   0.04210
           Z           -0.00463  -0.04188   0.99911
 This molecule is an asymmetric top.
 Rotational symmetry number  1.
 Warning -- assumption of classical behavior for rotation
           may cause significant error
 Rotational temperatures (Kelvin)      0.11879     0.09096     0.06677
 Rotational constants (GHZ):           2.47512     1.89532     1.39132
 Zero-point vibrational energy     418346.8 (Joules/Mol)
                                   99.98727 (Kcal/Mol)
 Warning -- explicit consideration of  10 degrees of freedom as
           vibrations may cause significant error
 Vibrational temperatures:    274.69   283.72   307.26   329.97   352.30
          (Kelvin)            401.90   590.28   656.12   744.31   859.99
                              954.99  1004.19  1059.56  1113.38  1198.27
                             1314.32  1363.84  1406.35  1419.10  1442.15
                             1461.56  1491.00  1550.57  1556.77  1582.28
                             1619.70  1647.39  1690.85  1714.58  1722.84
                             1826.89  1829.86  1889.14  1935.91  1973.50
                             2029.44  2052.38  2143.84  2147.11  2193.19
                             2199.59  4328.47  4357.00  4379.13  4385.28
                             4450.89  4456.45  4475.73  4489.92  4504.95
                             5468.10

 Zero-point correction=                           0.159340 (Hartree/Particle)
 Thermal correction to Energy=                    0.167276
 Thermal correction to Enthalpy=                  0.168220
 Thermal correction to Gibbs Free Energy=         0.127480
 Sum of electronic and zero-point Energies=           -422.990134
 Sum of electronic and thermal Energies=              -422.982198
 Sum of electronic and thermal Enthalpies=            -422.981254
 Sum of electronic and thermal Free Energies=         -423.021994

                     E (Thermal)             CV                S
                      KCal/Mol        Cal/Mol-Kelvin    Cal/Mol-Kelvin
 Total                  104.967             31.596             85.745
 Electronic               0.000              0.000              0.000
 Translational            0.889              2.981             40.409
 Rotational               0.889              2.981             28.290
 Vibrational            103.190             25.635             17.047
 Vibration     1          0.634              1.852              2.219
 Vibration     2          0.637              1.844              2.159
 Vibration     3          0.644              1.820              2.013
 Vibration     4          0.652              1.796              1.884
 Vibration     5          0.660              1.771              1.767
 Vibration     6          0.680              1.712              1.538
 Vibration     7          0.774              1.448              0.926
 Vibration     8          0.814              1.348              0.778
 Vibration     9          0.872              1.212              0.616
 Vibration    10          0.956              1.037              0.454

 Normal termination of Gaussian 09 at Mon Jan 27 18:43:38 2020.
