 Gaussian 09, Revision D.01,
 Gaussian 09:  ES64L-G09RevD.01 24-Apr-2013

 -----------------------------
 # b3lyp 6-31G(2df,p) opt Freq
 -----------------------------

 -----
 titel
 -----
 Symbolic Z-matrix:
 Charge =  0 Multiplicity = 1

 SCF Done:  E(RB3LYP) =  -423.206176103     A.U. after   14 cycles
 Optimization completed.
    -- Stationary point found.
 Normal termination of Gaussian 09 at Tue Jan 28 00:36:36 2020.

 ----------------------------------------------------------------------
 #N Geom=AllCheck Guess=TCheck SCRF=Check GenChk RB3LYP/6-31G(2df,p) Fr
 eq
 ----------------------------------------------------------------------

 Structure from the checkpoint file:  "/scratch/puck/g09_84042be9-b299-4a19-b2a4-51e5be7074ce/Gau-189481.chk"
 -----
 titel
 -----
 Charge =  0 Multiplicity = 1

                         Standard orientation:
 ---------------------------------------------------------------------
 Center     Atomic      Atomic             Coordinates (Angstroms)
 Number     Number       Type             X           Y           Z
 ---------------------------------------------------------------------
      1          6           0       -1.886282   -1.844010    0.418295
      2          6           0       -1.149163   -0.802944   -0.392144
      3          8           0       -1.891099    0.470088   -0.459394
      4          6           0       -0.839221    1.174291    0.067295
      5          8           0       -0.768819    2.346657    0.252053
      6          6           0        0.052441   -0.064111    0.246752
      7          6           0        1.380807   -0.064697   -0.458271
      8          6           0        2.616789    0.413651    0.260436
      9          6           0        2.455021   -1.050106   -0.058432
     10          1           0       -2.844007   -2.091238   -0.048705
     11          1           0       -1.290826   -2.760703    0.482308
     12          1           0       -2.081149   -1.482812    1.432727
     13          1           0       -0.951180   -1.147952   -1.411552
     14          1           0        0.177980   -0.308516    1.307035
     15          1           0        1.323374    0.177077   -1.516316
     16          1           0        3.340615    0.989775   -0.303983
     17          1           0        2.511164    0.726809    1.293376
     18          1           0        3.069522   -1.480421   -0.841024
     19          1           0        2.241487   -1.728417    0.761281
 ---------------------------------------------------------------------

 SCF Done:  E(RB3LYP) =  -423.206176103     A.U. after    1 cycles

 The electronic state is 1-A.
 Alpha  occ. eigenvalues --  -19.17437 -19.12866 -10.30106 -10.25551 -10.21259
 Alpha  occ. eigenvalues --  -10.20832 -10.19714 -10.19506 -10.19467  -1.09933
 Alpha  occ. eigenvalues --   -1.02638  -0.87220  -0.78647  -0.73968  -0.62508
 Alpha  occ. eigenvalues --   -0.60946  -0.60396  -0.54856  -0.51378  -0.49480
 Alpha  occ. eigenvalues --   -0.48133  -0.46501  -0.44186  -0.42332  -0.40994
 Alpha  occ. eigenvalues --   -0.39092  -0.37642  -0.36993  -0.36767  -0.34860
 Alpha  occ. eigenvalues --   -0.31156  -0.29598  -0.29498  -0.26085
 Alpha virt. eigenvalues --    0.01296   0.08550   0.08798   0.09756   0.10355
 Alpha virt. eigenvalues --    0.12165   0.12689   0.13557   0.14480   0.15780
 Alpha virt. eigenvalues --    0.16583   0.17493   0.18828   0.21377   0.22035

 Mulliken charges:
               1
     1  C   -0.410470
     2  C    0.140901
     3  O   -0.262042
     4  C    0.448546
     5  O   -0.328084
     6  C   -0.228794
     7  C    0.017480
     8  C   -0.261717
     9  C   -0.279834
    10  H    0.137972
    11  H    0.128161
    12  H    0.129093
    13  H    0.097214
    14  H    0.102591
    15  H    0.093311
    16  H    0.122042
    17  H    0.122349
    18  H    0.118400
    19  H    0.112881
 Sum of Mulliken charges =   0.00000

 Dipole moment (field-independent basis, Debye):
    X=              1.5811    Y=             -3.8896    Z=             -0.0074  Tot=              4.1987
 Quadrupole moment (field-independent basis, Debye-Ang):
   XX=            -54.2366   YY=            -59.7147   ZZ=            -50.6100
   XY=              4.8552   XZ=             -1.6328   YZ=             -0.6264

  Exact polarizability:  83.080   2.873  82.071   0.694   2.030  62.236
 Approx polarizability: 107.940   2.742 123.254   4.169   5.522  96.788

                      1                      2                      3
                      A                      A                      A
 Frequencies --     65.3906                95.1892               132.7476
 Red. masses --      3.2045                 4.2237                 3.0762
 Frc consts  --      0.0081                 0.0225                 0.0319
 IR Inten    --      1.1297                 0.2529                 1.6791

                      4                      5                      6
                      A                      A                      A
 Frequencies --    185.0536               226.7007               274.6496
 Red. masses --      2.9133                 1.1692                 3.1778
 Frc consts  --      0.0588                 0.0354                 0.1412
 IR Inten    --      2.2713                 0.1246                 1.4944

                      7                      8                      9
                      A                      A                      A
 Frequencies --    336.0161               371.5078               454.0593
 Red. masses --      2.7213                 3.2959                 3.3892
 Frc consts  --      0.1810                 0.2680                 0.4117
 IR Inten    --      0.4632                 0.5663                 0.6633

                     10                     11                     12
                      A                      A                      A
 Frequencies --    550.6333               660.0521               716.9519
 Red. masses --      3.6122                 4.4282                 4.6624
 Frc consts  --      0.6453                 1.1367                 1.4120
 IR Inten    --      5.9808                 4.2704                 1.2010

                     13                     14                     15
                      A                      A                      A
 Frequencies --    776.3607               824.2692               864.2293
 Red. masses --      1.0874                 1.2964                 3.6729
 Frc consts  --      0.3862                 0.5189                 1.6163
 IR Inten    --      0.2807                 3.1341                34.5634

                     16                     17                     18
                      A                      A                      A
 Frequencies --    874.5907               882.3932               923.9522
 Red. masses --      1.9474                 3.9516                 3.3439
 Frc consts  --      0.8776                 1.8128                 1.6819
 IR Inten    --     10.8874                18.5677                10.8803

                     19                     20                     21
                      A                      A                      A
 Frequencies --    963.5700              1028.5122              1046.0201
 Red. masses --      2.7491                 1.6373                 2.3828
 Frc consts  --      1.5038                 1.0205                 1.5361
 IR Inten    --      1.6139                 9.2426                82.6505

                     22                     23                     24
                      A                      A                      A
 Frequencies --   1062.4686              1081.7745              1105.2505
 Red. masses --      1.3043                 1.3571                 2.3433
 Frc consts  --      0.8675                 0.9357                 1.6866
 IR Inten    --      4.4912                 1.1004                11.4962

                     25                     26                     27
                      A                      A                      A
 Frequencies --   1118.2899              1135.8703              1141.2385
 Red. masses --      1.9208                 1.1459                 2.5201
 Frc consts  --      1.4153                 0.8711                 1.9338
 IR Inten    --      5.4857                 0.2556                99.9175

                     28                     29                     30
                      A                      A                      A
 Frequencies --   1189.8798              1198.8064              1222.8776
 Red. masses --      1.9007                 1.5621                 1.6653
 Frc consts  --      1.5855                 1.3227                 1.4672
 IR Inten    --      2.2019                 1.3720                 7.2885

                     31                     32                     33
                      A                      A                      A
 Frequencies --   1231.4181              1274.4190              1324.1508
 Red. masses --      1.7344                 1.3894                 1.6699
 Frc consts  --      1.5496                 1.3295                 1.7251
 IR Inten    --      4.1580                14.4571                23.7076

                     34                     35                     36
                      A                      A                      A
 Frequencies --   1385.0294              1413.6775              1430.8493
 Red. masses --      1.3469                 1.3318                 1.7399
 Frc consts  --      1.5223                 1.5681                 2.0987
 IR Inten    --     16.6665                13.7952                 3.5562

                     37                     38                     39
                      A                      A                      A
 Frequencies --   1472.4297              1484.2164              1495.6752
 Red. masses --      1.0860                 1.0531                 1.0497
 Frc consts  --      1.3872                 1.3668                 1.3835
 IR Inten    --      1.5666                 2.4684                 3.2529

                     40                     41                     42
                      A                      A                      A
 Frequencies --   1507.2701              1933.2534              3039.1097
 Red. masses --      1.3916                12.9090                 1.0353
 Frc consts  --      1.8627                28.4263                 5.6337
 IR Inten    --      1.4620               399.4908                11.1476

                     43                     44                     45
                      A                      A                      A
 Frequencies --   3057.6189              3066.4000              3113.1630
 Red. masses --      1.0843                 1.0861                 1.1011
 Frc consts  --      5.9728                 6.0168                 6.2873
 IR Inten    --      1.4028                21.1283                16.2959

                     46                     47                     48
                      A                      A                      A
 Frequencies --   3119.1945              3133.3114              3140.0408
 Red. masses --      1.1023                 1.0529                 1.0711
 Frc consts  --      6.3190                 6.0902                 6.2226
 IR Inten    --     20.3877                15.4959                15.2833

                     49                     50                     51
                      A                      A                      A
 Frequencies --   3143.0769              3213.4872              3229.4737
 Red. masses --      1.0740                 1.1177                 1.1155
 Frc consts  --      6.2511                 6.8001                 6.8549
 IR Inten    --      3.8521                 1.4798                14.9796

 - Thermochemistry -
 -------------------
 Temperature   298.150 Kelvin.  Pressure   1.00000 Atm.
 Atom     1 has atomic number  6 and mass  12.00000

 Molecular mass:   126.06808 amu.
 Principal axes and moments of inertia in atomic units:
                           1         2         3
     Eigenvalues --   775.742841372.696371977.92943
           X            0.99815   0.06033  -0.00769
           Y           -0.06042   0.99811  -0.01164
           Z            0.00697   0.01209   0.99990
 This molecule is an asymmetric top.
 Rotational symmetry number  1.
 Warning -- assumption of classical behavior for rotation
           may cause significant error
 Rotational temperatures (Kelvin)      0.11165     0.06310     0.04379
 Rotational constants (GHZ):           2.32647     1.31474     0.91244
 Zero-point vibrational energy     416997.7 (Joules/Mol)
                                   99.66484 (Kcal/Mol)
 Warning -- explicit consideration of  10 degrees of freedom as
           vibrations may cause significant error
 Vibrational temperatures:     94.08   136.96   190.99   266.25   326.17
          (Kelvin)            395.16   483.45   534.52   653.29   792.24
                              949.67  1031.53  1117.01  1185.94  1243.43
                             1258.34  1269.57  1329.36  1386.36  1479.80
                             1504.99  1528.65  1556.43  1590.21  1608.97
                             1634.26  1641.99  1711.97  1724.81  1759.45
                             1771.73  1833.60  1905.16  1992.75  2033.96
                             2058.67  2118.50  2135.45  2151.94  2168.62
                             2781.52  4372.60  4399.23  4411.86  4479.14
                             4487.82  4508.13  4517.81  4522.18  4623.49
                             4646.49

 Zero-point correction=                           0.158826 (Hartree/Particle)
 Thermal correction to Energy=                    0.167605
 Thermal correction to Enthalpy=                  0.168549
 Thermal correction to Gibbs Free Energy=         0.124709
 Sum of electronic and zero-point Energies=           -423.047350
 Sum of electronic and thermal Energies=              -423.038571
 Sum of electronic and thermal Enthalpies=            -423.037627
 Sum of electronic and thermal Free Energies=         -423.081467

                     E (Thermal)             CV                S
                      KCal/Mol        Cal/Mol-Kelvin    Cal/Mol-Kelvin
 Total                  105.174             32.365             92.269
 Electronic               0.000              0.000              0.000
 Translational            0.889              2.981             40.409
 Rotational               0.889              2.981             29.134
 Vibrational            103.396             26.403             22.726
 Vibration     1          0.597              1.971              4.288
 Vibration     2          0.603              1.953              3.551
 Vibration     3          0.613              1.921              2.906
 Vibration     4          0.631              1.860              2.277
 Vibration     5          0.650              1.800              1.905
 Vibration     6          0.677              1.720              1.567
 Vibration     7          0.717              1.604              1.231
 Vibration     8          0.743              1.531              1.074
 Vibration     9          0.813              1.352              0.784
 Vibration    10          0.906              1.138              0.543

 Normal termination of Gaussian 09 at Tue Jan 28 01:15:19 2020.
