 Gaussian 09, Revision D.01,
 Gaussian 09:  ES64L-G09RevD.01 24-Apr-2013

 -----------------------------
 # b3lyp 6-31G(2df,p) opt Freq
 -----------------------------

 -----
 titel
 -----
 Symbolic Z-matrix:
 Charge =  0 Multiplicity = 1

 SCF Done:  E(RB3LYP) =  -423.133779690     A.U. after   14 cycles
 Optimization completed.
    -- Stationary point found.
 Normal termination of Gaussian 09 at Mon Jan 27 18:37:35 2020.

 ----------------------------------------------------------------------
 #N Geom=AllCheck Guess=TCheck SCRF=Check GenChk RB3LYP/6-31G(2df,p) Fr
 eq
 ----------------------------------------------------------------------

 Structure from the checkpoint file:  "/scratch/puck/g09_e8f29ffd-a8f2-43f7-a832-a9f6a3afd74f/Gau-43085.chk"
 -----
 titel
 -----
 Charge =  0 Multiplicity = 1

                         Standard orientation:
 ---------------------------------------------------------------------
 Center     Atomic      Atomic             Coordinates (Angstroms)
 Number     Number       Type             X           Y           Z
 ---------------------------------------------------------------------
      1          8           0        0.235284    1.924572   -0.390760
      2          6           0        0.393674    0.687119    0.236106
      3          6           0        1.860466    0.160548    0.443061
      4          6           0        1.589032   -0.993855   -0.595452
      5          6           0        0.101877   -0.701034   -0.418126
      6          6           0       -1.236899   -0.584987   -1.128976
      7          6           0       -1.954572    0.194864    0.045808
      8          6           0       -0.786443    0.214797    1.082354
      9          8           0       -0.288177   -1.143483    0.935344
     10          1           0        1.015898    2.114686   -0.919687
     11          1           0        2.620330    0.888293    0.142357
     12          1           0        2.089369   -0.189197    1.448877
     13          1           0        1.952476   -0.740699   -1.596077
     14          1           0        1.922490   -2.000002   -0.333783
     15          1           0       -1.170471    0.010401   -2.043192
     16          1           0       -1.711932   -1.541949   -1.354585
     17          1           0       -2.285078    1.192465   -0.248592
     18          1           0       -2.800012   -0.363676    0.451802
     19          1           0       -1.012741    0.516252    2.107556
 ---------------------------------------------------------------------

 SCF Done:  E(RB3LYP) =  -423.133779690     A.U. after    1 cycles

 The electronic state is 1-A.
 Alpha  occ. eigenvalues --  -19.15010 -19.12744 -10.23172 -10.23086 -10.22522
 Alpha  occ. eigenvalues --  -10.19245 -10.19165 -10.18243 -10.17847  -1.05616
 Alpha  occ. eigenvalues --   -1.02435  -0.81352  -0.77589  -0.70758  -0.65323
 Alpha  occ. eigenvalues --   -0.62620  -0.56506  -0.54635  -0.50320  -0.48479
 Alpha  occ. eigenvalues --   -0.47463  -0.44834  -0.41648  -0.40448  -0.38656
 Alpha  occ. eigenvalues --   -0.36300  -0.35548  -0.34581  -0.33983  -0.32572
 Alpha  occ. eigenvalues --   -0.32167  -0.30443  -0.24934  -0.23166
 Alpha virt. eigenvalues --    0.06487   0.08947   0.10198   0.11889   0.13128
 Alpha virt. eigenvalues --    0.14419   0.14538   0.15095   0.16135   0.16892
 Alpha virt. eigenvalues --    0.18160   0.18723   0.19387   0.20481   0.21728

 Mulliken charges:
               1
     1  O   -0.479981
     2  C    0.403176
     3  C   -0.317144
     4  C   -0.334972
     5  C    0.370222
     6  C   -0.317642
     7  C   -0.211392
     8  C    0.010373
     9  O   -0.340650
    10  H    0.283517
    11  H    0.091355
    12  H    0.127434
    13  H    0.102876
    14  H    0.115306
    15  H    0.101705
    16  H    0.105231
    17  H    0.114108
    18  H    0.104162
    19  H    0.072318
 Sum of Mulliken charges =   0.00000

 Dipole moment (field-independent basis, Debye):
    X=              1.2349    Y=              0.7797    Z=             -1.2474  Tot=              1.9207
 Quadrupole moment (field-independent basis, Debye-Ang):
   XX=            -49.7129   YY=            -55.9946   ZZ=            -51.7094
   XY=              1.7897   XZ=             -1.8841   YZ=              0.6763

  Exact polarizability:  84.231  -0.528  69.377  -1.687   1.293  69.801
 Approx polarizability: 112.312  -0.935 109.822  -3.876  -1.851 107.075

                      1                      2                      3
                      A                      A                      A
 Frequencies --    210.5047               216.4554               233.7067
 Red. masses --      1.8092                 2.1213                 1.4470
 Frc consts  --      0.0472                 0.0586                 0.0466
 IR Inten    --     51.4715                 3.1999                39.1532

                      4                      5                      6
                      A                      A                      A
 Frequencies --    273.4038               325.9029               393.6873
 Red. masses --      2.1651                 2.7047                 2.7596
 Frc consts  --      0.0954                 0.1693                 0.2520
 IR Inten    --      3.1364                 2.9863                 3.9149

                      7                      8                      9
                      A                      A                      A
 Frequencies --    494.0910               508.6112               584.9277
 Red. masses --      3.0756                 3.4607                 5.6850
 Frc consts  --      0.4424                 0.5275                 1.1460
 IR Inten    --      5.1493                10.7504                 2.7707

                     10                     11                     12
                      A                      A                      A
 Frequencies --    648.1157               693.1707               751.2939
 Red. masses --      3.8688                 2.1382                 2.6518
 Frc consts  --      0.9575                 0.6053                 0.8819
 IR Inten    --      1.9374                 2.9229                 4.6259

                     13                     14                     15
                      A                      A                      A
 Frequencies --    799.1758               827.1348               849.4876
 Red. masses --      2.7275                 1.4946                 3.4937
 Frc consts  --      1.0264                 0.6025                 1.4854
 IR Inten    --     11.7404                 2.4214                24.1965

                     16                     17                     18
                      A                      A                      A
 Frequencies --    867.9888               889.8298               901.1524
 Red. masses --      2.5727                 2.9454                 2.9064
 Frc consts  --      1.1420                 1.3741                 1.3906
 IR Inten    --      1.3883                 5.0024                 4.9932

                     19                     20                     21
                      A                      A                      A
 Frequencies --    913.5256               973.3034               981.5569
 Red. masses --      3.1717                 2.5758                 2.9232
 Frc consts  --      1.5595                 1.4377                 1.6593
 IR Inten    --      3.4888                23.4559                10.1581

                     22                     23                     24
                      A                      A                      A
 Frequencies --   1016.2344              1067.9342              1098.2280
 Red. masses --      1.4623                 1.8776                 1.5984
 Frc consts  --      0.8898                 1.2616                 1.1359
 IR Inten    --      7.8107                28.0618                 6.4481

                     25                     26                     27
                      A                      A                      A
 Frequencies --   1121.9580              1155.4451              1181.3368
 Red. masses --      2.4798                 1.4582                 1.6712
 Frc consts  --      1.8391                 1.1470                 1.3741
 IR Inten    --      4.4452                 8.1932                20.1772

                     28                     29                     30
                      A                      A                      A
 Frequencies --   1193.1663              1223.5928              1229.7915
 Red. masses --      1.3399                 1.4159                 1.5327
 Frc consts  --      1.1239                 1.2490                 1.3658
 IR Inten    --     10.1084                30.6380                 8.8176

                     31                     32                     33
                      A                      A                      A
 Frequencies --   1241.1880              1260.1181              1275.3866
 Red. masses --      1.2348                 1.9062                 1.5429
 Frc consts  --      1.1208                 1.7833                 1.4787
 IR Inten    --      3.8013                40.1559                 6.6500

                     34                     35                     36
                      A                      A                      A
 Frequencies --   1290.0322              1302.2676              1329.2662
 Red. masses --      1.5843                 1.7291                 2.8779
 Frc consts  --      1.5534                 1.7278                 2.9961
 IR Inten    --     15.9048                72.8364                10.4725

                     37                     38                     39
                      A                      A                      A
 Frequencies --   1398.9876              1463.2973              1468.3972
 Red. masses --      2.1309                 1.0927                 1.0973
 Frc consts  --      2.4572                 1.3786                 1.3940
 IR Inten    --      5.7550                 0.6914                 0.8810

                     40                     41                     42
                      A                      A                      A
 Frequencies --   1480.8234              1491.5340              3055.9472
 Red. masses --      1.1431                 1.1321                 1.0620
 Frc consts  --      1.4769                 1.4838                 5.8436
 IR Inten    --      2.7009                 3.2492                26.3878

                     43                     44                     45
                      A                      A                      A
 Frequencies --   3063.8901              3066.4753              3079.0973
 Red. masses --      1.0626                 1.0588                 1.0616
 Frc consts  --      5.8769                 5.8659                 5.9300
 IR Inten    --     40.3185                39.2003                25.3944

                     46                     47                     48
                      A                      A                      A
 Frequencies --   3096.3778              3114.1113              3118.5231
 Red. masses --      1.0870                 1.1078                 1.1051
 Frc consts  --      6.1403                 6.3297                 6.3323
 IR Inten    --     63.8891                 6.0800                12.3232

                     49                     50                     51
                      A                      A                      A
 Frequencies --   3138.2786              3144.4141              3825.2961
 Red. masses --      1.1079                 1.1019                 1.0661
 Frc consts  --      6.4289                 6.4190                 9.1911
 IR Inten    --     23.4441                20.3486                20.8761

 - Thermochemistry -
 -------------------
 Temperature   298.150 Kelvin.  Pressure   1.00000 Atm.
 Atom     1 has atomic number  8 and mass  15.99491

 Molecular mass:   126.06808 amu.
 Principal axes and moments of inertia in atomic units:
                           1         2         3
     Eigenvalues --   695.49354 920.011731104.83390
           X            0.99990  -0.01318   0.00463
           Y            0.01295   0.99882   0.04683
           Z           -0.00524  -0.04677   0.99889
 This molecule is an asymmetric top.
 Rotational symmetry number  1.
 Warning -- assumption of classical behavior for rotation
           may cause significant error
 Rotational temperatures (Kelvin)      0.12454     0.09414     0.07840
 Rotational constants (GHZ):           2.59491     1.96165     1.63350
 Zero-point vibrational energy     420657.4 (Joules/Mol)
                                  100.53953 (Kcal/Mol)
 Warning -- explicit consideration of   9 degrees of freedom as
           vibrations may cause significant error
 Vibrational temperatures:    302.87   311.43   336.25   393.37   468.90
          (Kelvin)            566.43   710.89   731.78   841.58   932.49
                              997.32  1080.94  1149.83  1190.06  1222.22
                             1248.84  1280.27  1296.56  1314.36  1400.36
                             1412.24  1462.13  1536.52  1580.10  1614.25
                             1662.43  1699.68  1716.70  1760.47  1769.39
                             1785.79  1813.03  1834.99  1856.07  1873.67
                             1912.52  2012.83  2105.36  2112.69  2130.57
                             2145.98  4396.82  4408.25  4411.97  4430.13
                             4454.99  4480.51  4486.85  4515.28  4524.10
                             5503.74

 Zero-point correction=                           0.160220 (Hartree/Particle)
 Thermal correction to Energy=                    0.167575
 Thermal correction to Enthalpy=                  0.168520
 Thermal correction to Gibbs Free Energy=         0.129091
 Sum of electronic and zero-point Energies=           -422.973560
 Sum of electronic and thermal Energies=              -422.966204
 Sum of electronic and thermal Enthalpies=            -422.965260
 Sum of electronic and thermal Free Energies=         -423.004689

                     E (Thermal)             CV                S
                      KCal/Mol        Cal/Mol-Kelvin    Cal/Mol-Kelvin
 Total                  105.155             30.591             82.984
 Electronic               0.000              0.000              0.000
 Translational            0.889              2.981             40.409
 Rotational               0.889              2.981             28.049
 Vibrational            103.378             24.630             14.526
 Vibration     1          0.643              1.825              2.039
 Vibration     2          0.645              1.816              1.989
 Vibration     3          0.654              1.789              1.850
 Vibration     4          0.676              1.722              1.575
 Vibration     5          0.710              1.624              1.280
 Vibration     6          0.761              1.484              0.986
 Vibration     7          0.850              1.263              0.673
 Vibration     8          0.864              1.231              0.637
 Vibration     9          0.942              1.064              0.476

 Normal termination of Gaussian 09 at Mon Jan 27 19:35:40 2020.
