 Gaussian 09, Revision D.01,
 Gaussian 09:  ES64L-G09RevD.01 24-Apr-2013

 -----------------------------
 # b3lyp 6-31G(2df,p) opt Freq
 -----------------------------

 -----
 titel
 -----
 Symbolic Z-matrix:
 Charge =  0 Multiplicity = 1

 SCF Done:  E(RB3LYP) =  -423.199898003     A.U. after   14 cycles
 Optimization completed.
    -- Stationary point found.
 Normal termination of Gaussian 09 at Mon Jan 27 16:24:49 2020.

 ----------------------------------------------------------------------
 #N Geom=AllCheck Guess=TCheck SCRF=Check GenChk RB3LYP/6-31G(2df,p) Fr
 eq
 ----------------------------------------------------------------------

 Structure from the checkpoint file:  "/scratch/puck/g09_b4bf5da9-43fd-415e-8d23-e70d115bf767/Gau-69737.chk"
 -----
 titel
 -----
 Charge =  0 Multiplicity = 1

                         Standard orientation:
 ---------------------------------------------------------------------
 Center     Atomic      Atomic             Coordinates (Angstroms)
 Number     Number       Type             X           Y           Z
 ---------------------------------------------------------------------
      1          6           0        0.180317    1.987464   -0.392379
      2          6           0       -0.424611    0.666156    0.043532
      3          6           0        0.000070    0.000081    1.322393
      4          6           0        0.424594   -0.666068    0.043539
      5          6           0       -0.180487   -1.987311   -0.392342
      6          6           0        1.860446   -0.514305   -0.349449
      7          8           0        2.643841    0.275412    0.122111
      8          6           0       -1.860458    0.514243   -0.349363
      9          8           0       -2.643657   -0.275714    0.122122
     10          1           0       -0.354742    2.815179    0.086557
     11          1           0        1.230637    2.059553   -0.113928
     12          1           0        0.100192    2.124215   -1.476776
     13          1           0        0.781517    0.492398    1.891293
     14          1           0       -0.781331   -0.492192    1.891393
     15          1           0       -1.230809   -2.059264   -0.113836
     16          1           0       -0.100442   -2.124071   -1.476744
     17          1           0        0.354506   -2.815083    0.086571
     18          1           0        2.183666   -1.225184   -1.142167
     19          1           0       -2.183901    1.225307   -1.141826
 ---------------------------------------------------------------------

 SCF Done:  E(RB3LYP) =  -423.199898003     A.U. after    1 cycles

 The electronic state is 1-A.
 Alpha  occ. eigenvalues --  -19.14769 -19.14769 -10.27837 -10.27837 -10.22649
 Alpha  occ. eigenvalues --  -10.22633 -10.20306 -10.18939 -10.18938  -1.05546
 Alpha  occ. eigenvalues --   -1.05371  -0.89049  -0.76401  -0.71697  -0.66397
 Alpha  occ. eigenvalues --   -0.64589  -0.56950  -0.53871  -0.49985  -0.47513
 Alpha  occ. eigenvalues --   -0.45867  -0.45855  -0.44510  -0.41730  -0.41468
 Alpha  occ. eigenvalues --   -0.40814  -0.39610  -0.38263  -0.37754  -0.37672
 Alpha  occ. eigenvalues --   -0.31641  -0.29091  -0.26771  -0.25560
 Alpha virt. eigenvalues --   -0.05685  -0.01240   0.09909   0.10446   0.11166
 Alpha virt. eigenvalues --    0.12771   0.14171   0.14467   0.15131   0.16478
 Alpha virt. eigenvalues --    0.17420   0.17598   0.19355   0.21198   0.21633

 Mulliken charges:
               1
     1  C   -0.501121
     2  C    0.188253
     3  C   -0.343250
     4  C    0.188241
     5  C   -0.501124
     6  C    0.109151
     7  O   -0.263471
     8  C    0.109148
     9  O   -0.263474
    10  H    0.127283
    11  H    0.167198
    12  H    0.121905
    13  H    0.140375
    14  H    0.140367
    15  H    0.167229
    16  H    0.121899
    17  H    0.127274
    18  H    0.082056
    19  H    0.082063
 Sum of Mulliken charges =   0.00000

 Dipole moment (field-independent basis, Debye):
    X=             -0.0004    Y=              0.0006    Z=             -0.9982  Tot=              0.9982
 Quadrupole moment (field-independent basis, Debye-Ang):
   XX=            -67.0335   YY=            -50.3393   ZZ=            -51.0806
   XY=             -4.9907   XZ=             -0.0001   YZ=              0.0001

  Exact polarizability:  87.916  -1.955  80.668   0.001   0.000  66.689
 Approx polarizability: 136.560   3.686 116.570   0.003   0.000 104.053

                      1                      2                      3
                      A                      A                      A
 Frequencies --    113.8345               142.6431               159.3347
 Red. masses --      5.8523                 3.6932                 1.7823
 Frc consts  --      0.0447                 0.0443                 0.0267
 IR Inten    --      9.1380                10.4413                 2.6766

                      4                      5                      6
                      A                      A                      A
 Frequencies --    177.8980               184.9002               240.5485
 Red. masses --      1.2003                 1.2605                 2.4327
 Frc consts  --      0.0224                 0.0254                 0.0829
 IR Inten    --      0.8639                 2.0637                 5.1603

                      7                      8                      9
                      A                      A                      A
 Frequencies --    241.4504               283.7538               307.6379
 Red. masses --      4.5564                 2.6554                 2.5919
 Frc consts  --      0.1565                 0.1260                 0.1445
 IR Inten    --      1.7943                 0.5157                 2.1318

                     10                     11                     12
                      A                      A                      A
 Frequencies --    366.1161               401.1679               431.5386
 Red. masses --      2.8523                 2.4592                 2.4094
 Frc consts  --      0.2253                 0.2332                 0.2644
 IR Inten    --      0.2989                 3.8908                 0.2070

                     13                     14                     15
                      A                      A                      A
 Frequencies --    571.7716               612.1490               686.0970
 Red. masses --      4.4065                 4.3572                 4.2128
 Frc consts  --      0.8488                 0.9620                 1.1684
 IR Inten    --      0.3222                10.7362                 1.0413

                     16                     17                     18
                      A                      A                      A
 Frequencies --    724.4417               851.5594               931.6004
 Red. masses --      3.8059                 3.8638                 1.7516
 Frc consts  --      1.1768                 1.6508                 0.8957
 IR Inten    --      2.9410                11.5984                93.3792

                     19                     20                     21
                      A                      A                      A
 Frequencies --    942.5094               954.3792              1001.7910
 Red. masses --      1.5063                 1.5987                 1.3572
 Frc consts  --      0.7884                 0.8579                 0.8025
 IR Inten    --      3.2125                80.0849                 1.9589

                     22                     23                     24
                      A                      A                      A
 Frequencies --   1014.1761              1046.4175              1088.4502
 Red. masses --      1.6955                 1.5567                 1.3294
 Frc consts  --      1.0275                 1.0043                 0.9279
 IR Inten    --      8.1870                 0.8594                 2.1432

                     25                     26                     27
                      A                      A                      A
 Frequencies --   1110.4574              1121.1991              1190.1229
 Red. masses --      1.5768                 1.6813                 4.1347
 Frc consts  --      1.1456                 1.2452                 3.4505
 IR Inten    --      1.4848                10.8832                52.7185

                     28                     29                     30
                      A                      A                      A
 Frequencies --   1231.6427              1293.5781              1357.5812
 Red. masses --      2.6694                 2.5696                 3.0039
 Frc consts  --      2.3858                 2.5333                 3.2619
 IR Inten    --     32.6705                 0.1485                 7.2543

                     31                     32                     33
                      A                      A                      A
 Frequencies --   1415.3344              1418.7779              1432.0655
 Red. masses --      1.2305                 1.3292                 1.1963
 Frc consts  --      1.4523                 1.5764                 1.4455
 IR Inten    --     11.3161                 0.0141                 6.3402

                     34                     35                     36
                      A                      A                      A
 Frequencies --   1434.7947              1463.9158              1491.3734
 Red. masses --      1.1855                 1.3107                 1.0470
 Frc consts  --      1.4379                 1.6549                 1.3721
 IR Inten    --      0.1768                10.2644                23.4985

                     37                     38                     39
                      A                      A                      A
 Frequencies --   1497.2282              1506.5623              1507.9947
 Red. masses --      1.0766                 1.0446                 1.0561
 Frc consts  --      1.4219                 1.3969                 1.4150
 IR Inten    --      1.0527                 7.0159                 5.6741

                     40                     41                     42
                      A                      A                      A
 Frequencies --   1797.2633              1809.4157              2883.1486
 Red. masses --     10.4148                10.1237                 1.0829
 Frc consts  --     19.8210                19.5284                 5.3035
 IR Inten    --    284.2814                11.7159               145.5224

                     43                     44                     45
                      A                      A                      A
 Frequencies --   2885.9423              3032.9547              3033.7894
 Red. masses --      1.0830                 1.0406                 1.0408
 Frc consts  --      5.3144                 5.6400                 5.6438
 IR Inten    --     87.7793                44.7935                10.4858

                     46                     47                     48
                      A                      A                      A
 Frequencies --   3087.9772              3088.2379              3133.1870
 Red. masses --      1.1009                 1.1010                 1.0529
 Frc consts  --      6.1852                 6.1864                 6.0898
 IR Inten    --      6.6689                29.5553                 4.1030

                     49                     50                     51
                      A                      A                      A
 Frequencies --   3159.8281              3159.8918              3232.0736
 Red. masses --      1.0957                 1.0958                 1.1183
 Frc consts  --      6.4455                 6.4466                 6.8830
 IR Inten    --      0.7591                 0.7189                 0.4232

 - Thermochemistry -
 -------------------
 Temperature   298.150 Kelvin.  Pressure   1.00000 Atm.
 Atom     1 has atomic number  6 and mass  12.00000

 Molecular mass:   126.06808 amu.
 Principal axes and moments of inertia in atomic units:
                           1         2         3
     Eigenvalues --   691.836511315.350441704.43005
           X            0.99998  -0.00611   0.00000
           Y            0.00611   0.99998   0.00000
           Z            0.00000   0.00000   1.00000
 This molecule is an asymmetric top.
 Rotational symmetry number  1.
 Warning -- assumption of classical behavior for rotation
           may cause significant error
 Rotational temperatures (Kelvin)      0.12519     0.06585     0.05082
 Rotational constants (GHZ):           2.60862     1.37206     1.05885
 Zero-point vibrational energy     408240.6 (Joules/Mol)
                                   97.57185 (Kcal/Mol)
 Warning -- explicit consideration of  14 degrees of freedom as
           vibrations may cause significant error
 Vibrational temperatures:    163.78   205.23   229.25   255.96   266.03
          (Kelvin)            346.10   347.39   408.26   442.62   526.76
                              577.19   620.89   822.65   880.74   987.14
                             1042.31  1225.20  1340.36  1356.06  1373.14
                             1441.35  1459.17  1505.56  1566.04  1597.70
                             1613.15  1712.32  1772.06  1861.17  1953.25
                             2036.35  2041.30  2060.42  2064.35  2106.25
                             2145.75  2154.17  2167.60  2169.67  2585.86
                             2603.34  4148.20  4152.22  4363.74  4364.94
                             4442.90  4443.28  4507.95  4546.28  4546.37
                             4650.23

 Zero-point correction=                           0.155491 (Hartree/Particle)
 Thermal correction to Energy=                    0.165314
 Thermal correction to Enthalpy=                  0.166259
 Thermal correction to Gibbs Free Energy=         0.121342
 Sum of electronic and zero-point Energies=           -423.044407
 Sum of electronic and thermal Energies=              -423.034584
 Sum of electronic and thermal Enthalpies=            -423.033639
 Sum of electronic and thermal Free Energies=         -423.078556

                     E (Thermal)             CV                S
                      KCal/Mol        Cal/Mol-Kelvin    Cal/Mol-Kelvin
 Total                  103.736             35.785             94.536
 Electronic               0.000              0.000              0.000
 Translational            0.889              2.981             40.409
 Rotational               0.889              2.981             28.830
 Vibrational            101.959             29.824             25.298
 Vibration     1          0.607              1.938              3.202
 Vibration     2          0.616              1.911              2.768
 Vibration     3          0.621              1.892              2.558
 Vibration     4          0.628              1.870              2.350
 Vibration     5          0.631              1.860              2.278
 Vibration     6          0.658              1.778              1.799
 Vibration     7          0.658              1.777              1.792
 Vibration     8          0.682              1.704              1.511
 Vibration     9          0.698              1.659              1.375
 Vibration    10          0.739              1.542              1.096
 Vibration    11          0.767              1.468              0.958
 Vibration    12          0.793              1.402              0.854
 Vibration    13          0.928              1.092              0.501
 Vibration    14          0.971              1.006              0.429

 Optimization completed.
    -- Stationary point found.
 Normal termination of Gaussian 09 at Mon Jan 27 17:22:14 2020.
