 Gaussian 09, Revision D.01,
 Gaussian 09:  ES64L-G09RevD.01 24-Apr-2013

 -----------------------------
 # b3lyp 6-31G(2df,p) opt Freq
 -----------------------------

 -----
 titel
 -----
 Symbolic Z-matrix:
 Charge =  0 Multiplicity = 1

 SCF Done:  E(RB3LYP) =  -423.201574114     A.U. after   13 cycles
 SCF Done:  E(RB3LYP) =  -423.201574678     A.U. after    6 cycles
 Optimization completed.
    -- Stationary point found.
 Normal termination of Gaussian 09 at Thu Jan 30 15:35:54 2020.

 ----------------------------------------------------------------------
 #N Geom=AllCheck Guess=TCheck SCRF=Check GenChk RB3LYP/6-31G(2df,p) Fr
 eq
 ----------------------------------------------------------------------

 Structure from the checkpoint file:  "/scratch/puck/g09_3a89fdcd-d97c-4115-90e4-cf497c1a49bd/Gau-94338.chk"
 -----
 titel
 -----
 Charge =  0 Multiplicity = 1

                         Standard orientation:
 ---------------------------------------------------------------------
 Center     Atomic      Atomic             Coordinates (Angstroms)
 Number     Number       Type             X           Y           Z
 ---------------------------------------------------------------------
      1          6           0        1.883636   -0.000001    0.000000
      2          6           0        0.793273    0.037562    1.082193
      3          8           0        0.178056   -1.237606    0.865859
      4          6           0       -0.203292   -1.125202   -0.527974
      5          6           0       -1.638088   -0.582190   -0.515093
      6          6           0       -1.638087    0.582191    0.515094
      7          6           0       -0.203291    1.125203    0.527973
      8          8           0        0.178057    1.237605   -0.865859
      9          6           0        0.793271   -0.037563   -1.082193
     10          1           0        2.498268    0.896044   -0.097872
     11          1           0        2.498269   -0.896045    0.097870
     12          1           0        1.073858    0.135016    2.130170
     13          1           0       -0.096791   -2.100908   -1.006861
     14          1           0       -1.926732   -0.229610   -1.509316
     15          1           0       -2.335321   -1.371050   -0.221208
     16          1           0       -2.335321    1.371051    0.221210
     17          1           0       -1.926729    0.229611    1.509318
     18          1           0       -0.096789    2.100909    1.006859
     19          1           0        1.073860   -0.135016   -2.130169
 ---------------------------------------------------------------------

 SCF Done:  E(RB3LYP) =  -423.201574678     A.U. after    1 cycles

 The electronic state is 1-A.
 Alpha  occ. eigenvalues --  -19.13454 -19.13454 -10.23371 -10.23370 -10.22895
 Alpha  occ. eigenvalues --  -10.22894 -10.18032 -10.17902 -10.17884  -1.06260
 Alpha  occ. eigenvalues --   -1.01135  -0.78470  -0.75962  -0.75789  -0.62901
 Alpha  occ. eigenvalues --   -0.62107  -0.59664  -0.53694  -0.51438  -0.50207
 Alpha  occ. eigenvalues --   -0.47482  -0.43143  -0.41172  -0.40754  -0.38678
 Alpha  occ. eigenvalues --   -0.37740  -0.36325  -0.35426  -0.34989  -0.34166
 Alpha  occ. eigenvalues --   -0.33417  -0.29742  -0.25501  -0.23514
 Alpha virt. eigenvalues --    0.09037   0.10844   0.11923   0.13540   0.13761
 Alpha virt. eigenvalues --    0.14439   0.14583   0.15882   0.16463   0.16513
 Alpha virt. eigenvalues --    0.17409   0.18732   0.19181   0.20995   0.21578

 Mulliken charges:
               1
     1  C   -0.216368
     2  C    0.061414
     3  O   -0.281929
     4  C    0.061339
     5  C   -0.201666
     6  C   -0.201666
     7  C    0.061339
     8  O   -0.281927
     9  C    0.061414
    10  H    0.105056
    11  H    0.105056
    12  H    0.080114
    13  H    0.077405
    14  H    0.106270
    15  H    0.100181
    16  H    0.100181
    17  H    0.106270
    18  H    0.077405
    19  H    0.080114
 Sum of Mulliken charges =   0.00000

 Dipole moment (field-independent basis, Debye):
    X=              0.2344    Y=              0.0000    Z=              0.0000  Tot=              0.2344
 Quadrupole moment (field-independent basis, Debye-Ang):
   XX=            -50.9450   YY=            -55.4674   ZZ=            -52.1143
   XY=              0.0000   XZ=              0.0000   YZ=              5.1859

  Exact polarizability:  78.157   0.000  68.924   0.000   4.604  69.723
 Approx polarizability: 104.703   0.000 106.801   0.000   1.721 108.843

                      1                      2                      3
                      A                      A                      A
 Frequencies --    272.0545               344.8602               371.8312
 Red. masses --      1.7485                 3.2572                 2.5190
 Frc consts  --      0.0762                 0.2282                 0.2052
 IR Inten    --      0.7228                 3.4978                 1.9192

                      4                      5                      6
                      A                      A                      A
 Frequencies --    511.5953               516.2099               546.7751
 Red. masses --      5.7440                 2.3432                 5.4938
 Frc consts  --      0.8858                 0.3679                 0.9677
 IR Inten    --     19.4754                 0.5728                 0.2961

                      7                      8                      9
                      A                      A                      A
 Frequencies --    644.1902               675.7901               763.5803
 Red. masses --      5.7552                 5.2508                 2.0003
 Frc consts  --      1.4071                 1.4129                 0.6872
 IR Inten    --      1.3135                 2.0918                 0.2392

                     10                     11                     12
                      A                      A                      A
 Frequencies --    795.8068               811.4843               852.6239
 Red. masses --      4.3519                 1.9764                 2.9470
 Frc consts  --      1.6238                 0.7668                 1.2623
 IR Inten    --      6.3329                 3.6482                 0.3523

                     13                     14                     15
                      A                      A                      A
 Frequencies --    891.6756               897.6159               911.8958
 Red. masses --      2.4817                 2.2324                 3.2769
 Frc consts  --      1.1626                 1.0597                 1.6055
 IR Inten    --     40.4808                 0.4778                 1.3580

                     16                     17                     18
                      A                      A                      A
 Frequencies --    922.1427               964.7865               968.2674
 Red. masses --      2.2453                 2.5805                 3.0562
 Frc consts  --      1.1249                 1.4152                 1.6882
 IR Inten    --     14.9820                30.9583                19.0598

                     19                     20                     21
                      A                      A                      A
 Frequencies --    991.9050              1026.6824              1029.3467
 Red. masses --      2.0828                 2.8608                 3.1267
 Frc consts  --      1.2073                 1.7767                 1.9519
 IR Inten    --     13.0396                 6.9990                16.5718

                     22                     23                     24
                      A                      A                      A
 Frequencies --   1041.3973              1053.5282              1065.7702
 Red. masses --      1.6925                 2.1297                 2.5098
 Frc consts  --      1.0814                 1.3927                 1.6797
 IR Inten    --      5.0803                39.9113                34.7642

                     25                     26                     27
                      A                      A                      A
 Frequencies --   1143.7032              1168.2971              1202.1834
 Red. masses --      1.2522                 1.1686                 2.1719
 Frc consts  --      0.9650                 0.9397                 1.8494
 IR Inten    --      0.9598                11.3904                 8.6243

                     28                     29                     30
                      A                      A                      A
 Frequencies --   1206.0568              1260.7013              1268.8702
 Red. masses --      1.4590                 1.3508                 1.2164
 Frc consts  --      1.2504                 1.2649                 1.1539
 IR Inten    --      1.0718                 1.1162                 0.9092

                     31                     32                     33
                      A                      A                      A
 Frequencies --   1283.8597              1289.7721              1303.3580
 Red. masses --      1.6287                 1.4275                 1.2983
 Frc consts  --      1.5817                 1.3991                 1.2994
 IR Inten    --      0.3473                 4.9054                 0.2218

                     34                     35                     36
                      A                      A                      A
 Frequencies --   1307.9083              1343.0973              1345.4922
 Red. masses --      1.5412                 1.4708                 1.5548
 Frc consts  --      1.5533                 1.5633                 1.6583
 IR Inten    --      1.3216                 3.6773                 0.1171

                     37                     38                     39
                      A                      A                      A
 Frequencies --   1359.9182              1367.7817              1473.4202
 Red. masses --      1.4133                 1.4050                 1.0804
 Frc consts  --      1.5399                 1.5486                 1.3819
 IR Inten    --      2.5014                 0.6129                 0.8515

                     40                     41                     42
                      A                      A                      A
 Frequencies --   1473.9342              1490.9764              3055.2923
 Red. masses --      1.1229                 1.1053                 1.0592
 Frc consts  --      1.4373                 1.4476                 5.8255
 IR Inten    --      3.6445                 2.9614                13.8376

                     43                     44                     45
                      A                      A                      A
 Frequencies --   3063.1349              3081.8676              3086.6795
 Red. masses --      1.0609                 1.0580                 1.0878
 Frc consts  --      5.8651                 5.9208                 6.1062
 IR Inten    --     32.3103                19.8538                82.6788

                     46                     47                     48
                      A                      A                      A
 Frequencies --   3088.1767              3097.9216              3113.3216
 Red. masses --      1.0896                 1.1033                 1.1059
 Frc consts  --      6.1223                 6.2383                 6.3156
 IR Inten    --      0.1780                 6.9466                33.3112

                     49                     50                     51
                      A                      A                      A
 Frequencies --   3131.7545              3136.9562              3146.6831
 Red. masses --      1.0882                 1.0927                 1.1099
 Frc consts  --      6.2885                 6.3351                 6.4748
 IR Inten    --     59.4376                 7.7401                16.6711

 - Thermochemistry -
 -------------------
 Temperature   298.150 Kelvin.  Pressure   1.00000 Atm.
 Atom     1 has atomic number  6 and mass  12.00000

 Molecular mass:   126.06808 amu.
 Principal axes and moments of inertia in atomic units:
                           1         2         3
     Eigenvalues --   653.67281 846.26882 932.04358
           X            1.00000   0.00000   0.00000
           Y            0.00000   0.96754   0.25271
           Z            0.00000  -0.25271   0.96754
 This molecule is an asymmetric top.
 Rotational symmetry number  1.
 Warning -- assumption of classical behavior for rotation
           may cause significant error
 Rotational temperatures (Kelvin)      0.13250     0.10235     0.09293
 Rotational constants (GHZ):           2.76092     2.13259     1.93633
 Zero-point vibrational energy     431630.2 (Joules/Mol)
                                  103.16209 (Kcal/Mol)
 Warning -- explicit consideration of   6 degrees of freedom as
           vibrations may cause significant error
 Vibrational temperatures:    391.43   496.18   534.98   736.07   742.71
          (Kelvin)            786.69   926.84   972.31  1098.62  1144.99
                             1167.54  1226.73  1282.92  1291.47  1312.01
                             1326.76  1388.11  1393.12  1427.13  1477.17
                             1481.00  1498.34  1515.79  1533.40  1645.53
                             1680.92  1729.67  1735.24  1813.87  1825.62
                             1847.19  1855.69  1875.24  1881.79  1932.41
                             1935.86  1956.62  1967.93  2119.92  2120.66
                             2145.18  4395.88  4407.16  4434.11  4441.04
                             4443.19  4457.21  4479.37  4505.89  4513.37
                             4527.37

 Zero-point correction=                           0.164399 (Hartree/Particle)
 Thermal correction to Energy=                    0.170267
 Thermal correction to Enthalpy=                  0.171211
 Thermal correction to Gibbs Free Energy=         0.134602
 Sum of electronic and zero-point Energies=           -423.037175
 Sum of electronic and thermal Energies=              -423.031308
 Sum of electronic and thermal Enthalpies=            -423.030363
 Sum of electronic and thermal Free Energies=         -423.066973

                     E (Thermal)             CV                S
                      KCal/Mol        Cal/Mol-Kelvin    Cal/Mol-Kelvin
 Total                  106.844             26.167             77.051
 Electronic               0.000              0.000              0.000
 Translational            0.889              2.981             40.409
 Rotational               0.889              2.981             27.735
 Vibrational            105.067             20.206              8.908
 Vibration     1          0.675              1.725              1.583
 Vibration     2          0.723              1.586              1.190
 Vibration     3          0.744              1.530              1.072
 Vibration     4          0.867              1.224              0.630
 Vibration     5          0.871              1.214              0.619
 Vibration     6          0.902              1.147              0.551

 Optimization completed.
    -- Stationary point found.
 Normal termination of Gaussian 09 at Thu Jan 30 16:20:09 2020.
