 Gaussian 09, Revision D.01,
 Gaussian 09:  ES64L-G09RevD.01 24-Apr-2013

 -----------------------------
 # b3lyp 6-31G(2df,p) opt Freq
 -----------------------------

 -----
 titel
 -----
 Symbolic Z-matrix:
 Charge =  0 Multiplicity = 1

 SCF Done:  E(RB3LYP) =  -423.174389476     A.U. after   12 cycles
 Optimization completed.
    -- Stationary point found.
 Normal termination of Gaussian 09 at Mon Jan 27 12:22:34 2020.

 ----------------------------------------------------------------------
 #N Geom=AllCheck Guess=TCheck SCRF=Check GenChk RB3LYP/6-31G(2df,p) Fr
 eq
 ----------------------------------------------------------------------

 Structure from the checkpoint file:  "/scratch/puck/g09_d64e4fd5-a885-4900-a899-2aba3eed125a/Gau-165711.chk"
 -----
 titel
 -----
 Charge =  0 Multiplicity = 1

                         Standard orientation:
 ---------------------------------------------------------------------
 Center     Atomic      Atomic             Coordinates (Angstroms)
 Number     Number       Type             X           Y           Z
 ---------------------------------------------------------------------
      1          6           0        2.306656    0.072858    0.268925
      2          6           0        1.274819    1.216943    0.358374
      3          6           0       -0.007525    0.497324    0.036852
      4          8           0       -1.139172    1.241925   -0.297091
      5          6           0       -2.229958    0.323614   -0.387515
      6          6           0       -1.907075   -0.857525    0.562521
      7          6           0       -0.386731   -0.833419    0.657984
      8          6           0        0.374650   -0.781947   -0.659306
      9          8           0        1.769421   -0.928516   -0.608068
     10          1           0        3.271133    0.389766   -0.136476
     11          1           0        2.483250   -0.363223    1.261576
     12          1           0        1.284146    1.698600    1.340235
     13          1           0        1.449498    1.985090   -0.402573
     14          1           0       -3.144548    0.860736   -0.124348
     15          1           0       -2.328186   -0.032154   -1.422644
     16          1           0       -2.331916   -0.685743    1.556677
     17          1           0       -2.316420   -1.798429    0.182128
     18          1           0        0.092831   -1.233941    1.544801
     19          1           0       -0.050793   -1.155058   -1.585119
 ---------------------------------------------------------------------

 SCF Done:  E(RB3LYP) =  -423.174389476     A.U. after    1 cycles

 The electronic state is 1-A.
 Alpha  occ. eigenvalues --  -19.14532 -19.14012 -10.23380 -10.23173 -10.23076
 Alpha  occ. eigenvalues --  -10.22665 -10.19249 -10.18947 -10.18655  -1.05370
 Alpha  occ. eigenvalues --   -1.03244  -0.83855  -0.77809  -0.74202  -0.64828
 Alpha  occ. eigenvalues --   -0.63147  -0.56411  -0.55962  -0.50126  -0.48310
 Alpha  occ. eigenvalues --   -0.48048  -0.46202  -0.43792  -0.41881  -0.39726
 Alpha  occ. eigenvalues --   -0.39563  -0.37509  -0.36486  -0.34084  -0.33111
 Alpha  occ. eigenvalues --   -0.31975  -0.30558  -0.24061  -0.21588
 Alpha virt. eigenvalues --    0.08539   0.09816   0.10272   0.11025   0.12863
 Alpha virt. eigenvalues --    0.14618   0.14693   0.15367   0.15639   0.17029
 Alpha virt. eigenvalues --    0.18177   0.19168   0.20792   0.21324   0.22437

 Mulliken charges:
               1
     1  C   -0.084047
     2  C   -0.343183
     3  C    0.440428
     4  O   -0.303412
     5  C   -0.102596
     6  C   -0.251530
     7  C   -0.180836
     8  C    0.022593
     9  O   -0.270283
    10  H    0.113632
    11  H    0.102199
    12  H    0.110184
    13  H    0.119334
    14  H    0.112421
    15  H    0.102647
    16  H    0.112663
    17  H    0.107877
    18  H    0.091401
    19  H    0.100507
 Sum of Mulliken charges =   0.00000

 Dipole moment (field-independent basis, Debye):
    X=             -0.7570    Y=             -0.0771    Z=              0.9744  Tot=              1.2363
 Quadrupole moment (field-independent basis, Debye-Ang):
   XX=            -49.6752   YY=            -56.4643   ZZ=            -51.9365
   XY=              4.9760   XZ=              2.2062   YZ=              0.0099

  Exact polarizability:  88.738   4.249  67.527   1.282  -0.096  65.301
 Approx polarizability: 113.103   2.717 104.595  -0.441   1.113 101.468

                      1                      2                      3
                      A                      A                      A
 Frequencies --    169.9825               191.6568               213.2037
 Red. masses --      2.3185                 2.2524                 2.2747
 Frc consts  --      0.0395                 0.0487                 0.0609
 IR Inten    --      2.5425                 1.2447                 1.6949

                      4                      5                      6
                      A                      A                      A
 Frequencies --    266.9780               349.4791               405.4852
 Red. masses --      2.8528                 4.2156                 2.9198
 Frc consts  --      0.1198                 0.3034                 0.2828
 IR Inten    --      6.2283                 3.2548                 0.8289

                      7                      8                      9
                      A                      A                      A
 Frequencies --    484.2701               642.2391               684.7021
 Red. masses --      5.1204                 3.0329                 2.6359
 Frc consts  --      0.7075                 0.7371                 0.7281
 IR Inten    --      0.4203                 2.3162                 1.1041

                     10                     11                     12
                      A                      A                      A
 Frequencies --    690.9422               732.4949               859.9528
 Red. masses --      3.8555                 3.5932                 1.6814
 Frc consts  --      1.0845                 1.1359                 0.7326
 IR Inten    --      8.9285                 7.5421                 4.1030

                     13                     14                     15
                      A                      A                      A
 Frequencies --    870.2412               887.4404               916.5501
 Red. masses --      1.8811                 3.1019                 2.8236
 Frc consts  --      0.8393                 1.4393                 1.3976
 IR Inten    --      4.2446                10.1521                12.1855

                     16                     17                     18
                      A                      A                      A
 Frequencies --    924.4759               960.1426               982.8249
 Red. masses --      2.1598                 2.0370                 1.7043
 Frc consts  --      1.0876                 1.1064                 0.9699
 IR Inten    --     11.7961                 9.6986                28.1487

                     19                     20                     21
                      A                      A                      A
 Frequencies --    994.1256              1015.5517              1033.4749
 Red. masses --      2.0674                 2.1270                 2.9422
 Frc consts  --      1.2038                 1.2925                 1.8515
 IR Inten    --     13.4248                17.0849                 7.5628

                     22                     23                     24
                      A                      A                      A
 Frequencies --   1066.8407              1106.9782              1120.7528
 Red. masses --      2.3341                 2.0077                 2.2391
 Frc consts  --      1.5652                 1.4495                 1.6570
 IR Inten    --      6.7255                 2.7157                29.8142

                     25                     26                     27
                      A                      A                      A
 Frequencies --   1141.7633              1206.1231              1210.0803
 Red. masses --      4.2986                 1.3577                 1.8159
 Frc consts  --      3.3016                 1.1637                 1.5667
 IR Inten    --    117.4232                 0.5290                18.6083

                     28                     29                     30
                      A                      A                      A
 Frequencies --   1217.9608              1229.8996              1249.6690
 Red. masses --      1.3214                 1.4272                 1.3156
 Frc consts  --      1.1550                 1.2720                 1.2105
 IR Inten    --      1.5843                 7.4251                31.4367

                     31                     32                     33
                      A                      A                      A
 Frequencies --   1269.9324              1284.3233              1315.2558
 Red. masses --      1.3145                 1.4211                 1.3610
 Frc consts  --      1.2490                 1.3811                 1.3872
 IR Inten    --      1.9319                 5.1191                 4.1556

                     34                     35                     36
                      A                      A                      A
 Frequencies --   1334.9716              1392.6888              1396.4234
 Red. masses --      1.9511                 1.5149                 1.5356
 Frc consts  --      2.0487                 1.7312                 1.7642
 IR Inten    --     32.5751                 8.7628                 3.5680

                     37                     38                     39
                      A                      A                      A
 Frequencies --   1426.2930              1493.2455              1498.5510
 Red. masses --      2.4603                 1.0956                 1.1167
 Frc consts  --      2.9488                 1.4394                 1.4775
 IR Inten    --      9.4619                 1.8898                 0.3966

                     40                     41                     42
                      A                      A                      A
 Frequencies --   1523.6781              1525.6393              3004.6076
 Red. masses --      1.0929                 1.0966                 1.0704
 Frc consts  --      1.4949                 1.5039                 5.6934
 IR Inten    --      0.2859                 1.1911                49.2105

                     43                     44                     45
                      A                      A                      A
 Frequencies --   3008.2965              3047.7362              3048.8021
 Red. masses --      1.0704                 1.0594                 1.0602
 Frc consts  --      5.7072                 5.7979                 5.8061
 IR Inten    --     48.0167                38.1781                19.9510

                     46                     47                     48
                      A                      A                      A
 Frequencies --   3085.5109              3086.2406              3099.2838
 Red. masses --      1.0990                 1.0942                 1.1025
 Frc consts  --      6.1647                 6.1403                 6.2393
 IR Inten    --     33.5147                23.2530                14.7771

                     49                     50                     51
                      A                      A                      A
 Frequencies --   3099.4843              3163.8031              3165.6793
 Red. masses --      1.1032                 1.0938                 1.0886
 Frc consts  --      6.2444                 6.4504                 6.4276
 IR Inten    --     55.9025                10.7401                17.0784

 - Thermochemistry -
 -------------------
 Temperature   298.150 Kelvin.  Pressure   1.00000 Atm.
 Atom     1 has atomic number  6 and mass  12.00000

 Molecular mass:   126.06808 amu.
 Principal axes and moments of inertia in atomic units:
                           1         2         3
     Eigenvalues --   492.591681239.845971455.78078
           X            0.99909   0.04045   0.01328
           Y           -0.04036   0.99916  -0.00747
           Z           -0.01357   0.00692   0.99988
 This molecule is an asymmetric top.
 Rotational symmetry number  1.
 Warning -- assumption of classical behavior for rotation
           may cause significant error
 Rotational temperatures (Kelvin)      0.17583     0.06986     0.05950
 Rotational constants (GHZ):           3.66377     1.45562     1.23971
 Zero-point vibrational energy     425252.9 (Joules/Mol)
                                  101.63787 (Kcal/Mol)
 Warning -- explicit consideration of   7 degrees of freedom as
           vibrations may cause significant error
 Vibrational temperatures:    244.57   275.75   306.75   384.12   502.82
          (Kelvin)            583.40   696.76   924.04   985.13   994.11
                             1053.90  1237.28  1252.08  1276.83  1318.71
                             1330.11  1381.43  1414.06  1430.32  1461.15
                             1486.94  1534.94  1592.69  1612.51  1642.74
                             1735.34  1741.03  1752.37  1769.55  1797.99
                             1827.15  1847.85  1892.36  1920.72  2003.77
                             2009.14  2052.11  2148.44  2156.08  2192.23
                             2195.05  4322.95  4328.26  4385.01  4386.54
                             4439.36  4440.41  4459.17  4459.46  4552.00
                             4554.70

 Zero-point correction=                           0.161970 (Hartree/Particle)
 Thermal correction to Energy=                    0.169091
 Thermal correction to Enthalpy=                  0.170035
 Thermal correction to Gibbs Free Energy=         0.130643
 Sum of electronic and zero-point Energies=           -423.012419
 Sum of electronic and thermal Energies=              -423.005299
 Sum of electronic and thermal Enthalpies=            -423.004354
 Sum of electronic and thermal Free Energies=         -423.043746

                     E (Thermal)             CV                S
                      KCal/Mol        Cal/Mol-Kelvin    Cal/Mol-Kelvin
 Total                  106.106             28.692             82.907
 Electronic               0.000              0.000              0.000
 Translational            0.889              2.981             40.409
 Rotational               0.889              2.981             28.277
 Vibrational            104.329             22.731             14.221
 Vibration     1          0.625              1.879              2.436
 Vibration     2          0.634              1.851              2.212
 Vibration     3          0.644              1.821              2.016
 Vibration     4          0.672              1.734              1.616
 Vibration     5          0.727              1.576              1.169
 Vibration     6          0.770              1.458              0.943
 Vibration     7          0.840              1.285              0.699

 Optimization completed.
    -- Stationary point found.
 Normal termination of Gaussian 09 at Mon Jan 27 13:11:09 2020.
