 Gaussian 09, Revision D.01,
 Gaussian 09:  ES64L-G09RevD.01 24-Apr-2013

 -----------------------------
 # b3lyp 6-31G(2df,p) opt Freq
 -----------------------------

 -----
 titel
 -----
 Symbolic Z-matrix:
 Charge =  0 Multiplicity = 1

 SCF Done:  E(RB3LYP) =  -423.088449364     A.U. after   14 cycles
 Optimization completed.
    -- Stationary point found.
 Normal termination of Gaussian 09 at Tue Jan 28 01:53:13 2020.

 ----------------------------------------------------------------------
 #N Geom=AllCheck Guess=TCheck SCRF=Check GenChk RB3LYP/6-31G(2df,p) Fr
 eq
 ----------------------------------------------------------------------

 Structure from the checkpoint file:  "/scratch/puck/g09_9b0e8e20-4312-482f-bd94-3cf3b6183efc/Gau-38013.chk"
 -----
 titel
 -----
 Charge =  0 Multiplicity = 1

                         Standard orientation:
 ---------------------------------------------------------------------
 Center     Atomic      Atomic             Coordinates (Angstroms)
 Number     Number       Type             X           Y           Z
 ---------------------------------------------------------------------
      1          6           0        2.494212    0.839558    0.458705
      2          6           0        1.611246    0.113325   -0.522082
      3          8           0        1.393232   -1.301296   -0.270495
      4          6           0        0.306734   -0.433532   -0.168359
      5          6           0       -0.721192   -0.352965    0.975489
      6          8           0       -1.398945   -1.519194    0.354963
      7          6           0       -1.090145   -0.618076   -0.784623
      8          6           0       -1.607242    0.567918    0.083591
      9          6           0       -1.274568    2.021560   -0.206281
     10          1           0        2.237019    0.571376    1.486502
     11          1           0        3.545500    0.585322    0.289195
     12          1           0        2.388772    1.923835    0.341780
     13          1           0        1.797594    0.335095   -1.574526
     14          1           0       -0.585171   -0.364443    2.056728
     15          1           0       -1.387281   -0.942465   -1.781732
     16          1           0       -2.661529    0.417907    0.327115
     17          1           0       -0.219671    2.173764   -0.445671
     18          1           0       -1.866785    2.387683   -1.051638
     19          1           0       -1.517009    2.649131    0.657853
 ---------------------------------------------------------------------

 SCF Done:  E(RB3LYP) =  -423.088449364     A.U. after    1 cycles

 The electronic state is 1-A.
 Alpha  occ. eigenvalues --  -19.15197 -19.13474 -10.24783 -10.24735 -10.24662
 Alpha  occ. eigenvalues --  -10.24304 -10.20419 -10.18993 -10.18653  -1.08434
 Alpha  occ. eigenvalues --   -1.04810  -0.80056  -0.75189  -0.71535  -0.65876
 Alpha  occ. eigenvalues --   -0.63304  -0.61194  -0.52777  -0.52506  -0.48115
 Alpha  occ. eigenvalues --   -0.45214  -0.44133  -0.43104  -0.42880  -0.40319
 Alpha  occ. eigenvalues --   -0.38829  -0.38065  -0.36186  -0.34460  -0.34288
 Alpha  occ. eigenvalues --   -0.31747  -0.29376  -0.26268  -0.24050
 Alpha virt. eigenvalues --    0.06661   0.09153   0.10700   0.11318   0.11796
 Alpha virt. eigenvalues --    0.12648   0.13265   0.13715   0.14884   0.15021
 Alpha virt. eigenvalues --    0.16160   0.17052   0.18203   0.18749   0.20122

 Mulliken charges:
               1
     1  C   -0.418218
     2  C   -0.082688
     3  O   -0.304139
     4  C    0.556379
     5  C   -0.092156
     6  O   -0.311257
     7  C   -0.095726
     8  C    0.042299
     9  C   -0.444132
    10  H    0.128823
    11  H    0.134523
    12  H    0.124457
    13  H    0.096841
    14  H    0.098668
    15  H    0.099630
    16  H    0.090802
    17  H    0.124773
    18  H    0.125832
    19  H    0.125289
 Sum of Mulliken charges =   0.00000

 Dipole moment (field-independent basis, Debye):
    X=              0.2660    Y=              3.4490    Z=             -0.3945  Tot=              3.4817
 Quadrupole moment (field-independent basis, Debye-Ang):
   XX=            -52.7690   YY=            -58.8855   ZZ=            -49.4813
   XY=              0.2493   XZ=              1.0676   YZ=              0.7758

  Exact polarizability:  85.261   2.123  72.937   0.140   0.381  69.030
 Approx polarizability: 114.473   4.201 112.112  -1.425  -1.200 107.207

                      1                      2                      3
                      A                      A                      A
 Frequencies --    128.7612               142.3086               177.8342
 Red. masses --      3.1816                 2.6905                 1.0909
 Frc consts  --      0.0311                 0.0321                 0.0203
 IR Inten    --      0.0523                 0.1569                 0.0240

                      4                      5                      6
                      A                      A                      A
 Frequencies --    193.1406               231.0461               307.2335
 Red. masses --      1.0893                 2.7950                 3.1642
 Frc consts  --      0.0239                 0.0879                 0.1760
 IR Inten    --      0.0654                 0.7763                 0.7282

                      7                      8                      9
                      A                      A                      A
 Frequencies --    323.2862               413.3233               453.4954
 Red. masses --      3.4646                 3.8877                 3.5467
 Frc consts  --      0.2133                 0.3913                 0.4298
 IR Inten    --      0.3581                 2.0975                 3.9475

                     10                     11                     12
                      A                      A                      A
 Frequencies --    528.0375               612.2516               665.8657
 Red. masses --      3.9819                 4.3130                 4.3030
 Frc consts  --      0.6541                 0.9525                 1.1241
 IR Inten    --      4.1601                 3.3504                22.0552

                     13                     14                     15
                      A                      A                      A
 Frequencies --    755.2625               794.9225               808.5515
 Red. masses --      5.0886                 2.4716                 2.6380
 Frc consts  --      1.7102                 0.9202                 1.0161
 IR Inten    --     10.5655                 4.0727                10.7316

                     16                     17                     18
                      A                      A                      A
 Frequencies --    816.6764               875.7447               918.1275
 Red. masses --      3.0079                 3.2636                 1.9478
 Frc consts  --      1.1820                 1.4747                 0.9674
 IR Inten    --      9.6646                26.7639                 1.5594

                     19                     20                     21
                      A                      A                      A
 Frequencies --    984.8354              1009.8335              1023.3762
 Red. masses --      2.3104                 1.6824                 1.5867
 Frc consts  --      1.3203                 1.0108                 0.9791
 IR Inten    --     32.0457                31.4319                22.3276

                     22                     23                     24
                      A                      A                      A
 Frequencies --   1058.7741              1086.7471              1111.2289
 Red. masses --      1.6384                 1.8443                 2.4771
 Frc consts  --      1.0821                 1.2833                 1.8022
 IR Inten    --      2.9374                 5.9390                 2.5177

                     25                     26                     27
                      A                      A                      A
 Frequencies --   1115.8247              1125.5033              1142.0035
 Red. masses --      2.3835                 2.1378                 1.3056
 Frc consts  --      1.7484                 1.5956                 1.0032
 IR Inten    --      1.5554                 4.0565                 1.1112

                     28                     29                     30
                      A                      A                      A
 Frequencies --   1158.8997              1189.3959              1232.9181
 Red. masses --      2.9076                 1.8408                 1.5993
 Frc consts  --      2.3008                 1.5343                 1.4324
 IR Inten    --     12.0291                15.3233                 3.3091

                     31                     32                     33
                      A                      A                      A
 Frequencies --   1245.7874              1256.1148              1349.8105
 Red. masses --      1.4418                 1.6774                 1.3588
 Frc consts  --      1.3184                 1.5593                 1.4586
 IR Inten    --      3.4069                 0.9087                20.5991

                     34                     35                     36
                      A                      A                      A
 Frequencies --   1382.7276              1409.5795              1412.5948
 Red. masses --      1.4753                 1.2673                 1.2851
 Frc consts  --      1.6618                 1.4835                 1.5108
 IR Inten    --      7.4933                 5.6214                 7.3537

                     37                     38                     39
                      A                      A                      A
 Frequencies --   1476.3671              1491.1273              1496.2553
 Red. masses --      1.0884                 1.0594                 1.0507
 Frc consts  --      1.3977                 1.3878                 1.3859
 IR Inten    --      0.6658                 5.0450                 3.8563

                     40                     41                     42
                      A                      A                      A
 Frequencies --   1498.1052              1553.6479              3036.4860
 Red. masses --      1.0507                 4.7725                 1.0360
 Frc consts  --      1.3894                 6.7873                 5.6277
 IR Inten    --      2.9464                22.6691                15.1844

                     43                     44                     45
                      A                      A                      A
 Frequencies --   3039.6826              3091.1368              3091.2465
 Red. masses --      1.0374                 1.0856                 1.0871
 Frc consts  --      5.6474                 6.1115                 6.1206
 IR Inten    --     23.4731                 7.5162                15.8186

                     46                     47                     48
                      A                      A                      A
 Frequencies --   3097.8400              3100.7318              3123.7950
 Red. masses --      1.1006                 1.1003                 1.0919
 Frc consts  --      6.2231                 6.2332                 6.2774
 IR Inten    --     18.0319                18.6253                43.3437

                     49                     50                     51
                      A                      A                      A
 Frequencies --   3126.0038              3127.1709              3130.3034
 Red. masses --      1.0978                 1.0997                 1.0972
 Frc consts  --      6.3203                 6.3360                 6.3342
 IR Inten    --     24.4354                40.8767                15.6534

 - Thermochemistry -
 -------------------
 Temperature   298.150 Kelvin.  Pressure   1.00000 Atm.
 Atom     1 has atomic number  6 and mass  12.00000

 Molecular mass:   126.06808 amu.
 Principal axes and moments of inertia in atomic units:
                           1         2         3
     Eigenvalues --   711.838781161.490881566.86604
           X            0.99988   0.00097   0.01574
           Y           -0.00104   0.99999   0.00439
           Z           -0.01573  -0.00441   0.99987
 This molecule is an asymmetric top.
 Rotational symmetry number  1.
 Warning -- assumption of classical behavior for rotation
           may cause significant error
 Rotational temperatures (Kelvin)      0.12168     0.07457     0.05528
 Rotational constants (GHZ):           2.53532     1.55381     1.15182
 Zero-point vibrational energy     412243.4 (Joules/Mol)
                                   98.52855 (Kcal/Mol)
 Warning -- explicit consideration of  11 degrees of freedom as
           vibrations may cause significant error
 Vibrational temperatures:    185.26   204.75   255.86   277.89   332.42
          (Kelvin)            442.04   465.14   594.68   652.48   759.73
                              880.89   958.03  1086.65  1143.71  1163.32
                             1175.01  1260.00  1320.98  1416.96  1452.92
                             1472.41  1523.34  1563.58  1598.81  1605.42
                             1619.35  1643.09  1667.40  1711.27  1773.89
                             1792.41  1807.27  1942.07  1989.43  2028.07
                             2032.41  2124.16  2145.40  2152.78  2155.44
                             2235.35  4368.82  4373.42  4447.45  4447.61
                             4457.10  4461.26  4494.44  4497.62  4499.30
                             4503.80

 Zero-point correction=                           0.157015 (Hartree/Particle)
 Thermal correction to Energy=                    0.165534
 Thermal correction to Enthalpy=                  0.166478
 Thermal correction to Gibbs Free Energy=         0.124161
 Sum of electronic and zero-point Energies=           -422.931434
 Sum of electronic and thermal Energies=              -422.922916
 Sum of electronic and thermal Enthalpies=            -422.921972
 Sum of electronic and thermal Free Energies=         -422.964289

                     E (Thermal)             CV                S
                      KCal/Mol        Cal/Mol-Kelvin    Cal/Mol-Kelvin
 Total                  103.874             32.695             89.063
 Electronic               0.000              0.000              0.000
 Translational            0.889              2.981             40.409
 Rotational               0.889              2.981             28.651
 Vibrational            102.096             26.733             20.004
 Vibration     1          0.611              1.924              2.964
 Vibration     2          0.616              1.911              2.773
 Vibration     3          0.628              1.870              2.351
 Vibration     4          0.635              1.849              2.197
 Vibration     5          0.653              1.794              1.871
 Vibration     6          0.697              1.660              1.377
 Vibration     7          0.708              1.629              1.293
 Vibration     8          0.777              1.441              0.915
 Vibration     9          0.812              1.353              0.785
 Vibration    10          0.883              1.188              0.592
 Vibration    11          0.971              1.006              0.429

 Normal termination of Gaussian 09 at Tue Jan 28 02:42:02 2020.
 Normal termination of Gaussian 09 at Tue Jan 28 01:46:43 2020.
