 Gaussian 09, Revision D.01,
 Gaussian 09:  ES64L-G09RevD.01 24-Apr-2013

 -----------------------------
 # b3lyp 6-31G(2df,p) opt Freq
 -----------------------------

 -----
 titel
 -----
 Symbolic Z-matrix:
 Charge =  0 Multiplicity = 1

 SCF Done:  E(RB3LYP) =  -423.125309491     A.U. after   14 cycles
 Optimization completed.
    -- Stationary point found.
 Normal termination of Gaussian 09 at Tue Jan 28 09:06:19 2020.

 ----------------------------------------------------------------------
 #N Geom=AllCheck Guess=TCheck SCRF=Check GenChk RB3LYP/6-31G(2df,p) Fr
 eq
 ----------------------------------------------------------------------

 Structure from the checkpoint file:  "/scratch/puck/g09_47d14429-bbff-495e-ba1c-359a34be2ae9/Gau-19997.chk"
 -----
 titel
 -----
 Charge =  0 Multiplicity = 1

                         Standard orientation:
 ---------------------------------------------------------------------
 Center     Atomic      Atomic             Coordinates (Angstroms)
 Number     Number       Type             X           Y           Z
 ---------------------------------------------------------------------
      1          6           0       -2.364254    0.457487    0.637324
      2          6           0       -1.216952   -0.534303    0.536631
      3          6           0       -1.147668   -1.399786   -0.739167
      4          8           0        0.132847   -0.846260   -1.119668
      5          6           0        0.188862   -0.013634    0.081290
      6          6           0        1.371235   -0.501141    0.932427
      7          8           0        2.565733   -0.474499    0.190038
      8          6           0        0.300495    1.400715   -0.243596
      9          6           0        0.380007    2.575367   -0.486121
     10          1           0       -2.221931    1.144016    1.477461
     11          1           0       -2.451784    1.058139   -0.272220
     12          1           0       -3.310165   -0.072635    0.791760
     13          1           0       -1.139541   -1.118134    1.458229
     14          1           0       -1.095471   -2.483962   -0.587426
     15          1           0       -1.916540   -1.179783   -1.489605
     16          1           0        1.507114    0.146324    1.804622
     17          1           0        1.136457   -1.517435    1.289506
     18          1           0        2.369092   -0.929315   -0.639288
     19          1           0        0.463775    3.610623   -0.708722
 ---------------------------------------------------------------------

 SCF Done:  E(RB3LYP) =  -423.125309491     A.U. after    1 cycles

 The electronic state is 1-A.
 Alpha  occ. eigenvalues --  -19.14529 -19.13208 -10.26096 -10.23720 -10.23080
 Alpha  occ. eigenvalues --  -10.20634 -10.18441 -10.18330 -10.18011  -1.05142
 Alpha  occ. eigenvalues --   -1.01317  -0.79768  -0.76646  -0.72040  -0.67974
 Alpha  occ. eigenvalues --   -0.64108  -0.58766  -0.52488  -0.51661  -0.49322
 Alpha  occ. eigenvalues --   -0.47902  -0.46263  -0.43079  -0.42033  -0.40566
 Alpha  occ. eigenvalues --   -0.40221  -0.36913  -0.35569  -0.32420  -0.31460
 Alpha  occ. eigenvalues --   -0.28776  -0.27230  -0.26622  -0.25350
 Alpha virt. eigenvalues --    0.01918   0.04651   0.08430   0.10365   0.11964
 Alpha virt. eigenvalues --    0.12253   0.12798   0.13786   0.14450   0.15350
 Alpha virt. eigenvalues --    0.15767   0.16689   0.18345   0.19481   0.21648

 Mulliken charges:
               1
     1  C   -0.416394
     2  C   -0.094524
     3  C   -0.077838
     4  O   -0.323159
     5  C    0.151346
     6  C   -0.086238
     7  O   -0.417392
     8  C    0.360295
     9  C   -0.464047
    10  H    0.127043
    11  H    0.134054
    12  H    0.116490
    13  H    0.084565
    14  H    0.105773
    15  H    0.108860
    16  H    0.115551
    17  H    0.080871
    18  H    0.294391
    19  H    0.200356
 Sum of Mulliken charges =   0.00000

 Dipole moment (field-independent basis, Debye):
    X=             -2.5128    Y=             -0.4411    Z=              0.8132  Tot=              2.6777
 Quadrupole moment (field-independent basis, Debye-Ang):
   XX=            -57.3885   YY=            -46.9871   ZZ=            -53.3256
   XY=              1.0184   XZ=             -0.9840   YZ=             -0.8468

  Exact polarizability:  76.099   4.634  92.209   0.176  -2.834  63.489
 Approx polarizability: 100.552   7.599 141.593  -0.908  -5.981  96.429

                      1                      2                      3
                      A                      A                      A
 Frequencies --     58.6251               105.5029               145.1886
 Red. masses --      2.7510                 3.8713                 3.3558
 Frc consts  --      0.0056                 0.0254                 0.0417
 IR Inten    --      0.3961                 4.1025                 0.1416

                      4                      5                      6
                      A                      A                      A
 Frequencies --    171.7882               197.8965               228.0643
 Red. masses --      4.0287                 2.2023                 1.3622
 Frc consts  --      0.0700                 0.0508                 0.0417
 IR Inten    --      1.3481                 0.8007                 0.8352

                      7                      8                      9
                      A                      A                      A
 Frequencies --    291.5530               328.7177               424.5528
 Red. masses --      2.4674                 3.2285                 4.3478
 Frc consts  --      0.1236                 0.2055                 0.4617
 IR Inten    --      0.0962                 4.5102                 3.6781

                     10                     11                     12
                      A                      A                      A
 Frequencies --    429.6382               476.8780               531.5576
 Red. masses --      2.5345                 1.2107                 5.6786
 Frc consts  --      0.2756                 0.1622                 0.9453
 IR Inten    --      4.6065                98.6577                15.9426

                     13                     14                     15
                      A                      A                      A
 Frequencies --    561.2208               628.3694               668.1503
 Red. masses --      4.3742                 1.2499                 1.2619
 Frc consts  --      0.8117                 0.2908                 0.3319
 IR Inten    --      4.7096                38.3592                32.7704

                     16                     17                     18
                      A                      A                      A
 Frequencies --    689.3496               769.9924               888.4824
 Red. masses --      3.5860                 3.8477                 2.4022
 Frc consts  --      1.0040                 1.3441                 1.1172
 IR Inten    --     21.3324                 5.0326                15.6163

                     19                     20                     21
                      A                      A                      A
 Frequencies --    909.5256               928.8885               995.9192
 Red. masses --      1.7315                 1.3874                 2.7573
 Frc consts  --      0.8439                 0.7053                 1.6113
 IR Inten    --     18.2408                 4.5561                28.5212

                     22                     23                     24
                      A                      A                      A
 Frequencies --   1013.4506              1035.2496              1065.7312
 Red. masses --      7.0717                 2.3847                 2.6224
 Frc consts  --      4.2793                 1.5058                 1.7549
 IR Inten    --    103.2391                11.3704                81.8699

                     25                     26                     27
                      A                      A                      A
 Frequencies --   1110.7098              1138.3245              1157.1845
 Red. masses --      3.5358                 2.2138                 1.3606
 Frc consts  --      2.5700                 1.6902                 1.0735
 IR Inten    --     31.9073                 6.4217                 1.0494

                     28                     29                     30
                      A                      A                      A
 Frequencies --   1175.7364              1208.6792              1256.3454
 Red. masses --      1.9124                 1.6891                 1.7450
 Frc consts  --      1.5576                 1.4539                 1.6228
 IR Inten    --      4.3400                 2.0201                16.0510

                     31                     32                     33
                      A                      A                      A
 Frequencies --   1279.3654              1337.5075              1375.0709
 Red. masses --      1.6228                 1.3155                 1.4983
 Frc consts  --      1.5650                 1.3866                 1.6691
 IR Inten    --      9.8725                 3.4752                 2.5160

                     34                     35                     36
                      A                      A                      A
 Frequencies --   1389.1911              1415.7694              1431.2627
 Red. masses --      1.2680                 1.2544                 1.2521
 Frc consts  --      1.4417                 1.4814                 1.5112
 IR Inten    --      4.6420                 1.7132                81.8794

                     37                     38                     39
                      A                      A                      A
 Frequencies --   1492.3605              1493.8284              1495.8789
 Red. masses --      1.0476                 1.0528                 1.0805
 Frc consts  --      1.3746                 1.3841                 1.4246
 IR Inten    --      5.0559                 4.4229                 2.3705

                     40                     41                     42
                      A                      A                      A
 Frequencies --   1526.7516              2231.8991              2966.8481
 Red. masses --      1.0968                 5.9280                 1.0698
 Frc consts  --      1.5063                17.3985                 5.5481
 IR Inten    --      1.2186                 2.7150                56.0528

                     43                     44                     45
                      A                      A                      A
 Frequencies --   3020.6232              3037.6762              3057.8222
 Red. masses --      1.0552                 1.0363                 1.0967
 Frc consts  --      5.6724                 5.6341                 6.0417
 IR Inten    --     70.8670                19.7362                 6.2766

                     46                     47                     48
                      A                      A                      A
 Frequencies --   3072.5458              3081.5862              3104.3776
 Red. masses --      1.0993                 1.0926                 1.1008
 Frc consts  --      6.1144                 6.1131                 6.2504
 IR Inten    --     46.2530                22.6799                21.7888

                     49                     50                     51
                      A                      A                      A
 Frequencies --   3119.7574              3500.2514              3772.5482
 Red. masses --      1.1014                 1.1621                 1.0652
 Frc consts  --      6.3158                 8.3886                 8.9321
 IR Inten    --     23.4569                63.0613                30.5427

 - Thermochemistry -
 -------------------
 Temperature   298.150 Kelvin.  Pressure   1.00000 Atm.
 Atom     1 has atomic number  6 and mass  12.00000

 Molecular mass:   126.06808 amu.
 Principal axes and moments of inertia in atomic units:
                           1         2         3
     Eigenvalues --   861.790681187.248351599.09936
           X            0.99996  -0.00669  -0.00584
           Y            0.00665   0.99996  -0.00647
           Z            0.00588   0.00643   0.99996
 This molecule is an asymmetric top.
 Rotational symmetry number  1.
 Warning -- assumption of classical behavior for rotation
           may cause significant error
 Rotational temperatures (Kelvin)      0.10050     0.07295     0.05416
 Rotational constants (GHZ):           2.09418     1.52010     1.12860
 Zero-point vibrational energy     411480.7 (Joules/Mol)
                                   98.34624 (Kcal/Mol)
 Warning -- explicit consideration of  13 degrees of freedom as
           vibrations may cause significant error
 Vibrational temperatures:     84.35   151.80   208.89   247.16   284.73
          (Kelvin)            328.13   419.48   472.95   610.84   618.15
                              686.12   764.79   807.47   904.08   961.32
                              991.82  1107.85  1278.33  1308.60  1336.46
                             1432.90  1458.13  1489.49  1533.35  1598.06
                             1637.79  1664.93  1691.62  1739.02  1807.60
                             1840.72  1924.37  1978.42  1998.73  2036.97
                             2059.27  2147.17  2149.28  2152.23  2196.65
                             3211.20  4268.63  4346.00  4370.53  4399.52
                             4420.70  4433.71  4466.50  4488.63  5036.07
                             5427.85

 Zero-point correction=                           0.156725 (Hartree/Particle)
 Thermal correction to Energy=                    0.166399
 Thermal correction to Enthalpy=                  0.167343
 Thermal correction to Gibbs Free Energy=         0.122144
 Sum of electronic and zero-point Energies=           -422.968585
 Sum of electronic and thermal Energies=              -422.958911
 Sum of electronic and thermal Enthalpies=            -422.957967
 Sum of electronic and thermal Free Energies=         -423.003165

                     E (Thermal)             CV                S
                      KCal/Mol        Cal/Mol-Kelvin    Cal/Mol-Kelvin
 Total                  104.417             35.667             95.128
 Electronic               0.000              0.000              0.000
 Translational            0.889              2.981             40.409
 Rotational               0.889              2.981             28.883
 Vibrational            102.639             29.706             25.837
 Vibration     1          0.596              1.974              4.503
 Vibration     2          0.605              1.945              3.350
 Vibration     3          0.617              1.908              2.734
 Vibration     4          0.626              1.877              2.416
 Vibration     5          0.637              1.843              2.153
 Vibration     6          0.651              1.798              1.894
 Vibration     7          0.687              1.689              1.465
 Vibration     8          0.712              1.618              1.266
 Vibration     9          0.787              1.417              0.877
 Vibration    10          0.791              1.406              0.860
 Vibration    11          0.833              1.301              0.719
 Vibration    12          0.887              1.180              0.584
 Vibration    13          0.917              1.115              0.521

 Optimization completed.
    -- Stationary point found.
 Normal termination of Gaussian 09 at Tue Jan 28 09:47:36 2020.
