 Gaussian 09, Revision D.01,
 Gaussian 09:  ES64L-G09RevD.01 24-Apr-2013

 -----------------------------
 # b3lyp 6-31G(2df,p) opt Freq
 -----------------------------

 -----
 titel
 -----
 Symbolic Z-matrix:
 Charge =  0 Multiplicity = 1

 SCF Done:  E(RB3LYP) =  -423.120767325     A.U. after   14 cycles
 Optimization completed.
    -- Stationary point found.
 Normal termination of Gaussian 09 at Mon Jan 27 12:11:53 2020.

 ----------------------------------------------------------------------
 #N Geom=AllCheck Guess=TCheck SCRF=Check GenChk RB3LYP/6-31G(2df,p) Fr
 eq
 ----------------------------------------------------------------------

 Structure from the checkpoint file:  "/scratch/puck/g09_c6f5ad2e-26de-487f-b470-ba04b7420202/Gau-35063.chk"
 -----
 titel
 -----
 Charge =  0 Multiplicity = 1

                         Standard orientation:
 ---------------------------------------------------------------------
 Center     Atomic      Atomic             Coordinates (Angstroms)
 Number     Number       Type             X           Y           Z
 ---------------------------------------------------------------------
      1          6           0       -2.674033   -0.675811    0.260311
      2          8           0       -2.600601    0.517931   -0.519502
      3          6           0       -1.397082   -0.234872   -0.315823
      4          6           0       -0.330270    0.425791    0.507748
      5          6           0        0.612319    1.468524   -0.185173
      6          6           0        1.860173    0.685468    0.314246
      7          6           0        2.337263   -0.406363   -0.652167
      8          8           0        1.318037   -1.325713   -0.185872
      9          6           0        0.917444   -0.420797    0.867914
     10          1           0       -2.864395   -0.528891    1.323258
     11          1           0       -3.216852   -1.502632   -0.195862
     12          1           0       -1.038787   -0.751665   -1.205046
     13          1           0       -0.779875    0.851111    1.410819
     14          1           0        0.520807    1.520254   -1.274155
     15          1           0        0.516850    2.479947    0.213198
     16          1           0        2.602530    1.221872    0.902627
     17          1           0        2.249585   -0.193919   -1.724931
     18          1           0        3.342175   -0.796487   -0.444112
     19          1           0        0.973588   -0.888978    1.854867
 ---------------------------------------------------------------------

 SCF Done:  E(RB3LYP) =  -423.120767325     A.U. after    1 cycles

 The electronic state is 1-A.
 Alpha  occ. eigenvalues --  -19.14434 -19.13695 -10.23632 -10.23338 -10.23139
 Alpha  occ. eigenvalues --  -10.22884 -10.19564 -10.19230 -10.18855  -1.06350
 Alpha  occ. eigenvalues --   -1.04225  -0.83066  -0.73260  -0.67501  -0.65688
 Alpha  occ. eigenvalues --   -0.63774  -0.58734  -0.52832  -0.52416  -0.49221
 Alpha  occ. eigenvalues --   -0.48153  -0.46669  -0.42989  -0.42314  -0.40086
 Alpha  occ. eigenvalues --   -0.39142  -0.36193  -0.35728  -0.34054  -0.30901
 Alpha  occ. eigenvalues --   -0.29901  -0.28259  -0.26449  -0.24413
 Alpha virt. eigenvalues --    0.06382   0.08499   0.09831   0.11030   0.11437
 Alpha virt. eigenvalues --    0.12246   0.12487   0.14197   0.15807   0.16329
 Alpha virt. eigenvalues --    0.16783   0.18139   0.19165   0.20088   0.21187

 Mulliken charges:
               1
     1  C   -0.186336
     2  O   -0.243741
     3  C    0.090498
     4  C   -0.022645
     5  C   -0.265310
     6  C   -0.076934
     7  C   -0.075905
     8  O   -0.293642
     9  C    0.096409
    10  H    0.108225
    11  H    0.115288
    12  H    0.102568
    13  H    0.076633
    14  H    0.106679
    15  H    0.110644
    16  H    0.078889
    17  H    0.103044
    18  H    0.101836
    19  H    0.073803
 Sum of Mulliken charges =   0.00000

 Dipole moment (field-independent basis, Debye):
    X=              1.5426    Y=              0.3422    Z=              1.1805  Tot=              1.9724
 Quadrupole moment (field-independent basis, Debye-Ang):
   XX=            -53.4726   YY=            -55.6581   ZZ=            -50.8322
   XY=              5.9484   XZ=             -2.7221   YZ=              0.5512

  Exact polarizability:  89.644   3.469  67.725  -4.883  -0.266  67.963
 Approx polarizability: 113.754   2.137 103.216  -6.202  -1.841 103.631

                      1                      2                      3
                      A                      A                      A
 Frequencies --     65.0324                82.1112               160.9939
 Red. masses --      3.6327                 3.0932                 4.4760
 Frc consts  --      0.0091                 0.0123                 0.0684
 IR Inten    --      2.7796                 0.6292                 7.0079

                      4                      5                      6
                      A                      A                      A
 Frequencies --    235.6365               321.7139               367.9273
 Red. masses --      3.0521                 4.6224                 1.8288
 Frc consts  --      0.0998                 0.2819                 0.1459
 IR Inten    --      1.4514                 2.0514                 0.0375

                      7                      8                      9
                      A                      A                      A
 Frequencies --    428.3552               514.0260               695.3435
 Red. masses --      3.4190                 3.8935                 3.6398
 Frc consts  --      0.3696                 0.6061                 1.0369
 IR Inten    --      2.2206                 7.5864                 6.0999

                     10                     11                     12
                      A                      A                      A
 Frequencies --    759.0068               796.8310               835.6668
 Red. masses --      1.7811                 2.3752                 1.7291
 Frc consts  --      0.6045                 0.8886                 0.7114
 IR Inten    --      0.8725                 7.1345                15.6377

                     13                     14                     15
                      A                      A                      A
 Frequencies --    858.3966               894.2691               914.1847
 Red. masses --      5.5348                 1.9898                 2.5314
 Frc consts  --      2.4028                 0.9375                 1.2464
 IR Inten    --     10.6704                 7.0008                 8.4207

                     16                     17                     18
                      A                      A                      A
 Frequencies --    926.8623               938.5493               993.3376
 Red. masses --      3.8065                 2.4462                 1.3725
 Frc consts  --      1.9267                 1.2696                 0.7979
 IR Inten    --     28.8961                 8.1776                 1.0170

                     19                     20                     21
                      A                      A                      A
 Frequencies --    998.3419              1021.8971              1049.6149
 Red. masses --      3.0319                 2.9104                 2.1930
 Frc consts  --      1.7804                 1.7907                 1.4235
 IR Inten    --     22.5613                55.1359                 7.5280

                     22                     23                     24
                      A                      A                      A
 Frequencies --   1067.1855              1107.3622              1139.4377
 Red. masses --      2.7731                 1.3735                 1.5824
 Frc consts  --      1.8608                 0.9923                 1.2105
 IR Inten    --     25.6034                 3.8824                 2.4737

                     25                     26                     27
                      A                      A                      A
 Frequencies --   1149.7952              1157.1584              1175.2738
 Red. masses --      1.3921                 1.3293                 1.3340
 Frc consts  --      1.0843                 1.0487                 1.0856
 IR Inten    --      0.7854                 1.1179                 3.1089

                     28                     29                     30
                      A                      A                      A
 Frequencies --   1185.7308              1207.0613              1220.8694
 Red. masses --      1.4949                 1.8953                 1.5014
 Frc consts  --      1.2383                 1.6270                 1.3185
 IR Inten    --      2.2656                 3.1298                 1.0105

                     31                     32                     33
                      A                      A                      A
 Frequencies --   1249.6296              1272.1790              1287.2902
 Red. masses --      1.5741                 1.4265                 1.6732
 Frc consts  --      1.4483                 1.3602                 1.6336
 IR Inten    --      3.1814                 2.2869                10.2475

                     34                     35                     36
                      A                      A                      A
 Frequencies --   1298.1380              1306.9291              1326.3858
 Red. masses --      1.4790                 1.3583                 1.4661
 Frc consts  --      1.4685                 1.3669                 1.5197
 IR Inten    --      0.7611                 8.2901                 2.8267

                     37                     38                     39
                      A                      A                      A
 Frequencies --   1362.0539              1452.9241              1483.8893
 Red. masses --      1.4337                 1.7804                 1.0978
 Frc consts  --      1.5671                 2.2144                 1.4242
 IR Inten    --      3.4774                 8.4266                 2.6891

                     40                     41                     42
                      A                      A                      A
 Frequencies --   1523.7669              1529.7056              3006.9926
 Red. masses --      1.1007                 1.3536                 1.0558
 Frc consts  --      1.5058                 1.8662                 5.6247
 IR Inten    --      0.8433                 2.8531                88.8379

                     43                     44                     45
                      A                      A                      A
 Frequencies --   3053.1809              3053.3529              3059.9937
 Red. masses --      1.1040                 1.0894                 1.0632
 Frc consts  --      6.0633                 5.9842                 5.8653
 IR Inten    --     36.8067                 3.9402                45.8651

                     46                     47                     48
                      A                      A                      A
 Frequencies --   3068.0570              3078.8879              3115.6070
 Red. masses --      1.0881                 1.0506                 1.1012
 Frc consts  --      6.0348                 5.8678                 6.2978
 IR Inten    --     39.6096                35.2735                 8.2551

                     49                     50                     51
                      A                      A                      A
 Frequencies --   3125.6144              3129.5690              3164.8486
 Red. masses --      1.0885                 1.0943                 1.1186
 Frc consts  --      6.2653                 6.3150                 6.6012
 IR Inten    --      9.3136                47.7650                31.8729

 - Thermochemistry -
 -------------------
 Temperature   298.150 Kelvin.  Pressure   1.00000 Atm.
 Atom     1 has atomic number  6 and mass  12.00000

 Molecular mass:   126.06808 amu.
 Principal axes and moments of inertia in atomic units:
                           1         2         3
     Eigenvalues --   469.933371619.636161803.27000
           X            0.99963   0.02403  -0.01249
           Y           -0.02395   0.99969   0.00668
           Z            0.01265  -0.00637   0.99990
 This molecule is an asymmetric top.
 Rotational symmetry number  1.
 Warning -- assumption of classical behavior for rotation
           may cause significant error
 Rotational temperatures (Kelvin)      0.18431     0.05348     0.04803
 Rotational constants (GHZ):           3.84042     1.11429     1.00082
 Zero-point vibrational energy     419990.7 (Joules/Mol)
                                  100.38019 (Kcal/Mol)
 Warning -- explicit consideration of   8 degrees of freedom as
           vibrations may cause significant error
 Vibrational temperatures:     93.57   118.14   231.63   339.03   462.87
          (Kelvin)            529.36   616.31   739.57  1000.44  1092.04
                             1146.46  1202.34  1235.04  1286.65  1315.31
                             1333.55  1350.36  1429.19  1436.39  1470.28
                             1510.16  1535.44  1593.25  1639.39  1654.30
                             1664.89  1690.95  1706.00  1736.69  1756.56
                             1797.94  1830.38  1852.12  1867.73  1880.38
                             1908.37  1959.69  2090.43  2134.98  2192.36
                             2200.90  4326.39  4392.84  4393.09  4402.64
                             4414.24  4429.83  4482.66  4497.06  4502.75
                             4553.51

 Zero-point correction=                           0.159966 (Hartree/Particle)
 Thermal correction to Energy=                    0.167774
 Thermal correction to Enthalpy=                  0.168719
 Thermal correction to Gibbs Free Energy=         0.126820
 Sum of electronic and zero-point Energies=           -422.960801
 Sum of electronic and thermal Energies=              -422.952993
 Sum of electronic and thermal Enthalpies=            -422.952049
 Sum of electronic and thermal Free Energies=         -422.993947

                     E (Thermal)             CV                S
                      KCal/Mol        Cal/Mol-Kelvin    Cal/Mol-Kelvin
 Total                  105.280             29.562             88.182
 Electronic               0.000              0.000              0.000
 Translational            0.889              2.981             40.409
 Rotational               0.889              2.981             28.708
 Vibrational            103.503             23.600             19.065
 Vibration     1          0.597              1.971              4.298
 Vibration     2          0.600              1.961              3.840
 Vibration     3          0.622              1.890              2.538
 Vibration     4          0.655              1.786              1.836
 Vibration     5          0.707              1.632              1.301
 Vibration     6          0.741              1.538              1.088
 Vibration     7          0.790              1.409              0.864
 Vibration     8          0.869              1.219              0.624

 Optimization completed.
    -- Stationary point found.
 Normal termination of Gaussian 09 at Mon Jan 27 12:53:07 2020.
