 Gaussian 09, Revision D.01,
 Gaussian 09:  ES64L-G09RevD.01 24-Apr-2013

 -----------------------------
 # b3lyp 6-31G(2df,p) opt Freq
 -----------------------------

 -----
 titel
 -----
 Symbolic Z-matrix:
 Charge =  0 Multiplicity = 1

 SCF Done:  E(RB3LYP) =  -423.156329207     A.U. after   14 cycles
 Optimization completed.
    -- Stationary point found.
 Normal termination of Gaussian 09 at Tue Jan 28 12:40:22 2020.

 ----------------------------------------------------------------------
 #N Geom=AllCheck Guess=TCheck SCRF=Check GenChk RB3LYP/6-31G(2df,p) Fr
 eq
 ----------------------------------------------------------------------

 Structure from the checkpoint file:  "/scratch/puck/g09_718415d1-a982-47dc-9f48-8e016ec0f89b/Gau-106677.chk"
 -----
 titel
 -----
 Charge =  0 Multiplicity = 1

                         Standard orientation:
 ---------------------------------------------------------------------
 Center     Atomic      Atomic             Coordinates (Angstroms)
 Number     Number       Type             X           Y           Z
 ---------------------------------------------------------------------
      1          6           0        2.660141   -0.349864   -0.156686
      2          8           0        1.417611   -0.723748    0.407867
      3          6           0        0.308168   -0.444489   -0.383046
      4          6           0       -0.973973   -1.264113   -0.086204
      5          8           0       -1.173549   -2.399365    0.224223
      6          6           0       -1.857757   -0.003129   -0.198123
      7          6           0       -0.558603    0.814941   -0.120271
      8          6           0       -0.295955    2.230619   -0.528762
      9          6           0       -0.237429    1.832867    0.930855
     10          1           0        2.751121    0.738626   -0.281031
     11          1           0        3.437568   -0.689923    0.531122
     12          1           0        2.816139   -0.827403   -1.135107
     13          1           0        0.547034   -0.534816   -1.457332
     14          1           0       -2.377834    0.056316   -1.160948
     15          1           0       -2.587826    0.124563    0.605322
     16          1           0        0.635721    2.455478   -1.038864
     17          1           0       -1.137297    2.831321   -0.859965
     18          1           0        0.733509    1.764612    1.409843
     19          1           0       -1.038174    2.165139    1.583658
 ---------------------------------------------------------------------

 SCF Done:  E(RB3LYP) =  -423.156329207     A.U. after    1 cycles

 The electronic state is 1-A.
 Alpha  occ. eigenvalues --  -19.15393 -19.13923 -10.26947 -10.24176 -10.23427
 Alpha  occ. eigenvalues --  -10.20579 -10.19463 -10.19402 -10.19233  -1.05437
 Alpha  occ. eigenvalues --   -1.04047  -0.88044  -0.80024  -0.71491  -0.64945
 Alpha  occ. eigenvalues --   -0.60999  -0.55926  -0.54031  -0.50369  -0.49725
 Alpha  occ. eigenvalues --   -0.48118  -0.45578  -0.44613  -0.42926  -0.41460
 Alpha  occ. eigenvalues --   -0.40745  -0.37320  -0.36686  -0.35258  -0.33398
 Alpha  occ. eigenvalues --   -0.30028  -0.28814  -0.26697  -0.23783
 Alpha virt. eigenvalues --   -0.02477   0.07082   0.09859   0.10838   0.11633
 Alpha virt. eigenvalues --    0.12220   0.13432   0.14346   0.15474   0.16701
 Alpha virt. eigenvalues --    0.18323   0.18358   0.18691   0.20928   0.23140

 Mulliken charges:
               1
     1  C   -0.244356
     2  O   -0.235716
     3  C   -0.029909
     4  C    0.373683
     5  O   -0.284997
     6  C   -0.439394
     7  C    0.318516
     8  C   -0.340199
     9  C   -0.302546
    10  H    0.110981
    11  H    0.135867
    12  H    0.114693
    13  H    0.087629
    14  H    0.129272
    15  H    0.134424
    16  H    0.113006
    17  H    0.116438
    18  H    0.125786
    19  H    0.116822
 Sum of Mulliken charges =   0.00000

 Dipole moment (field-independent basis, Debye):
    X=              0.8569    Y=              3.0259    Z=             -1.4673  Tot=              3.4704
 Quadrupole moment (field-independent basis, Debye-Ang):
   XX=            -47.8697   YY=            -61.7454   ZZ=            -52.0387
   XY=             -3.4139   XZ=             -0.7491   YZ=              2.1135

  Exact polarizability:  83.910   0.170  82.748  -0.398  -0.440  64.453
 Approx polarizability: 109.685   2.158 119.544  -0.153  -4.170 100.775

                      1                      2                      3
                      A                      A                      A
 Frequencies --     49.7605                69.0558               145.7373
 Red. masses --      2.5121                 3.6630                 1.6750
 Frc consts  --      0.0037                 0.0103                 0.0210
 IR Inten    --      3.2433                 1.9834                 0.0899

                      4                      5                      6
                      A                      A                      A
 Frequencies --    169.2251               216.3242               249.0836
 Red. masses --      2.2850                 2.6662                 3.0900
 Frc consts  --      0.0386                 0.0735                 0.1130
 IR Inten    --      0.0850                 3.2790                 2.7025

                      7                      8                      9
                      A                      A                      A
 Frequencies --    312.0963               351.9569               424.4954
 Red. masses --      2.3728                 3.0604                 2.8865
 Frc consts  --      0.1362                 0.2234                 0.3065
 IR Inten    --      2.1164                 0.7142                 4.0642

                     10                     11                     12
                      A                      A                      A
 Frequencies --    512.4104               520.1072               601.4562
 Red. masses --      3.7332                 3.4673                 3.5007
 Frc consts  --      0.5775                 0.5526                 0.7461
 IR Inten    --      1.0025                 2.4049                 1.2044

                     13                     14                     15
                      A                      A                      A
 Frequencies --    745.1844               762.0683               786.5161
 Red. masses --      2.1918                 2.1942                 1.2367
 Frc consts  --      0.7171                 0.7508                 0.4507
 IR Inten    --      8.3641                 1.8104                 0.2313

                     16                     17                     18
                      A                      A                      A
 Frequencies --    864.0722               876.7143               939.1051
 Red. masses --      2.6258                 1.9563                 1.4406
 Frc consts  --      1.1551                 0.8859                 0.7486
 IR Inten    --      3.0588                13.5148                 3.9494

                     19                     20                     21
                      A                      A                      A
 Frequencies --    972.7541              1007.9076              1052.7136
 Red. masses --      3.8169                 3.1909                 1.4164
 Frc consts  --      2.1280                 1.9099                 0.9248
 IR Inten    --     17.1089                21.9356                 4.0728

                     22                     23                     24
                      A                      A                      A
 Frequencies --   1056.0086              1063.1179              1079.5820
 Red. masses --      3.9307                 3.4064                 1.4373
 Frc consts  --      2.5826                 2.2683                 0.9870
 IR Inten    --     73.9668                 7.6084                 3.0249

                     25                     26                     27
                      A                      A                      A
 Frequencies --   1109.5081              1168.9376              1171.4335
 Red. masses --      1.4270                 2.3708                 1.4364
 Frc consts  --      1.0350                 1.9086                 1.1614
 IR Inten    --     25.9873                79.9845                 1.3405

                     28                     29                     30
                      A                      A                      A
 Frequencies --   1179.8175              1186.1065              1219.5946
 Red. masses --      1.3031                 1.2992                 1.6851
 Frc consts  --      1.0687                 1.0769                 1.4767
 IR Inten    --      8.1908                 0.1408                33.9987

                     31                     32                     33
                      A                      A                      A
 Frequencies --   1236.4841              1252.0779              1374.4539
 Red. masses --      1.6487                 2.3823                 1.6755
 Frc consts  --      1.4851                 2.2005                 1.8649
 IR Inten    --     31.5626                12.3648                19.5003

                     34                     35                     36
                      A                      A                      A
 Frequencies --   1379.6714              1446.8218              1466.1750
 Red. masses --      2.0450                 1.1351                 1.0873
 Frc consts  --      2.2935                 1.4000                 1.3771
 IR Inten    --      1.6390                13.7122                 2.1275

                     37                     38                     39
                      A                      A                      A
 Frequencies --   1481.1997              1491.6645              1504.6619
 Red. masses --      1.1200                 1.0983                 1.1839
 Frc consts  --      1.4478                 1.4398                 1.5793
 IR Inten    --      3.6644                 1.6441                 3.7538

                     40                     41                     42
                      A                      A                      A
 Frequencies --   1507.0024              1902.9874              2951.8749
 Red. masses --      1.2967                12.9091                 1.0794
 Frc consts  --      1.7351                27.5433                 5.5417
 IR Inten    --      3.6058               264.5410                28.2396

                     43                     44                     45
                      A                      A                      A
 Frequencies --   2985.9072              3037.8885              3046.4331
 Red. masses --      1.0362                 1.1041                 1.0610
 Frc consts  --      5.4433                 6.0035                 5.8016
 IR Inten    --     54.5008                46.1653                13.6257

                     46                     47                     48
                      A                      A                      A
 Frequencies --   3105.8693              3121.3051              3121.7630
 Red. masses --      1.1027                 1.0850                 1.0644
 Frc consts  --      6.2670                 6.2278                 6.1119
 IR Inten    --      7.2962                12.8434                29.8605

                     49                     50                     51
                      A                      A                      A
 Frequencies --   3130.4130              3200.5704              3218.9125
 Red. masses --      1.0556                 1.1174                 1.1157
 Frc consts  --      6.0946                 6.7441                 6.8109
 IR Inten    --     11.3066                 2.8053                11.7487

 - Thermochemistry -
 -------------------
 Temperature   298.150 Kelvin.  Pressure   1.00000 Atm.
 Atom     1 has atomic number  6 and mass  12.00000

 Molecular mass:   126.06808 amu.
 Principal axes and moments of inertia in atomic units:
                           1         2         3
     Eigenvalues --   970.281731032.092791774.98685
           X            0.35307   0.93554  -0.01012
           Y            0.93559  -0.35299   0.00900
           Z           -0.00485   0.01265   0.99991
 This molecule is an asymmetric top.
 Rotational symmetry number  1.
 Warning -- assumption of classical behavior for rotation
           may cause significant error
 Rotational temperatures (Kelvin)      0.08927     0.08392     0.04880
 Rotational constants (GHZ):           1.86002     1.74862     1.01676
 Zero-point vibrational energy     411676.8 (Joules/Mol)
                                   98.39312 (Kcal/Mol)
 Warning -- explicit consideration of  12 degrees of freedom as
           vibrations may cause significant error
 Vibrational temperatures:     71.59    99.36   209.68   243.48   311.24
          (Kelvin)            358.38   449.04   506.39   610.75   737.24
                              748.32   865.36  1072.15  1096.44  1131.62
                             1243.21  1261.39  1351.16  1399.57  1450.15
                             1514.62  1519.36  1529.59  1553.28  1596.33
                             1681.84  1685.43  1697.49  1706.54  1754.72
                             1779.02  1801.46  1977.53  1985.04  2081.65
                             2109.50  2131.11  2146.17  2164.87  2168.24
                             2737.97  4247.08  4296.05  4370.84  4383.13
                             4468.65  4490.86  4491.52  4503.96  4604.90
                             4631.29

 Zero-point correction=                           0.156799 (Hartree/Particle)
 Thermal correction to Energy=                    0.166000
 Thermal correction to Enthalpy=                  0.166944
 Thermal correction to Gibbs Free Energy=         0.122068
 Sum of electronic and zero-point Energies=           -422.999530
 Sum of electronic and thermal Energies=              -422.990329
 Sum of electronic and thermal Enthalpies=            -422.989385
 Sum of electronic and thermal Free Energies=         -423.034262

                     E (Thermal)             CV                S
                      KCal/Mol        Cal/Mol-Kelvin    Cal/Mol-Kelvin
 Total                  104.167             33.497             94.451
 Electronic               0.000              0.000              0.000
 Translational            0.889              2.981             40.409
 Rotational               0.889              2.981             28.965
 Vibrational            102.389             27.535             25.077
 Vibration     1          0.595              1.978              4.827
 Vibration     2          0.598              1.969              4.180
 Vibration     3          0.617              1.907              2.727
 Vibration     4          0.625              1.880              2.444
 Vibration     5          0.645              1.816              1.990
 Vibration     6          0.662              1.764              1.737
 Vibration     7          0.700              1.651              1.351
 Vibration     8          0.729              1.571              1.157
 Vibration     9          0.786              1.417              0.877
 Vibration    10          0.867              1.223              0.628
 Vibration    11          0.875              1.205              0.610
 Vibration    12          0.960              1.029              0.447

 Normal termination of Gaussian 09 at Tue Jan 28 13:21:22 2020.
