 Gaussian 09, Revision D.01,
 Gaussian 09:  ES64L-G09RevD.01 24-Apr-2013

 -----------------------------
 # b3lyp 6-31G(2df,p) opt Freq
 -----------------------------

 -----
 titel
 -----
 Symbolic Z-matrix:
 Charge =  0 Multiplicity = 1

 SCF Done:  E(RB3LYP) =  -423.117758875     A.U. after   13 cycles
 Optimization completed.
    -- Stationary point found.
 Normal termination of Gaussian 09 at Mon Jan 27 11:16:47 2020.

 ----------------------------------------------------------------------
 #N Geom=AllCheck Guess=TCheck SCRF=Check GenChk RB3LYP/6-31G(2df,p) Fr
 eq
 ----------------------------------------------------------------------

 Structure from the checkpoint file:  "/scratch/puck/g09_e9409c01-b207-409f-9eb9-76075ffcf466/Gau-18558.chk"
 -----
 titel
 -----
 Charge =  0 Multiplicity = 1

                         Standard orientation:
 ---------------------------------------------------------------------
 Center     Atomic      Atomic             Coordinates (Angstroms)
 Number     Number       Type             X           Y           Z
 ---------------------------------------------------------------------
      1          6           0       -0.000001    0.486530    1.574060
      2          6           0        0.746123    0.148644    0.308071
      3          6           0        1.731222    0.966154   -0.520453
      4          6           0        2.484871   -0.376893   -0.638461
      5          8           0        1.507182   -1.051397    0.188021
      6          6           0       -0.746122    0.148642    0.308069
      7          6           0       -1.731222    0.966154   -0.520454
      8          6           0       -2.484873   -0.376892   -0.638459
      9          8           0       -1.507180   -1.051398    0.188017
     10          1           0        0.000000   -0.285410    2.338558
     11          1           0       -0.000003    1.509071    1.943469
     12          1           0        1.340933    1.375588   -1.455037
     13          1           0        2.258982    1.750356    0.026172
     14          1           0        2.529591   -0.807930   -1.645059
     15          1           0        3.483199   -0.405684   -0.188360
     16          1           0       -2.258978    1.750359    0.026170
     17          1           0       -1.340933    1.375583   -1.455040
     18          1           0       -3.483198   -0.405681   -0.188351
     19          1           0       -2.529601   -0.807928   -1.645055
 ---------------------------------------------------------------------

 SCF Done:  E(RB3LYP) =  -423.117758875     A.U. after    1 cycles

 The electronic state is 1-A.
 Alpha  occ. eigenvalues --  -19.13256 -19.13256 -10.23620 -10.23592 -10.23235
 Alpha  occ. eigenvalues --  -10.23235 -10.19339 -10.19338 -10.17735  -1.04728
 Alpha  occ. eigenvalues --   -1.03317  -0.83880  -0.74629  -0.73873  -0.64785
 Alpha  occ. eigenvalues --   -0.63520  -0.56344  -0.51096  -0.50025  -0.48741
 Alpha  occ. eigenvalues --   -0.48351  -0.47964  -0.44475  -0.40197  -0.39676
 Alpha  occ. eigenvalues --   -0.38640  -0.37342  -0.35943  -0.33983  -0.31452
 Alpha  occ. eigenvalues --   -0.31277  -0.30220  -0.24078  -0.21083
 Alpha virt. eigenvalues --    0.05248   0.09050   0.10306   0.10429   0.11908
 Alpha virt. eigenvalues --    0.12051   0.13395   0.15466   0.16102   0.16405
 Alpha virt. eigenvalues --    0.17126   0.17967   0.18746   0.21248   0.24250

 Mulliken charges:
               1
     1  C   -0.450835
     2  C    0.387043
     3  C   -0.362138
     4  C   -0.065965
     5  O   -0.299265
     6  C    0.387044
     7  C   -0.362138
     8  C   -0.065965
     9  O   -0.299265
    10  H    0.136661
    11  H    0.111427
    12  H    0.111572
    13  H    0.115092
    14  H    0.107288
    15  H    0.107745
    16  H    0.115092
    17  H    0.111572
    18  H    0.107745
    19  H    0.107288
 Sum of Mulliken charges =   0.00000

 Dipole moment (field-independent basis, Debye):
    X=              0.0000    Y=              2.8739    Z=             -1.2336  Tot=              3.1275
 Quadrupole moment (field-independent basis, Debye-Ang):
   XX=            -47.9958   YY=            -56.0763   ZZ=            -50.9022
   XY=              0.0000   XZ=              0.0000   YZ=              1.3177

  Exact polarizability:  90.786   0.000  66.188   0.000   2.699  72.496
 Approx polarizability: 112.429   0.000 100.563   0.000   2.113 104.965

                      1                      2                      3
                      A                      A                      A
 Frequencies --     69.4989                89.7450               134.0334
 Red. masses --      2.3502                 2.2623                 3.9002
 Frc consts  --      0.0067                 0.0107                 0.0413
 IR Inten    --      1.2635                 1.0573                 1.0139

                      4                      5                      6
                      A                      A                      A
 Frequencies --    155.7677               242.1147               373.7468
 Red. masses --      3.3524                 3.3795                 2.0543
 Frc consts  --      0.0479                 0.1167                 0.1691
 IR Inten    --      0.3284                 0.7538                 1.2292

                      7                      8                      9
                      A                      A                      A
 Frequencies --    395.7608               487.5369               530.5723
 Red. masses --      3.0963                 3.0258                 4.0990
 Frc consts  --      0.2857                 0.4237                 0.6799
 IR Inten    --      3.6209                 0.3018                 4.0831

                     10                     11                     12
                      A                      A                      A
 Frequencies --    647.6882               782.2848               795.6909
 Red. masses --      3.7832                 1.1858                 1.1091
 Frc consts  --      0.9351                 0.4275                 0.4137
 IR Inten    --     10.0246                 0.3743                 0.3404

                     13                     14                     15
                      A                      A                      A
 Frequencies --    848.5159               853.2253               870.4131
 Red. masses --      1.8652                 2.9662                 1.7717
 Frc consts  --      0.7912                 1.2722                 0.7908
 IR Inten    --      3.6728                 4.6419                 0.7935

                     16                     17                     18
                      A                      A                      A
 Frequencies --    873.2133               902.8381               957.1804
 Red. masses --      2.6352                 2.9618                 2.4844
 Frc consts  --      1.1839                 1.4224                 1.3411
 IR Inten    --     29.3364                10.0849                 0.1114

                     19                     20                     21
                      A                      A                      A
 Frequencies --    975.2009              1007.4686              1023.0080
 Red. masses --      3.1561                 2.9851                 6.6776
 Frc consts  --      1.7684                 1.7851                 4.1174
 IR Inten    --      6.5328               109.7320                50.0206

                     22                     23                     24
                      A                      A                      A
 Frequencies --   1030.5109              1095.8074              1124.8769
 Red. masses --      2.0342                 1.8004                 2.8354
 Frc consts  --      1.2727                 1.2737                 2.1138
 IR Inten    --     65.2338                13.6956                 9.8397

                     25                     26                     27
                      A                      A                      A
 Frequencies --   1134.4076              1162.4091              1166.1202
 Red. masses --      3.0482                 1.1646                 1.1845
 Frc consts  --      2.3112                 0.9272                 0.9490
 IR Inten    --     35.5666                 0.7042                 1.3450

                     28                     29                     30
                      A                      A                      A
 Frequencies --   1171.1443              1208.7884              1215.3000
 Red. masses --      4.5286                 1.1961                 1.1966
 Frc consts  --      3.6596                 1.0297                 1.0413
 IR Inten    --     69.6354                 0.0264                 0.0032

                     31                     32                     33
                      A                      A                      A
 Frequencies --   1225.5307              1248.9417              1258.0782
 Red. masses --      1.9925                 1.4649                 1.9743
 Frc consts  --      1.7631                 1.3463                 1.8411
 IR Inten    --      3.6277                 1.5775                 9.3024

                     34                     35                     36
                      A                      A                      A
 Frequencies --   1348.8482              1359.8010              1396.8811
 Red. masses --      1.4050                 1.5366                 1.3943
 Frc consts  --      1.5061                 1.6741                 1.6030
 IR Inten    --      4.9900                 0.6027                 2.3688

                     37                     38                     39
                      A                      A                      A
 Frequencies --   1476.7907              1484.9927              1491.5831
 Red. masses --      2.1185                 1.1093                 1.1863
 Frc consts  --      2.7222                 1.4413                 1.5551
 IR Inten    --     29.4182                 0.0759                 4.4984

                     40                     41                     42
                      A                      A                      A
 Frequencies --   1527.7095              1535.8691              3026.8694
 Red. masses --      1.1106                 1.2585                 1.0550
 Frc consts  --      1.5272                 1.7491                 5.6952
 IR Inten    --      4.3655                 0.9650               117.8540

                     43                     44                     45
                      A                      A                      A
 Frequencies --   3028.0212              3066.6580              3068.2298
 Red. masses --      1.0552                 1.0590                 1.0590
 Frc consts  --      5.7005                 5.8681                 5.8737
 IR Inten    --     52.8985                11.2130                46.5290

                     46                     47                     48
                      A                      A                      A
 Frequencies --   3070.2364              3070.5564              3107.3632
 Red. masses --      1.1117                 1.1118                 1.0543
 Frc consts  --      6.1741                 6.1759                 5.9978
 IR Inten    --     18.2600                37.2814                 6.9500

                     49                     50                     51
                      A                      A                      A
 Frequencies --   3120.0964              3120.6650              3204.0617
 Red. masses --      1.1086                 1.1088                 1.1154
 Frc consts  --      6.3585                 6.3619                 6.7467
 IR Inten    --     18.1252                34.5450                 3.5209

 - Thermochemistry -
 -------------------
 Temperature   298.150 Kelvin.  Pressure   1.00000 Atm.
 Atom     1 has atomic number  6 and mass  12.00000

 Molecular mass:   126.06808 amu.
 Principal axes and moments of inertia in atomic units:
                           1         2         3
     Eigenvalues --   524.448161520.553191556.58675
           X            1.00000   0.00000   0.00000
           Y            0.00000   0.99434   0.10621
           Z            0.00000  -0.10621   0.99434
 This molecule is an asymmetric top.
 Rotational symmetry number  1.
 Warning -- assumption of classical behavior for rotation
           may cause significant error
 Rotational temperatures (Kelvin)      0.16515     0.05696     0.05564
 Rotational constants (GHZ):           3.44122     1.18690     1.15942
 Zero-point vibrational energy     416077.1 (Joules/Mol)
                                   99.44480 (Kcal/Mol)
 Warning -- explicit consideration of   9 degrees of freedom as
           vibrations may cause significant error
 Vibrational temperatures:     99.99   129.12   192.84   224.11   348.35
          (Kelvin)            537.74   569.41   701.46   763.37   931.88
                             1125.53  1144.82  1220.82  1227.60  1252.33
                             1256.36  1298.98  1377.17  1403.09  1449.52
                             1471.88  1482.67  1576.62  1618.44  1632.16
                             1672.45  1677.78  1685.01  1739.17  1748.54
                             1763.26  1796.95  1810.09  1940.69  1956.45
                             2009.80  2124.77  2136.57  2146.05  2198.03
                             2209.77  4354.98  4356.64  4412.23  4414.49
                             4417.38  4417.84  4470.80  4489.12  4489.94
                             4609.92

 Zero-point correction=                           0.158475 (Hartree/Particle)
 Thermal correction to Energy=                    0.166784
 Thermal correction to Enthalpy=                  0.167729
 Thermal correction to Gibbs Free Energy=         0.124903
 Sum of electronic and zero-point Energies=           -422.959283
 Sum of electronic and thermal Energies=              -422.950974
 Sum of electronic and thermal Enthalpies=            -422.950030
 Sum of electronic and thermal Free Energies=         -422.992855

                     E (Thermal)             CV                S
                      KCal/Mol        Cal/Mol-Kelvin    Cal/Mol-Kelvin
 Total                  104.659             30.962             90.133
 Electronic               0.000              0.000              0.000
 Translational            0.889              2.981             40.409
 Rotational               0.889              2.981             28.608
 Vibrational            102.881             25.001             21.116
 Vibration     1          0.598              1.969              4.168
 Vibration     2          0.602              1.956              3.666
 Vibration     3          0.613              1.919              2.887
 Vibration     4          0.620              1.896              2.601
 Vibration     5          0.658              1.776              1.787
 Vibration     6          0.745              1.526              1.064
 Vibration     7          0.762              1.479              0.978
 Vibration     8          0.843              1.278              0.690
 Vibration     9          0.886              1.182              0.586

 Optimization completed.
    -- Stationary point found.
 Normal termination of Gaussian 09 at Mon Jan 27 11:58:54 2020.
