 Gaussian 09, Revision D.01,
 Gaussian 09:  ES64L-G09RevD.01 24-Apr-2013

 -----------------------------
 # b3lyp 6-31G(2df,p) opt Freq
 -----------------------------

 -----
 titel
 -----
 Symbolic Z-matrix:
 Charge =  0 Multiplicity = 1

 SCF Done:  E(RB3LYP) =  -423.117583820     A.U. after   13 cycles
 Optimization completed.
    -- Stationary point found.
 Normal termination of Gaussian 09 at Mon Jan 27 17:57:52 2020.

 ----------------------------------------------------------------------
 #N Geom=AllCheck Guess=TCheck SCRF=Check GenChk RB3LYP/6-31G(2df,p) Fr
 eq
 ----------------------------------------------------------------------

 Structure from the checkpoint file:  "/scratch/puck/g09_4962d012-968f-4414-abcd-f3108557fdae/Gau-87903.chk"
 -----
 titel
 -----
 Charge =  0 Multiplicity = 1

                         Standard orientation:
 ---------------------------------------------------------------------
 Center     Atomic      Atomic             Coordinates (Angstroms)
 Number     Number       Type             X           Y           Z
 ---------------------------------------------------------------------
      1          6           0        2.442867   -0.365954   -0.060928
      2          6           0        0.941726   -0.431224   -0.064261
      3          6           0        0.020653   -1.321284   -0.935906
      4          6           0       -0.943980   -0.500257   -0.055692
      5          8           0       -2.320889   -0.557655    0.038831
      6          6           0       -0.005604   -0.547951    1.185580
      7          6           0       -0.074996    0.981807    1.400134
      8          6           0       -0.063052    0.787266   -0.129754
      9          8           0       -0.198837    1.717247   -1.146323
     10          1           0        2.823470   -0.051286   -1.039598
     11          1           0        2.812849    0.344247    0.687470
     12          1           0        2.883154   -1.343558    0.163804
     13          1           0        0.014006   -1.109707   -2.009982
     14          1           0        0.060250   -2.399328   -0.748714
     15          1           0       -2.691455   -0.165729   -0.759995
     16          1           0        0.025907   -1.343506    1.927084
     17          1           0       -1.000197    1.368998    1.834502
     18          1           0        0.800493    1.457144    1.855102
     19          1           0        0.523646    2.351568   -1.084768
 ---------------------------------------------------------------------

 SCF Done:  E(RB3LYP) =  -423.117583820     A.U. after    1 cycles

 The electronic state is 1-A.
 Alpha  occ. eigenvalues --  -19.14968 -19.14291 -10.23691 -10.23570 -10.19743
 Alpha  occ. eigenvalues --  -10.19131 -10.18057 -10.17836 -10.17388  -1.03983
 Alpha  occ. eigenvalues --   -1.02426  -0.92502  -0.74614  -0.72359  -0.62826
 Alpha  occ. eigenvalues --   -0.61105  -0.59556  -0.53682  -0.50555  -0.47187
 Alpha  occ. eigenvalues --   -0.45137  -0.44444  -0.42719  -0.41012  -0.39670
 Alpha  occ. eigenvalues --   -0.39144  -0.35884  -0.35783  -0.31341  -0.31314
 Alpha  occ. eigenvalues --   -0.29767  -0.28248  -0.25518  -0.24523
 Alpha virt. eigenvalues --    0.06373   0.09673   0.10944   0.12603   0.12968
 Alpha virt. eigenvalues --    0.14126   0.14365   0.15672   0.16064   0.16504
 Alpha virt. eigenvalues --    0.18063   0.19714   0.20551   0.21616   0.22724

 Mulliken charges:
               1
     1  C   -0.525407
     2  C    0.281245
     3  C   -0.381276
     4  C    0.374589
     5  O   -0.479575
     6  C   -0.126883
     7  C   -0.347217
     8  C    0.297753
     9  O   -0.483510
    10  H    0.119518
    11  H    0.117578
    12  H    0.124559
    13  H    0.093569
    14  H    0.090093
    15  H    0.289066
    16  H    0.080206
    17  H    0.106151
    18  H    0.084951
    19  H    0.284590
 Sum of Mulliken charges =   0.00000

 Dipole moment (field-independent basis, Debye):
    X=              1.6318    Y=              0.8420    Z=             -0.4344  Tot=              1.8870
 Quadrupole moment (field-independent basis, Debye-Ang):
   XX=            -52.7552   YY=            -51.1677   ZZ=            -53.3582
   XY=              0.7299   XZ=              2.2011   YZ=              0.0461

  Exact polarizability:  79.208  -0.325  74.549   0.248   2.616  73.066
 Approx polarizability: 112.068   0.332 110.521   0.977  -0.995 110.408

                      1                      2                      3
                      A                      A                      A
 Frequencies --    175.1573               195.1171               209.8806
 Red. masses --      2.5716                 2.1572                 1.1808
 Frc consts  --      0.0465                 0.0484                 0.0306
 IR Inten    --     14.4423                12.9619                 0.3068

                      4                      5                      6
                      A                      A                      A
 Frequencies --    230.2964               258.6757               274.5477
 Red. masses --      1.8715                 1.5659                 2.2728
 Frc consts  --      0.0585                 0.0617                 0.1009
 IR Inten    --     11.9926                58.5896                12.9660

                      7                      8                      9
                      A                      A                      A
 Frequencies --    305.2605               321.1325               466.7627
 Red. masses --      1.6195                 2.4478                 2.5794
 Frc consts  --      0.0889                 0.1487                 0.3311
 IR Inten    --     15.7653                83.7877                 4.4587

                     10                     11                     12
                      A                      A                      A
 Frequencies --    474.7419               529.3592               592.0800
 Red. masses --      2.3057                 2.7707                 5.1836
 Frc consts  --      0.3062                 0.4574                 1.0706
 IR Inten    --      1.3536                 9.1404                 4.1730

                     13                     14                     15
                      A                      A                      A
 Frequencies --    656.8203               690.1850               710.0553
 Red. masses --      4.2969                 3.7263                 2.7896
 Frc consts  --      1.0922                 1.0458                 0.8287
 IR Inten    --      4.7930                 8.7203                 6.0056

                     16                     17                     18
                      A                      A                      A
 Frequencies --    790.2731               872.1573               898.2740
 Red. masses --      3.7395                 2.2369                 2.3255
 Frc consts  --      1.3760                 1.0025                 1.1056
 IR Inten    --      0.6914                 4.4629                 2.1029

                     19                     20                     21
                      A                      A                      A
 Frequencies --    943.6761               976.3480               994.3127
 Red. masses --      2.5590                 1.3246                 1.4617
 Frc consts  --      1.3426                 0.7440                 0.8514
 IR Inten    --      2.8666                 2.0815                 7.4280

                     22                     23                     24
                      A                      A                      A
 Frequencies --   1042.4975              1050.7586              1087.6910
 Red. masses --      1.7679                 1.6271                 2.2821
 Frc consts  --      1.1320                 1.0585                 1.5907
 IR Inten    --      9.0895                 9.8811                14.4350

                     25                     26                     27
                      A                      A                      A
 Frequencies --   1092.0281              1109.8645              1142.8020
 Red. masses --      1.9899                 1.3031                 1.8531
 Frc consts  --      1.3981                 0.9458                 1.4259
 IR Inten    --     34.8608                 1.9233                13.4057

                     28                     29                     30
                      A                      A                      A
 Frequencies --   1147.6830              1174.7959              1206.0726
 Red. masses --      1.6363                 1.9661                 1.7865
 Frc consts  --      1.2698                 1.5988                 1.5311
 IR Inten    --      7.8208                27.6968                10.9547

                     31                     32                     33
                      A                      A                      A
 Frequencies --   1229.6759              1271.8395              1293.0502
 Red. masses --      1.9631                 2.6227                 2.7045
 Frc consts  --      1.7489                 2.4996                 2.6642
 IR Inten    --     70.6167               140.6238               177.0303

                     34                     35                     36
                      A                      A                      A
 Frequencies --   1333.5165              1352.1496              1406.9640
 Red. masses --      2.2203                 2.2241                 1.6897
 Frc consts  --      2.3263                 2.3959                 1.9707
 IR Inten    --     36.0310                 6.4428                20.3003

                     37                     38                     39
                      A                      A                      A
 Frequencies --   1414.5724              1488.3710              1494.6273
 Red. masses --      1.7901                 1.0472                 1.0772
 Frc consts  --      2.1104                 1.3668                 1.4178
 IR Inten    --      6.9995                 4.3459                 1.9781

                     40                     41                     42
                      A                      A                      A
 Frequencies --   1504.3048              1518.1359              3022.3271
 Red. masses --      1.1451                 1.3446                 1.0353
 Frc consts  --      1.5267                 1.8258                 5.5720
 IR Inten    --      4.8289                17.2622                33.2203

                     43                     44                     45
                      A                      A                      A
 Frequencies --   3038.9655              3044.0983              3085.3420
 Red. masses --      1.0551                 1.0568                 1.1005
 Frc consts  --      5.7411                 5.7699                 6.1723
 IR Inten    --     65.1000                29.5079                19.4952

                     46                     47                     48
                      A                      A                      A
 Frequencies --   3089.6972              3098.9310              3109.5637
 Red. masses --      1.1004                 1.1096                 1.1070
 Frc consts  --      6.1891                 6.2782                 6.3065
 IR Inten    --     21.6963                31.6121                27.9338

                     49                     50                     51
                      A                      A                      A
 Frequencies --   3142.2774              3800.1667              3802.6136
 Red. masses --      1.0922                 1.0658                 1.0659
 Frc consts  --      6.3539                 9.0684                 9.0806
 IR Inten    --     26.0428                33.0558                24.5057

 - Thermochemistry -
 -------------------
 Temperature   298.150 Kelvin.  Pressure   1.00000 Atm.
 Atom     1 has atomic number  6 and mass  12.00000

 Molecular mass:   126.06808 amu.
 Principal axes and moments of inertia in atomic units:
                           1         2         3
     Eigenvalues --   763.498361083.936671202.36269
           X            0.99978  -0.02072   0.00305
           Y            0.02015   0.99146   0.12886
           Z           -0.00569  -0.12877   0.99166
 This molecule is an asymmetric top.
 Rotational symmetry number  1.
 Warning -- assumption of classical behavior for rotation
           may cause significant error
 Rotational temperatures (Kelvin)      0.11344     0.07991     0.07204
 Rotational constants (GHZ):           2.36378     1.66499     1.50100
 Zero-point vibrational energy     413671.6 (Joules/Mol)
                                   98.86989 (Kcal/Mol)
 Warning -- explicit consideration of  12 degrees of freedom as
           vibrations may cause significant error
 Vibrational temperatures:    252.01   280.73   301.97   331.34   372.18
          (Kelvin)            395.01   439.20   462.04   671.57   683.05
                              761.63   851.87   945.02   993.02  1021.61
                             1137.03  1254.84  1292.41  1357.74  1404.75
                             1430.59  1499.92  1511.81  1564.94  1571.18
                             1596.85  1644.24  1651.26  1690.27  1735.27
                             1769.23  1829.89  1860.41  1918.63  1945.44
                             2024.30  2035.25  2141.43  2150.43  2164.36
                             2184.26  4348.45  4372.39  4379.77  4439.11
                             4445.38  4458.66  4473.96  4521.03  5467.59
                             5471.11

 Zero-point correction=                           0.157559 (Hartree/Particle)
 Thermal correction to Energy=                    0.166199
 Thermal correction to Enthalpy=                  0.167143
 Thermal correction to Gibbs Free Energy=         0.125194
 Sum of electronic and zero-point Energies=           -422.960025
 Sum of electronic and thermal Energies=              -422.951385
 Sum of electronic and thermal Enthalpies=            -422.950441
 Sum of electronic and thermal Free Energies=         -422.992390

                     E (Thermal)             CV                S
                      KCal/Mol        Cal/Mol-Kelvin    Cal/Mol-Kelvin
 Total                  104.291             34.119             88.289
 Electronic               0.000              0.000              0.000
 Translational            0.889              2.981             40.409
 Rotational               0.889              2.981             28.389
 Vibrational            102.514             28.158             19.492
 Vibration     1          0.627              1.873              2.379
 Vibration     2          0.636              1.847              2.179
 Vibration     3          0.642              1.826              2.045
 Vibration     4          0.652              1.795              1.877
 Vibration     5          0.667              1.748              1.671
 Vibration     6          0.677              1.720              1.567
 Vibration     7          0.696              1.664              1.388
 Vibration     8          0.707              1.633              1.304
 Vibration     9          0.824              1.324              0.747
 Vibration    10          0.831              1.306              0.724
 Vibration    11          0.884              1.185              0.589
 Vibration    12          0.950              1.049              0.463

 Optimization completed.
    -- Stationary point found.
 Normal termination of Gaussian 09 at Mon Jan 27 18:47:25 2020.
