 Gaussian 09, Revision D.01,
 Gaussian 09:  ES64L-G09RevD.01 24-Apr-2013

 -----------------------------
 # b3lyp 6-31G(2df,p) opt Freq
 -----------------------------

 -----
 titel
 -----
 Symbolic Z-matrix:
 Charge =  0 Multiplicity = 1

 SCF Done:  E(RB3LYP) =  -423.180306392     A.U. after   12 cycles
 Optimization completed.
    -- Stationary point found.
 Normal termination of Gaussian 09 at Mon Jan 27 11:27:19 2020.

 ----------------------------------------------------------------------
 #N Geom=AllCheck Guess=TCheck SCRF=Check GenChk RB3LYP/6-31G(2df,p) Fr
 eq
 ----------------------------------------------------------------------

 Structure from the checkpoint file:  "/scratch/puck/g09_303c5c41-6757-43af-91ae-79657faefab4/Gau-60839.chk"
 -----
 titel
 -----
 Charge =  0 Multiplicity = 1

                         Standard orientation:
 ---------------------------------------------------------------------
 Center     Atomic      Atomic             Coordinates (Angstroms)
 Number     Number       Type             X           Y           Z
 ---------------------------------------------------------------------
      1          6           0        1.221232    1.462553   -0.637517
      2          6           0        1.181797    0.680962    0.673038
      3          6           0        1.678838   -0.746211    0.714881
      4          8           0        0.972437   -1.469148   -0.304721
      5          6           0       -0.159105   -0.739743   -0.757500
      6          6           0       -1.540166   -1.110656   -0.147167
      7          6           0       -1.988737    0.181203    0.578456
      8          8           0       -1.234801    1.251565   -0.011146
      9          6           0        0.005929    0.694345   -0.280090
     10          1           0        1.175736    2.541671   -0.538928
     11          1           0        1.835712    1.103735   -1.459144
     12          1           0        1.146031    1.252901    1.592357
     13          1           0        2.749461   -0.864638    0.507869
     14          1           0        1.477795   -1.180401    1.705889
     15          1           0       -0.177409   -0.844564   -1.847287
     16          1           0       -2.245298   -1.381980   -0.936375
     17          1           0       -1.447797   -1.962094    0.530346
     18          1           0       -3.047494    0.416983    0.453945
     19          1           0       -1.766547    0.124324    1.653665
 ---------------------------------------------------------------------

 SCF Done:  E(RB3LYP) =  -423.180306392     A.U. after    1 cycles

 The electronic state is 1-A.
 Alpha  occ. eigenvalues --  -19.14769 -19.13520 -10.23549 -10.23109 -10.23086
 Alpha  occ. eigenvalues --  -10.22888 -10.19144 -10.18972 -10.18348  -1.05420
 Alpha  occ. eigenvalues --   -1.02566  -0.85530  -0.77329  -0.72312  -0.66253
 Alpha  occ. eigenvalues --   -0.60801  -0.57603  -0.56382  -0.50241  -0.49370
 Alpha  occ. eigenvalues --   -0.47255  -0.45343  -0.45225  -0.41724  -0.40445
 Alpha  occ. eigenvalues --   -0.39046  -0.37507  -0.36367  -0.33576  -0.32066
 Alpha  occ. eigenvalues --   -0.30877  -0.29309  -0.24802  -0.23674
 Alpha virt. eigenvalues --    0.08283   0.08864   0.09584   0.12074   0.12801
 Alpha virt. eigenvalues --    0.14325   0.15084   0.15913   0.16604   0.17329
 Alpha virt. eigenvalues --    0.17855   0.18644   0.20519   0.20898   0.22264

 Mulliken charges:
               1
     1  C   -0.378391
     2  C   -0.140455
     3  C   -0.094781
     4  O   -0.277895
     5  C    0.053094
     6  C   -0.264316
     7  C   -0.102021
     8  O   -0.288509
     9  C    0.426161
    10  H    0.125987
    11  H    0.120328
    12  H    0.099431
    13  H    0.105855
    14  H    0.095413
    15  H    0.084868
    16  H    0.110791
    17  H    0.116443
    18  H    0.111058
    19  H    0.096939
 Sum of Mulliken charges =   0.00000

 Dipole moment (field-independent basis, Debye):
    X=             -0.2293    Y=              0.0786    Z=              0.7760  Tot=              0.8130
 Quadrupole moment (field-independent basis, Debye-Ang):
   XX=            -50.8812   YY=            -57.1229   ZZ=            -50.8785
   XY=              4.2088   XZ=              0.3401   YZ=             -0.5658

  Exact polarizability:  83.302   3.580  70.352   0.775  -1.748  68.595
 Approx polarizability: 112.549   1.230 102.249   2.738  -2.831 105.068

                      1                      2                      3
                      A                      A                      A
 Frequencies --     81.4804               142.9361               204.2091
 Red. masses --      2.6866                 2.1786                 2.6353
 Frc consts  --      0.0105                 0.0262                 0.0647
 IR Inten    --      3.0736                 0.5994                 2.1032

                      4                      5                      6
                      A                      A                      A
 Frequencies --    342.0831               392.8569               419.4439
 Red. masses --      2.5048                 2.7876                 3.0497
 Frc consts  --      0.1727                 0.2535                 0.3161
 IR Inten    --      1.4963                 6.2162                 4.9774

                      7                      8                      9
                      A                      A                      A
 Frequencies --    535.1453               582.8119               679.0700
 Red. masses --      4.8681                 3.6388                 2.7594
 Frc consts  --      0.8214                 0.7282                 0.7497
 IR Inten    --      0.4809                 2.0689                 3.9341

                     10                     11                     12
                      A                      A                      A
 Frequencies --    704.7946               763.3989               805.1864
 Red. masses --      4.9693                 2.6124                 2.7830
 Frc consts  --      1.4544                 0.8970                 1.0631
 IR Inten    --      2.0154                 8.5159                 2.1716

                     13                     14                     15
                      A                      A                      A
 Frequencies --    831.7206               883.5356               898.9800
 Red. masses --      1.7052                 2.0539                 1.6780
 Frc consts  --      0.6950                 0.9447                 0.7990
 IR Inten    --      6.5964                 0.5084                 4.6029

                     16                     17                     18
                      A                      A                      A
 Frequencies --    928.8623               948.4170               992.3890
 Red. masses --      2.3379                 2.7045                 2.1607
 Frc consts  --      1.1884                 1.4333                 1.2538
 IR Inten    --      6.6446                15.7303                16.4338

                     19                     20                     21
                      A                      A                      A
 Frequencies --    997.6637              1025.8035              1044.1162
 Red. masses --      4.9129                 2.2978                 2.3577
 Frc consts  --      2.8811                 1.4246                 1.5144
 IR Inten    --     20.1357                21.9479                34.6887

                     22                     23                     24
                      A                      A                      A
 Frequencies --   1060.1506              1074.2688              1100.1720
 Red. masses --      1.8608                 1.6186                 2.0879
 Frc consts  --      1.2322                 1.1006                 1.4889
 IR Inten    --     43.4478                 8.8648                 6.7036

                     25                     26                     27
                      A                      A                      A
 Frequencies --   1121.1499              1135.5000              1211.2176
 Red. masses --      1.8146                 2.6490                 1.4032
 Frc consts  --      1.3439                 2.0124                 1.2129
 IR Inten    --      6.2845                38.1103                25.6208

                     28                     29                     30
                      A                      A                      A
 Frequencies --   1221.1183              1226.8908              1262.0317
 Red. masses --      1.4197                 1.1519                 1.9576
 Frc consts  --      1.2473                 1.0216                 1.8370
 IR Inten    --      2.4094                21.2299                49.6777

                     31                     32                     33
                      A                      A                      A
 Frequencies --   1270.1490              1301.0994              1343.6241
 Red. masses --      1.2864                 1.6427                 1.7358
 Frc consts  --      1.2227                 1.6385                 1.8463
 IR Inten    --      4.6941                 2.8401                16.5442

                     34                     35                     36
                      A                      A                      A
 Frequencies --   1360.6221              1375.6173              1391.9654
 Red. masses --      1.3333                 1.5683                 1.3933
 Frc consts  --      1.4543                 1.7486                 1.5905
 IR Inten    --      0.3394                13.9074                15.9614

                     37                     38                     39
                      A                      A                      A
 Frequencies --   1414.4065              1482.3979              1483.9371
 Red. masses --      1.4932                 1.5793                 1.0904
 Frc consts  --      1.7601                 2.0447                 1.4147
 IR Inten    --      5.5799                18.9611                 1.9565

                     40                     41                     42
                      A                      A                      A
 Frequencies --   1520.4112              1522.7798              2987.8460
 Red. masses --      1.1322                 1.1128                 1.0668
 Frc consts  --      1.5420                 1.5203                 5.6113
 IR Inten    --      1.8072                 1.9412                69.0999

                     43                     44                     45
                      A                      A                      A
 Frequencies --   3001.4360              3041.8200              3047.8277
 Red. masses --      1.0704                 1.0954                 1.0861
 Frc consts  --      5.6816                 5.9716                 5.9442
 IR Inten    --     59.0578                47.4360                31.5097

                     46                     47                     48
                      A                      A                      A
 Frequencies --   3072.6513              3105.8206              3118.4980
 Red. masses --      1.0631                 1.0940                 1.0560
 Frc consts  --      5.9137                 6.2177                 6.0506
 IR Inten    --     25.1177                25.2028                11.4329

                     49                     50                     51
                      A                      A                      A
 Frequencies --   3125.4451              3187.7898              3214.0981
 Red. masses --      1.1054                 1.0917                 1.1135
 Frc consts  --      6.3619                 6.5363                 6.7776
 IR Inten    --     28.6256                 3.8308                 5.5669

 - Thermochemistry -
 -------------------
 Temperature   298.150 Kelvin.  Pressure   1.00000 Atm.
 Atom     1 has atomic number  6 and mass  12.00000

 Molecular mass:   126.06808 amu.
 Principal axes and moments of inertia in atomic units:
                           1         2         3
     Eigenvalues --   672.75256 950.790661296.76074
           X            0.99608   0.08847  -0.00174
           Y           -0.08848   0.99600  -0.01272
           Z            0.00061   0.01282   0.99992
 This molecule is an asymmetric top.
 Rotational symmetry number  1.
 Warning -- assumption of classical behavior for rotation
           may cause significant error
 Rotational temperatures (Kelvin)      0.12875     0.09110     0.06679
 Rotational constants (GHZ):           2.68262     1.89815     1.39173
 Zero-point vibrational energy     424600.4 (Joules/Mol)
                                  101.48193 (Kcal/Mol)
 Warning -- explicit consideration of   8 degrees of freedom as
           vibrations may cause significant error
 Vibrational temperatures:    117.23   205.65   293.81   492.18   565.23
          (Kelvin)            603.49   769.95   838.54   977.03  1014.04
                             1098.36  1158.48  1196.66  1271.21  1293.43
                             1336.42  1364.56  1427.82  1435.41  1475.90
                             1502.25  1525.32  1545.63  1582.90  1613.08
                             1633.73  1742.67  1756.91  1765.22  1815.78
                             1827.46  1871.99  1933.17  1957.63  1979.20
                             2002.73  2035.01  2132.84  2135.05  2187.53
                             2190.94  4298.84  4318.39  4376.50  4385.14
                             4420.85  4468.58  4486.82  4496.81  4586.51
                             4624.36

 Zero-point correction=                           0.161722 (Hartree/Particle)
 Thermal correction to Energy=                    0.168964
 Thermal correction to Enthalpy=                  0.169909
 Thermal correction to Gibbs Free Energy=         0.129865
 Sum of electronic and zero-point Energies=           -423.018585
 Sum of electronic and thermal Energies=              -423.011342
 Sum of electronic and thermal Enthalpies=            -423.010398
 Sum of electronic and thermal Free Energies=         -423.050441

                     E (Thermal)             CV                S
                      KCal/Mol        Cal/Mol-Kelvin    Cal/Mol-Kelvin
 Total                  106.027             28.768             84.278
 Electronic               0.000              0.000              0.000
 Translational            0.889              2.981             40.409
 Rotational               0.889              2.981             28.208
 Vibrational            104.249             22.807             15.662
 Vibration     1          0.600              1.962              3.855
 Vibration     2          0.616              1.910              2.764
 Vibration     3          0.640              1.834              2.095
 Vibration     4          0.721              1.591              1.202
 Vibration     5          0.760              1.485              0.989
 Vibration     6          0.782              1.428              0.894
 Vibration     7          0.890              1.172              0.576
 Vibration     8          0.940              1.069              0.480

 Optimization completed.
    -- Stationary point found.
 Normal termination of Gaussian 09 at Mon Jan 27 13:40:13 2020.
