 Gaussian 09, Revision D.01,
 Gaussian 09:  ES64L-G09RevD.01 24-Apr-2013

 -----------------------------
 # b3lyp 6-31G(2df,p) opt Freq
 -----------------------------

 -----
 titel
 -----
 Symbolic Z-matrix:
 Charge =  0 Multiplicity = 1

 SCF Done:  E(RB3LYP) =  -423.154949329     A.U. after   13 cycles
 Optimization completed.
    -- Stationary point found.
 Normal termination of Gaussian 09 at Mon Jan 27 17:54:49 2020.

 ----------------------------------------------------------------------
 #N Geom=AllCheck Guess=TCheck SCRF=Check GenChk RB3LYP/6-31G(2df,p) Fr
 eq
 ----------------------------------------------------------------------

 Structure from the checkpoint file:  "/scratch/puck/g09_e8917582-1e23-4f44-8b71-325fdbff4178/Gau-87898.chk"
 -----
 titel
 -----
 Charge =  0 Multiplicity = 1

                         Standard orientation:
 ---------------------------------------------------------------------
 Center     Atomic      Atomic             Coordinates (Angstroms)
 Number     Number       Type             X           Y           Z
 ---------------------------------------------------------------------
      1          8           0       -1.754926   -1.284979   -0.613353
      2          6           0       -0.940982   -0.383468    0.088465
      3          6           0       -1.707095    0.678694    0.808524
      4          6           0       -0.869349    1.054255   -0.400393
      5          6           0        0.461944    1.763261   -0.214026
      6          8           0        1.562631    0.888108   -0.467607
      7          6           0        1.603988   -0.194588    0.410258
      8          6           0        1.386129   -1.545426   -0.199421
      9          6           0        0.312265   -0.937112    0.689141
     10          1           0       -1.206027   -1.711485   -1.280883
     11          1           0       -2.783998    0.656528    0.687664
     12          1           0       -1.360035    0.999869    1.786175
     13          1           0       -1.411232    1.262660   -1.316594
     14          1           0        0.573521    2.584610   -0.926042
     15          1           0        0.545877    2.183428    0.799257
     16          1           0        2.322189   -0.083841    1.221710
     17          1           0        1.229532   -1.546146   -1.273462
     18          1           0        1.937099   -2.397669    0.181821
     19          1           0        0.210029   -1.386682    1.672754
 ---------------------------------------------------------------------

 SCF Done:  E(RB3LYP) =  -423.154949329     A.U. after    1 cycles

 The electronic state is 1-A.
 Alpha  occ. eigenvalues --  -19.14149 -19.13882 -10.24088 -10.23675 -10.22961
 Alpha  occ. eigenvalues --  -10.19522 -10.19039 -10.18584 -10.18371  -1.04025
 Alpha  occ. eigenvalues --   -1.02436  -0.85997  -0.84244  -0.70170  -0.64314
 Alpha  occ. eigenvalues --   -0.60035  -0.59012  -0.54840  -0.52150  -0.50120
 Alpha  occ. eigenvalues --   -0.49212  -0.44812  -0.43818  -0.43320  -0.40130
 Alpha  occ. eigenvalues --   -0.38391  -0.36489  -0.35792  -0.32636  -0.32369
 Alpha  occ. eigenvalues --   -0.29132  -0.26690  -0.25468  -0.24342
 Alpha virt. eigenvalues --    0.07791   0.08565   0.09819   0.10327   0.12183
 Alpha virt. eigenvalues --    0.12649   0.14230   0.16574   0.17355   0.17373
 Alpha virt. eigenvalues --    0.18175   0.18853   0.19471   0.23302   0.24909

 Mulliken charges:
               1
     1  O   -0.472817
     2  C    0.423971
     3  C   -0.332799
     4  C   -0.117296
     5  C   -0.105793
     6  O   -0.250144
     7  C    0.110745
     8  C   -0.330007
     9  C   -0.147138
    10  H    0.278090
    11  H    0.122896
    12  H    0.110293
    13  H    0.092872
    14  H    0.112460
    15  H    0.091931
    16  H    0.087404
    17  H    0.114965
    18  H    0.115180
    19  H    0.095186
 Sum of Mulliken charges =   0.00000

 Dipole moment (field-independent basis, Debye):
    X=              0.4190    Y=             -0.0676    Z=              0.4203  Tot=              0.5973
 Quadrupole moment (field-independent basis, Debye-Ang):
   XX=            -58.3725   YY=            -51.1232   ZZ=            -49.9239
   XY=             -4.3503   XZ=              2.1344   YZ=              1.2995

  Exact polarizability:  77.159  -4.241  78.659  -0.412   1.059  66.916
 Approx polarizability: 108.316  -1.591 111.707  -3.337   1.522 104.418

                      1                      2                      3
                      A                      A                      A
 Frequencies --    149.4327               172.0832               264.8336
 Red. masses --      3.4086                 2.6685                 2.1471
 Frc consts  --      0.0448                 0.0466                 0.0887
 IR Inten    --      3.0490                 4.1823                 9.7187

                      4                      5                      6
                      A                      A                      A
 Frequencies --    283.5585               375.9760               390.3485
 Red. masses --      1.2388                 3.5708                 3.5518
 Frc consts  --      0.0587                 0.2974                 0.3189
 IR Inten    --     65.3184                 8.7028                17.6396

                      7                      8                      9
                      A                      A                      A
 Frequencies --    419.7982               455.8634               508.5853
 Red. masses --      3.1257                 2.7774                 4.2064
 Frc consts  --      0.3245                 0.3401                 0.6410
 IR Inten    --      1.1616                 3.4486                 0.8948

                     10                     11                     12
                      A                      A                      A
 Frequencies --    536.0942               653.5720               754.8361
 Red. masses --      3.2781                 3.3354                 2.5264
 Frc consts  --      0.5551                 0.8394                 0.8481
 IR Inten    --      4.8874                 7.2544                 1.9388

                     13                     14                     15
                      A                      A                      A
 Frequencies --    791.0433               828.0099               831.4591
 Red. masses --      2.5645                 1.5262                 1.8854
 Frc consts  --      0.9455                 0.6165                 0.7680
 IR Inten    --      8.5442                11.0681                 9.5813

                     16                     17                     18
                      A                      A                      A
 Frequencies --    899.4221               907.8120               940.8271
 Red. masses --      2.0749                 1.7462                 2.5042
 Frc consts  --      0.9889                 0.8479                 1.3060
 IR Inten    --      4.7112                 2.9271                22.1820

                     19                     20                     21
                      A                      A                      A
 Frequencies --    977.6034               987.1018              1021.5032
 Red. masses --      2.2918                 2.8354                 1.9665
 Frc consts  --      1.2905                 1.6277                 1.2090
 IR Inten    --     11.9400                 8.5342                10.2380

                     22                     23                     24
                      A                      A                      A
 Frequencies --   1040.9584              1057.2123              1075.3991
 Red. masses --      1.7411                 1.3771                 1.8211
 Frc consts  --      1.1116                 0.9069                 1.2409
 IR Inten    --     25.9552                 7.8114                20.5981

                     25                     26                     27
                      A                      A                      A
 Frequencies --   1082.0759              1110.7883              1125.8096
 Red. masses --      1.6360                 2.0343                 1.2616
 Frc consts  --      1.1286                 1.4789                 0.9421
 IR Inten    --      2.6199                13.1903                 1.1250

                     28                     29                     30
                      A                      A                      A
 Frequencies --   1159.8522              1175.0478              1225.2554
 Red. masses --      1.8178                 1.9489                 2.0331
 Frc consts  --      1.4408                 1.5855                 1.7983
 IR Inten    --      2.2898                26.9637                38.4624

                     31                     32                     33
                      A                      A                      A
 Frequencies --   1235.5549              1277.8041              1297.0613
 Red. masses --      1.9943                 1.8303                 1.2148
 Frc consts  --      1.7938                 1.7608                 1.2041
 IR Inten    --    116.3676                 8.4814                 8.5595

                     34                     35                     36
                      A                      A                      A
 Frequencies --   1316.3017              1367.9305              1388.4707
 Red. masses --      1.2955                 1.3560                 1.6403
 Frc consts  --      1.3225                 1.4950                 1.8631
 IR Inten    --     35.9529                 9.3211                 7.1918

                     37                     38                     39
                      A                      A                      A
 Frequencies --   1411.3536              1427.0270              1474.4384
 Red. masses --      1.5546                 1.7134                 1.3418
 Frc consts  --      1.8245                 2.0557                 1.7187
 IR Inten    --     28.6133                17.9272                13.1648

                     40                     41                     42
                      A                      A                      A
 Frequencies --   1483.6285              1502.1905              2992.3106
 Red. masses --      1.5448                 1.1382                 1.0704
 Frc consts  --      2.0034                 1.5133                 5.6471
 IR Inten    --      9.8691                 8.4820                56.2908

                     43                     44                     45
                      A                      A                      A
 Frequencies --   3096.4588              3106.9335              3126.0843
 Red. masses --      1.0933                 1.0878                 1.0556
 Frc consts  --      6.1760                 6.1867                 6.0780
 IR Inten    --     28.9587                34.2375                10.8448

                     46                     47                     48
                      A                      A                      A
 Frequencies --   3131.4862              3143.4873              3168.7365
 Red. masses --      1.0547                 1.0893                 1.0898
 Frc consts  --      6.0937                 6.3417                 6.4472
 IR Inten    --      9.3318                17.6184                 9.0227

                     49                     50                     51
                      A                      A                      A
 Frequencies --   3221.1327              3221.3260              3796.8583
 Red. masses --      1.1158                 1.1163                 1.0656
 Frc consts  --      6.8210                 6.8250                 9.0509
 IR Inten    --      2.9718                13.6900                10.7841

 - Thermochemistry -
 -------------------
 Temperature   298.150 Kelvin.  Pressure   1.00000 Atm.
 Atom     1 has atomic number  8 and mass  15.99491

 Molecular mass:   126.06808 amu.
 Principal axes and moments of inertia in atomic units:
                           1         2         3
     Eigenvalues --   736.19093 959.651511391.01731
           X            0.99326  -0.11578   0.00473
           Y            0.11572   0.99323   0.00982
           Z           -0.00584  -0.00921   0.99994
 This molecule is an asymmetric top.
 Rotational symmetry number  1.
 Warning -- assumption of classical behavior for rotation
           may cause significant error
 Rotational temperatures (Kelvin)      0.11765     0.09026     0.06227
 Rotational constants (GHZ):           2.45146     1.88062     1.29743
 Zero-point vibrational energy     421018.1 (Joules/Mol)
                                  100.62575 (Kcal/Mol)
 Warning -- explicit consideration of  10 degrees of freedom as
           vibrations may cause significant error
 Vibrational temperatures:    215.00   247.59   381.04   407.98   540.94
          (Kelvin)            561.62   604.00   655.89   731.74   771.32
                              940.34  1086.04  1138.13  1191.32  1196.28
                             1294.07  1306.14  1353.64  1406.55  1420.22
                             1469.71  1497.71  1521.09  1547.26  1556.86
                             1598.17  1619.79  1668.77  1690.63  1762.87
                             1777.69  1838.47  1866.18  1893.86  1968.14
                             1997.70  2030.62  2053.17  2121.39  2134.61
                             2161.31  4305.26  4455.11  4470.18  4497.73
                             4505.50  4522.77  4559.10  4634.49  4634.76
                             5462.83

 Zero-point correction=                           0.160357 (Hartree/Particle)
 Thermal correction to Energy=                    0.167987
 Thermal correction to Enthalpy=                  0.168931
 Thermal correction to Gibbs Free Energy=         0.128736
 Sum of electronic and zero-point Energies=           -422.994592
 Sum of electronic and thermal Energies=              -422.986962
 Sum of electronic and thermal Enthalpies=            -422.986018
 Sum of electronic and thermal Free Energies=         -423.026214

                     E (Thermal)             CV                S
                      KCal/Mol        Cal/Mol-Kelvin    Cal/Mol-Kelvin
 Total                  105.413             31.195             84.598
 Electronic               0.000              0.000              0.000
 Translational            0.889              2.981             40.409
 Rotational               0.889              2.981             28.376
 Vibrational            103.636             25.234             15.813
 Vibration     1          0.618              1.903              2.679
 Vibration     2          0.626              1.877              2.413
 Vibration     3          0.671              1.737              1.630
 Vibration     4          0.682              1.704              1.512
 Vibration     5          0.747              1.521              1.055
 Vibration     6          0.758              1.491              0.999
 Vibration     7          0.782              1.427              0.893
 Vibration     8          0.814              1.348              0.778
 Vibration     9          0.864              1.231              0.637
 Vibration    10          0.891              1.170              0.574

 Optimization completed.
    -- Stationary point found.
 Normal termination of Gaussian 09 at Mon Jan 27 18:41:03 2020.
