 Gaussian 09, Revision D.01,
 Gaussian 09:  ES64L-G09RevD.01 24-Apr-2013

 -----------------------------
 # b3lyp 6-31G(2df,p) opt Freq
 -----------------------------

 -----
 titel
 -----
 Symbolic Z-matrix:
 Charge =  0 Multiplicity = 1

 SCF Done:  E(RB3LYP) =  -423.138233735     A.U. after   13 cycles
 Optimization completed.
    -- Stationary point found.
 Normal termination of Gaussian 09 at Tue Jan 28 12:11:56 2020.

 ----------------------------------------------------------------------
 #N Geom=AllCheck Guess=TCheck SCRF=Check GenChk RB3LYP/6-31G(2df,p) Fr
 eq
 ----------------------------------------------------------------------

 Structure from the checkpoint file:  "/scratch/puck/g09_d3cc1c36-326d-462d-90e0-b8347ec85284/Gau-115429.chk"
 -----
 titel
 -----
 Charge =  0 Multiplicity = 1

                         Standard orientation:
 ---------------------------------------------------------------------
 Center     Atomic      Atomic             Coordinates (Angstroms)
 Number     Number       Type             X           Y           Z
 ---------------------------------------------------------------------
      1          8           0       -2.680413    0.236467    0.288437
      2          6           0       -1.770563   -0.465230   -0.550584
      3          6           0       -0.388319    0.039704   -0.258549
      4          6           0        0.030308    1.519227   -0.208914
      5          6           0        1.284075    0.982467    0.531977
      6          6           0        1.992671    0.200723   -0.594244
      7          6           0        0.855584   -0.831105   -0.718178
      8          8           0        0.909735   -1.469822    0.594074
      9          6           0        0.372340   -0.226422    1.061182
     10          1           0       -3.565622   -0.096693    0.115432
     11          1           0       -1.802880   -1.549605   -0.360451
     12          1           0       -2.010649   -0.307174   -1.615609
     13          1           0        0.189048    2.068679   -1.142135
     14          1           0       -0.650242    2.075281    0.439910
     15          1           0        1.878043    1.607797    1.195345
     16          1           0        2.161430    0.807615   -1.488002
     17          1           0        2.920866   -0.292159   -0.298398
     18          1           0        0.830012   -1.535016   -1.550031
     19          1           0       -0.041141   -0.228053    2.067716
 ---------------------------------------------------------------------

 SCF Done:  E(RB3LYP) =  -423.138233735     A.U. after    1 cycles

 The electronic state is 1-A.
 Alpha  occ. eigenvalues --  -19.13597 -19.13026 -10.23621 -10.22855 -10.22842
 Alpha  occ. eigenvalues --  -10.19164 -10.18832 -10.17977 -10.17827  -1.04984
 Alpha  occ. eigenvalues --   -1.01571  -0.85247  -0.73855  -0.71163  -0.64318
 Alpha  occ. eigenvalues --   -0.63399  -0.55765  -0.52827  -0.51424  -0.49065
 Alpha  occ. eigenvalues --   -0.46386  -0.45922  -0.44344  -0.41448  -0.38775
 Alpha  occ. eigenvalues --   -0.37194  -0.35348  -0.33775  -0.32849  -0.31446
 Alpha  occ. eigenvalues --   -0.29814  -0.28643  -0.26689  -0.23757
 Alpha virt. eigenvalues --    0.07160   0.09568   0.11237   0.12229   0.12960
 Alpha virt. eigenvalues --    0.14159   0.14426   0.15281   0.16120   0.17152
 Alpha virt. eigenvalues --    0.17418   0.17918   0.19391   0.20416   0.21989

 Mulliken charges:
               1
     1  O   -0.424451
     2  C   -0.214802
     3  C    0.348926
     4  C   -0.300807
     5  C   -0.095991
     6  C   -0.209757
     7  C    0.005280
     8  O   -0.298918
     9  C    0.077311
    10  H    0.288963
    11  H    0.099448
    12  H    0.084892
    13  H    0.088363
    14  H    0.117300
    15  H    0.068113
    16  H    0.094694
    17  H    0.106841
    18  H    0.074755
    19  H    0.089842
 Sum of Mulliken charges =   0.00000

 Dipole moment (field-independent basis, Debye):
    X=             -1.0350    Y=              0.4479    Z=             -1.4148  Tot=              1.8093
 Quadrupole moment (field-independent basis, Debye-Ang):
   XX=            -47.8352   YY=            -56.1590   ZZ=            -51.3961
   XY=              4.4023   XZ=              0.6674   YZ=              2.1700

  Exact polarizability:  82.571   1.400  71.217  -1.254   2.182  68.970
 Approx polarizability: 109.476  -0.477 109.847  -1.851   1.668 108.360

                      1                      2                      3
                      A                      A                      A
 Frequencies --     96.4320               168.7039               222.9358
 Red. masses --      4.2337                 3.9951                 1.3577
 Frc consts  --      0.0232                 0.0670                 0.0398
 IR Inten    --      2.1536                 4.3738                71.1714

                      4                      5                      6
                      A                      A                      A
 Frequencies --    278.0441               341.9383               446.9270
 Red. masses --      1.6013                 3.3789                 2.6120
 Frc consts  --      0.0729                 0.2328                 0.3074
 IR Inten    --     34.9552                 1.6382                 1.4238

                      7                      8                      9
                      A                      A                      A
 Frequencies --    463.3851               543.1286               642.1082
 Red. masses --      1.8152                 4.1576                 3.9986
 Frc consts  --      0.2296                 0.7226                 0.9714
 IR Inten    --      0.4132                12.3938                 4.2148

                     10                     11                     12
                      A                      A                      A
 Frequencies --    704.2275               740.0671               793.6117
 Red. masses --      3.4208                 3.9640                 2.7405
 Frc consts  --      0.9995                 1.2792                 1.0169
 IR Inten    --      5.7222                 0.7173                 3.6079

                     13                     14                     15
                      A                      A                      A
 Frequencies --    851.7279               858.0157               881.7932
 Red. masses --      3.7621                 2.1359                 2.2953
 Frc consts  --      1.6080                 0.9264                 1.0515
 IR Inten    --     21.6114                 0.5311                 4.8693

                     16                     17                     18
                      A                      A                      A
 Frequencies --    922.2357               925.5675               954.7937
 Red. masses --      2.7084                 2.2635                 2.2070
 Frc consts  --      1.3572                 1.1425                 1.1854
 IR Inten    --     29.6117                 7.6901                 5.3249

                     19                     20                     21
                      A                      A                      A
 Frequencies --    972.1644               998.8452              1016.6656
 Red. masses --      1.9221                 2.0387                 2.0209
 Frc consts  --      1.0703                 1.1984                 1.2307
 IR Inten    --      4.4366                 4.9020                23.9198

                     22                     23                     24
                      A                      A                      A
 Frequencies --   1045.9985              1071.3872              1084.4227
 Red. masses --      1.6261                 3.3795                 1.6165
 Frc consts  --      1.0482                 2.2856                 1.1200
 IR Inten    --     17.6121                48.5777                 4.2253

                     25                     26                     27
                      A                      A                      A
 Frequencies --   1119.3625              1141.8699              1160.5994
 Red. masses --      1.6622                 1.5892                 1.5749
 Frc consts  --      1.2271                 1.2209                 1.2498
 IR Inten    --      7.3733                 4.3495                 3.5226

                     28                     29                     30
                      A                      A                      A
 Frequencies --   1183.5877              1197.9087              1225.9837
 Red. masses --      1.8109                 1.5751                 1.3673
 Frc consts  --      1.4947                 1.3317                 1.2109
 IR Inten    --      0.2149                11.1928                 0.9405

                     31                     32                     33
                      A                      A                      A
 Frequencies --   1236.0411              1242.9783              1263.9485
 Red. masses --      1.4805                 1.4462                 1.3964
 Frc consts  --      1.3326                 1.3165                 1.3143
 IR Inten    --     17.1802                20.5300                23.7539

                     34                     35                     36
                      A                      A                      A
 Frequencies --   1282.7813              1310.2083              1329.1143
 Red. masses --      1.3969                 1.6146                 1.6014
 Frc consts  --      1.3543                 1.6330                 1.6668
 IR Inten    --      5.7310                 5.7951                 6.2585

                     37                     38                     39
                      A                      A                      A
 Frequencies --   1364.2541              1464.4455              1478.5951
 Red. masses --      2.2502                 1.6815                 1.1105
 Frc consts  --      2.4675                 2.1247                 1.4304
 IR Inten    --      4.4587                 9.2260                 1.9918

                     40                     41                     42
                      A                      A                      A
 Frequencies --   1505.2273              1513.5625              2957.4885
 Red. masses --      1.1400                 1.0773                 1.0599
 Frc consts  --      1.5219                 1.4540                 5.4620
 IR Inten    --      2.4764                 4.4510                59.6590

                     43                     44                     45
                      A                      A                      A
 Frequencies --   2995.2794              3050.0058              3064.2303
 Red. masses --      1.0999                 1.0609                 1.0590
 Frc consts  --      5.8138                 5.8144                 5.8583
 IR Inten    --     42.6077                33.9698                29.4592

                     46                     47                     48
                      A                      A                      A
 Frequencies --   3116.8498              3121.7765              3122.6499
 Red. masses --      1.1038                 1.0949                 1.1018
 Frc consts  --      6.3180                 6.2866                 6.3297
 IR Inten    --     15.8907                37.4519                28.9591

                     49                     50                     51
                      A                      A                      A
 Frequencies --   3135.8403              3147.8701              3832.5931
 Red. masses --      1.0908                 1.0929                 1.0664
 Frc consts  --      6.3195                 6.3809                 9.2289
 IR Inten    --     27.1858                32.3311                21.8982

 - Thermochemistry -
 -------------------
 Temperature   298.150 Kelvin.  Pressure   1.00000 Atm.
 Atom     1 has atomic number  8 and mass  15.99491

 Molecular mass:   126.06808 amu.
 Principal axes and moments of inertia in atomic units:
                           1         2         3
     Eigenvalues --   562.342161206.015271383.41619
           X            0.99955   0.02994   0.00007
           Y           -0.02992   0.99854   0.04489
           Z            0.00128  -0.04487   0.99899
 This molecule is an asymmetric top.
 Rotational symmetry number  1.
 Warning -- assumption of classical behavior for rotation
           may cause significant error
 Rotational temperatures (Kelvin)      0.15402     0.07182     0.06261
 Rotational constants (GHZ):           3.20933     1.49645     1.30455
 Zero-point vibrational energy     422223.0 (Joules/Mol)
                                  100.91373 (Kcal/Mol)
 Warning -- explicit consideration of   8 degrees of freedom as
           vibrations may cause significant error
 Vibrational temperatures:    138.74   242.73   320.75   400.04   491.97
          (Kelvin)            643.03   666.71   781.44   923.85  1013.22
                             1064.79  1141.83  1225.45  1234.49  1268.70
                             1326.89  1331.68  1373.73  1398.73  1437.11
                             1462.75  1504.96  1541.49  1560.24  1610.51
                             1642.89  1669.84  1702.92  1723.52  1763.91
                             1778.39  1788.37  1818.54  1845.63  1885.10
                             1912.30  1962.85  2107.01  2127.37  2165.68
                             2177.68  4255.16  4309.53  4388.27  4408.74
                             4484.45  4491.53  4492.79  4511.77  4529.08
                             5514.24

 Zero-point correction=                           0.160816 (Hartree/Particle)
 Thermal correction to Energy=                    0.168229
 Thermal correction to Enthalpy=                  0.169174
 Thermal correction to Gibbs Free Energy=         0.128996
 Sum of electronic and zero-point Energies=           -422.977417
 Sum of electronic and thermal Energies=              -422.970004
 Sum of electronic and thermal Enthalpies=            -422.969060
 Sum of electronic and thermal Free Energies=         -423.009237

                     E (Thermal)             CV                S
                      KCal/Mol        Cal/Mol-Kelvin    Cal/Mol-Kelvin
 Total                  105.566             29.782             84.560
 Electronic               0.000              0.000              0.000
 Translational            0.889              2.981             40.409
 Rotational               0.889              2.981             28.330
 Vibrational            103.788             23.820             15.821
 Vibration     1          0.603              1.952              3.525
 Vibration     2          0.625              1.881              2.450
 Vibration     3          0.649              1.806              1.935
 Vibration     4          0.679              1.714              1.546
 Vibration     5          0.721              1.592              1.203
 Vibration     6          0.806              1.368              0.805
 Vibration     7          0.821              1.331              0.756
 Vibration     8          0.898              1.155              0.559

 Normal termination of Gaussian 09 at Tue Jan 28 12:56:20 2020.
