 Gaussian 09, Revision D.01,
 Gaussian 09:  ES64L-G09RevD.01 24-Apr-2013

 -----------------------------
 # b3lyp 6-31G(2df,p) opt Freq
 -----------------------------

 -----
 titel
 -----
 Symbolic Z-matrix:
 Charge =  0 Multiplicity = 1

 SCF Done:  E(RB3LYP) =  -423.148797132     A.U. after   14 cycles
 SCF Done:  E(RB3LYP) =  -423.148797383     A.U. after    7 cycles
 SCF Done:  E(RB3LYP) =  -423.148796097     A.U. after    7 cycles
 SCF Done:  E(RB3LYP) =  -423.148797431     A.U. after    8 cycles
 Optimization completed.
    -- Stationary point found.
 Normal termination of Gaussian 09 at Tue Jan 28 14:42:00 2020.

 ----------------------------------------------------------------------
 #N Geom=AllCheck Guess=TCheck SCRF=Check GenChk RB3LYP/6-31G(2df,p) Fr
 eq
 ----------------------------------------------------------------------

 Structure from the checkpoint file:  "/scratch/puck/g09_07880dac-0569-4db2-bc52-758798fdeb20/Gau-35588.chk"
 -----
 titel
 -----
 Charge =  0 Multiplicity = 1

                         Standard orientation:
 ---------------------------------------------------------------------
 Center     Atomic      Atomic             Coordinates (Angstroms)
 Number     Number       Type             X           Y           Z
 ---------------------------------------------------------------------
      1          6           0       -4.027200    0.143983   -0.000009
      2          6           0       -2.564799    0.595659   -0.000044
      3          6           0       -1.596824   -0.578830    0.000026
      4          8           0       -0.273111   -0.076494   -0.000008
      5          6           0        0.702975   -1.077153    0.000053
      6          6           0        2.107026   -0.479882    0.000058
      7          8           0        3.081107   -1.199657   -0.000094
      8          6           0        2.218512    0.965314    0.000025
      9          6           0        2.367728    2.159478    0.000003
     10          1           0       -4.702751    1.003916   -0.000064
     11          1           0       -4.259228   -0.460131   -0.884053
     12          1           0       -4.259222   -0.460014    0.884116
     13          1           0       -2.356808    1.216532   -0.878704
     14          1           0       -2.356800    1.216644    0.878535
     15          1           0       -1.760891   -1.214844    0.886968
     16          1           0       -1.760897   -1.214955   -0.886835
     17          1           0        0.627300   -1.732093    0.884866
     18          1           0        0.627335   -1.732176   -0.884699
     19          1           0        2.493484    3.214919    0.000016
 ---------------------------------------------------------------------

 SCF Done:  E(RB3LYP) =  -423.148797431     A.U. after    1 cycles

 The electronic state is 1-A.
 Alpha  occ. eigenvalues --  -19.15222 -19.14143 -10.29398 -10.24468 -10.23517
 Alpha  occ. eigenvalues --  -10.20479 -10.19778 -10.18636 -10.18200  -1.05730
 Alpha  occ. eigenvalues --   -1.04445  -0.79758  -0.77336  -0.73354  -0.66602
 Alpha  occ. eigenvalues --   -0.63338  -0.59555  -0.53436  -0.50870  -0.50107
 Alpha  occ. eigenvalues --   -0.48361  -0.46074  -0.44334  -0.42366  -0.41016
 Alpha  occ. eigenvalues --   -0.37696  -0.36924  -0.36168  -0.33917  -0.32794
 Alpha  occ. eigenvalues --   -0.29592  -0.29225  -0.26688  -0.26541
 Alpha virt. eigenvalues --   -0.06072   0.03543   0.08314   0.09467   0.10404
 Alpha virt. eigenvalues --    0.11245   0.13380   0.13762   0.14765   0.16504
 Alpha virt. eigenvalues --    0.17653   0.17893   0.19090   0.19538   0.20991

 Mulliken charges:
               1
     1  C   -0.383756
     2  C   -0.184975
     3  C   -0.034345
     4  O   -0.242297
     5  C   -0.158474
     6  C    0.197544
     7  O   -0.279915
     8  C    0.334647
     9  C   -0.466186
    10  H    0.120088
    11  H    0.117997
    12  H    0.117997
    13  H    0.110234
    14  H    0.110234
    15  H    0.089013
    16  H    0.089013
    17  H    0.123160
    18  H    0.123168
    19  H    0.216852
 Sum of Mulliken charges =   0.00000

 Dipole moment (field-independent basis, Debye):
    X=             -2.8344    Y=              1.0482    Z=              0.0003  Tot=              3.0221
 Quadrupole moment (field-independent basis, Debye-Ang):
   XX=            -60.7366   YY=            -47.8086   ZZ=            -52.6769
   XY=              7.2380   XZ=              0.0008   YZ=             -0.0002

  Exact polarizability:  88.604   1.291  94.259  -0.001   0.000  56.543
 Approx polarizability: 105.798  -4.359 158.225  -0.002   0.001  85.601

 ******    1 imaginary frequencies (negative Signs) ******

                      1                      2                      3
                      A                      A                      A
 Frequencies --    -13.1328                48.7046                75.9653
 Red. masses --      1.9892                 4.3156                 4.2926
 Frc consts  --      0.0002                 0.0060                 0.0146
 IR Inten    --      5.3930                 0.5349                 0.7730

                      4                      5                      6
                      A                      A                      A
 Frequencies --    107.0777               135.5906               157.1433
 Red. masses --      2.0437                 2.7341                 4.1259
 Frc consts  --      0.0138                 0.0296                 0.0600
 IR Inten    --      4.4016                 1.1919                 1.9789

                      7                      8                      9
                      A                      A                      A
 Frequencies --    226.5260               242.5369               257.7366
 Red. masses --      1.1220                 4.6997                 4.1105
 Frc consts  --      0.0339                 0.1629                 0.1609
 IR Inten    --      0.0787                 0.3796                 3.6100

                     10                     11                     12
                      A                      A                      A
 Frequencies --    338.4528               405.9682               526.9207
 Red. masses --      5.4867                 3.8902                 6.1373
 Frc consts  --      0.3703                 0.3778                 1.0040
 IR Inten    --      4.8860                 3.4517                 1.5314

                     13                     14                     15
                      A                      A                      A
 Frequencies --    602.6604               646.8072               659.7109
 Red. masses --      2.9793                 1.2890                 6.8881
 Frc consts  --      0.6375                 0.3177                 1.7663
 IR Inten    --      6.3599                40.9949                15.0867

                     16                     17                     18
                      A                      A                      A
 Frequencies --    717.4899               745.5814               764.7871
 Red. masses --      1.2653                 4.4114                 1.0781
 Frc consts  --      0.3838                 1.4448                 0.3715
 IR Inten    --     30.5482                14.4559                 1.4105

                     19                     20                     21
                      A                      A                      A
 Frequencies --    900.2167               912.8824              1016.9267
 Red. masses --      1.1302                 1.6558                 2.0721
 Frc consts  --      0.5396                 0.8130                 1.2625
 IR Inten    --      1.6791                 7.7776                 0.3333

                     22                     23                     24
                      A                      A                      A
 Frequencies --   1027.4810              1061.6262              1138.9201
 Red. masses --      4.7248                 2.8009                 3.0208
 Frc consts  --      2.9389                 1.8599                 2.3087
 IR Inten    --     28.3992                19.9416               106.5072

                     25                     26                     27
                      A                      A                      A
 Frequencies --   1175.4718              1191.0591              1209.5578
 Red. masses --      5.6986                 1.5787                 5.8413
 Frc consts  --      4.6392                 1.3195                 5.0352
 IR Inten    --    188.5381                 1.5849               100.6301

                     28                     29                     30
                      A                      A                      A
 Frequencies --   1244.4206              1269.0321              1315.5740
 Red. masses --      1.1038                 1.2189                 1.0852
 Frc consts  --      1.0071                 1.1565                 1.1066
 IR Inten    --      4.3543                 2.9493                 0.3893

                     31                     32                     33
                      A                      A                      A
 Frequencies --   1330.1099              1372.2041              1413.1872
 Red. masses --      1.3288                 1.4154                 1.2534
 Frc consts  --      1.3851                 1.5702                 1.4748
 IR Inten    --     21.4172                24.9884                 0.6293

                     34                     35                     36
                      A                      A                      A
 Frequencies --   1437.2257              1482.2205              1492.5368
 Red. masses --      1.4105                 1.1109                 1.0560
 Frc consts  --      1.7166                 1.4380                 1.3860
 IR Inten    --     12.6158                12.3358                 0.1535

                     37                     38                     39
                      A                      A                      A
 Frequencies --   1499.5504              1507.3276              1528.2098
 Red. masses --      1.0395                 1.0796                 1.0957
 Frc consts  --      1.3771                 1.4452                 1.5076
 IR Inten    --      5.4612                 2.1116                 2.7428

                     40                     41                     42
                      A                      A                      A
 Frequencies --   1770.5604              2213.2681              2948.2104
 Red. masses --     12.8241                 5.9272                 1.0539
 Frc consts  --     23.6864                17.1068                 5.3971
 IR Inten    --    170.4127                72.8209                35.9153

                     43                     44                     45
                      A                      A                      A
 Frequencies --   2962.4528              2976.9019              2987.5304
 Red. masses --      1.0547                 1.1044                 1.1036
 Frc consts  --      5.4536                 5.7662                 5.8032
 IR Inten    --     46.4159                63.2522                12.8246

                     46                     47                     48
                      A                      A                      A
 Frequencies --   3032.5311              3042.0214              3074.6722
 Red. masses --      1.0373                 1.0581                 1.1024
 Frc consts  --      5.6206                 5.7691                 6.1404
 IR Inten    --     21.3103                27.0587                 3.0006

                     49                     50                     51
                      A                      A                      A
 Frequencies --   3101.4910              3110.3905              3495.9233
 Red. masses --      1.1032                 1.1002                 1.1618
 Frc consts  --      6.2524                 6.2712                 8.3654
 IR Inten    --     55.8703                28.2726                46.6962

 - Thermochemistry -
 -------------------
 Temperature   298.150 Kelvin.  Pressure   1.00000 Atm.
 Atom     1 has atomic number  6 and mass  12.00000

 Molecular mass:   126.06808 amu.
 Principal axes and moments of inertia in atomic units:
                           1         2         3
     Eigenvalues --   519.970812606.752453081.76426
           X            0.99998   0.00610   0.00000
           Y           -0.00610   0.99998   0.00000
           Z            0.00000   0.00000   1.00000
 This molecule is an asymmetric top.
 Rotational symmetry number  1.
 Warning -- assumption of classical behavior for rotation
           may cause significant error
 Rotational temperatures (Kelvin)      0.16657     0.03323     0.02811
 Rotational constants (GHZ):           3.47085     0.69233     0.58562
    1 imaginary frequencies ignored.
 Zero-point vibrational energy     406140.3 (Joules/Mol)
                                   97.06986 (Kcal/Mol)
 Warning -- explicit consideration of  12 degrees of freedom as
           vibrations may cause significant error
 Vibrational temperatures:     70.07   109.30   154.06   195.08   226.09
          (Kelvin)            325.92   348.96   370.83   486.96   584.10
                              758.12   867.09   930.61   949.18  1032.31
                             1072.72  1100.36  1295.21  1313.43  1463.13
                             1478.31  1527.44  1638.65  1691.24  1713.67
                             1740.28  1790.44  1825.85  1892.82  1913.73
                             1974.29  2033.26  2067.84  2132.58  2147.42
                             2157.52  2168.71  2198.75  2547.44  3184.40
                             4241.81  4262.30  4283.09  4298.38  4363.13
                             4376.78  4423.76  4462.35  4475.15  5029.85

 Zero-point correction=                           0.154691 (Hartree/Particle)
 Thermal correction to Energy=                    0.164625
 Thermal correction to Enthalpy=                  0.165569
 Thermal correction to Gibbs Free Energy=         0.118595
 Sum of electronic and zero-point Energies=           -422.994107
 Sum of electronic and thermal Energies=              -422.984173
 Sum of electronic and thermal Enthalpies=            -422.983228
 Sum of electronic and thermal Free Energies=         -423.030202

                     E (Thermal)             CV                S
                      KCal/Mol        Cal/Mol-Kelvin    Cal/Mol-Kelvin
 Total                  103.304             34.570             98.864
 Electronic               0.000              0.000              0.000
 Translational            0.889              2.981             40.409
 Rotational               0.889              2.981             29.814
 Vibrational            101.526             28.609             28.641
 Vibration     1          0.595              1.978              4.869
 Vibration     2          0.599              1.965              3.993
 Vibration     3          0.606              1.944              3.321
 Vibration     4          0.613              1.918              2.865
 Vibration     5          0.621              1.895              2.584
 Vibration     6          0.650              1.801              1.906
 Vibration     7          0.659              1.775              1.784
 Vibration     8          0.667              1.750              1.677
 Vibration     9          0.719              1.599              1.219
 Vibration    10          0.771              1.457              0.941
 Vibration    11          0.882              1.190              0.594
 Vibration    12          0.961              1.026              0.445

 Optimization completed.
    -- Stationary point found.
 Normal termination of Gaussian 09 at Tue Jan 28 15:09:33 2020.
