 Gaussian 09, Revision D.01,
 Gaussian 09:  ES64L-G09RevD.01 24-Apr-2013

 -----------------------------
 # b3lyp 6-31G(2df,p) opt Freq
 -----------------------------

 -----
 titel
 -----
 Symbolic Z-matrix:
 Charge =  0 Multiplicity = 1

 SCF Done:  E(RB3LYP) =  -423.106808158     A.U. after   13 cycles
 Optimization completed.
    -- Stationary point found.
 Normal termination of Gaussian 09 at Mon Jan 27 23:07:32 2020.

 ----------------------------------------------------------------------
 #N Geom=AllCheck Guess=TCheck SCRF=Check GenChk RB3LYP/6-31G(2df,p) Fr
 eq
 ----------------------------------------------------------------------

 Structure from the checkpoint file:  "/scratch/puck/g09_ff198a00-fc08-4d01-bde4-c5ba26af4969/Gau-196142.chk"
 -----
 titel
 -----
 Charge =  0 Multiplicity = 1

                         Standard orientation:
 ---------------------------------------------------------------------
 Center     Atomic      Atomic             Coordinates (Angstroms)
 Number     Number       Type             X           Y           Z
 ---------------------------------------------------------------------
      1          8           0       -2.677040    0.630948   -0.147887
      2          6           0       -1.478575    0.076720   -0.591695
      3          6           0       -0.882061   -1.250530    0.039668
      4          6           0       -0.460940   -0.401245    1.263626
      5          6           0       -0.088602    0.467247    0.014281
      6          6           0        1.065519    1.430194   -0.023805
      7          8           0        2.211935    0.564420    0.114223
      8          6           0        1.886842   -0.825971   -0.150643
      9          6           0        0.448964   -0.822634   -0.655550
     10          1           0       -2.692126    0.640342    0.814574
     11          1           0       -1.528808    0.088047   -1.683280
     12          1           0       -1.350180   -2.235848    0.040429
     13          1           0       -1.251093   -0.023900    1.920407
     14          1           0        0.359325   -0.777318    1.873989
     15          1           0        1.109548    1.978768   -0.976055
     16          1           0        1.092808    2.151719    0.799025
     17          1           0        2.580796   -1.199512   -0.910869
     18          1           0        2.049869   -1.405222    0.765181
     19          1           0        0.403814   -0.822697   -1.749380
 ---------------------------------------------------------------------

 SCF Done:  E(RB3LYP) =  -423.106808158     A.U. after    1 cycles

 The electronic state is 1-A.
 Alpha  occ. eigenvalues --  -19.14650 -19.12936 -10.25007 -10.22834 -10.22796
 Alpha  occ. eigenvalues --  -10.21054 -10.20512 -10.19645 -10.19432  -1.03532
 Alpha  occ. eigenvalues --   -1.01827  -0.91027  -0.73768  -0.69997  -0.68225
 Alpha  occ. eigenvalues --   -0.62238  -0.58835  -0.55037  -0.51806  -0.49206
 Alpha  occ. eigenvalues --   -0.47330  -0.45185  -0.43365  -0.41298  -0.40653
 Alpha  occ. eigenvalues --   -0.38005  -0.37819  -0.33600  -0.32869  -0.32421
 Alpha  occ. eigenvalues --   -0.31620  -0.28057  -0.25815  -0.24498
 Alpha virt. eigenvalues --    0.06588   0.09267   0.10490   0.11316   0.11863
 Alpha virt. eigenvalues --    0.12034   0.14514   0.14661   0.15156   0.15780
 Alpha virt. eigenvalues --    0.16844   0.18092   0.20086   0.22098   0.22221

 Mulliken charges:
               1
     1  O   -0.444004
     2  C    0.100464
     3  C   -0.136625
     4  C   -0.289775
     5  C    0.257034
     6  C   -0.199057
     7  O   -0.284018
     8  C   -0.119922
     9  C   -0.013927
    10  H    0.285662
    11  H    0.091305
    12  H    0.077543
    13  H    0.074075
    14  H    0.114294
    15  H    0.098690
    16  H    0.106727
    17  H    0.102075
    18  H    0.103381
    19  H    0.076079
 Sum of Mulliken charges =   0.00000

 Dipole moment (field-independent basis, Debye):
    X=             -0.5243    Y=             -0.8740    Z=              0.6211  Tot=              1.1935
 Quadrupole moment (field-independent basis, Debye-Ang):
   XX=            -61.7880   YY=            -52.3132   ZZ=            -50.2962
   XY=             -0.9957   XZ=             -4.1617   YZ=              0.9156

  Exact polarizability:  82.539  -1.307  71.997  -2.102   0.524  70.406
 Approx polarizability: 116.676  -2.674 109.081  -1.540   1.590 109.714

                      1                      2                      3
                      A                      A                      A
 Frequencies --    101.2070               207.1635               255.0476
 Red. masses --      3.8622                 2.1959                 2.6957
 Frc consts  --      0.0233                 0.0555                 0.1033
 IR Inten    --      6.8415                13.8997                 6.5853

                      4                      5                      6
                      A                      A                      A
 Frequencies --    285.3267               326.0168               408.0385
 Red. masses --      1.5844                 2.2163                 2.9445
 Frc consts  --      0.0760                 0.1388                 0.2888
 IR Inten    --     49.6364                10.6917                 2.0802

                      7                      8                      9
                      A                      A                      A
 Frequencies --    486.5475               517.5431               619.0241
 Red. masses --      4.0455                 3.3002                 3.5905
 Frc consts  --      0.5642                 0.5208                 0.8106
 IR Inten    --      0.5509                 7.5284                 5.8042

                     10                     11                     12
                      A                      A                      A
 Frequencies --    660.4253               719.2742               787.5072
 Red. masses --      2.6102                 2.9276                 3.3773
 Frc consts  --      0.6708                 0.8924                 1.2340
 IR Inten    --      5.8061                 5.0485                 2.7267

                     13                     14                     15
                      A                      A                      A
 Frequencies --    826.3921               870.6580               881.1724
 Red. masses --      3.1127                 5.1802                 2.4576
 Frc consts  --      1.2524                 2.3136                 1.1243
 IR Inten    --      1.8681                17.9170                10.3381

                     16                     17                     18
                      A                      A                      A
 Frequencies --    903.4920               921.6156               939.0373
 Red. masses --      3.2218                 2.1631                 2.1588
 Frc consts  --      1.5495                 1.0825                 1.1216
 IR Inten    --     12.4865                10.9270                 8.6261

                     19                     20                     21
                      A                      A                      A
 Frequencies --   1005.9476              1028.9048              1048.8581
 Red. masses --      2.6748                 1.3721                 1.8526
 Frc consts  --      1.5948                 0.8558                 1.2008
 IR Inten    --     53.3448                 7.1587                 8.4748

                     22                     23                     24
                      A                      A                      A
 Frequencies --   1060.8197              1081.7672              1108.6863
 Red. masses --      2.1773                 1.8425                 2.0013
 Frc consts  --      1.4436                 1.2704                 1.4494
 IR Inten    --      5.8676                11.5341                34.7803

                     25                     26                     27
                      A                      A                      A
 Frequencies --   1131.1444              1155.3427              1161.5123
 Red. masses --      1.4113                 1.8650                 1.8712
 Frc consts  --      1.0639                 1.4667                 1.4873
 IR Inten    --      2.6718                59.3612                50.3242

                     28                     29                     30
                      A                      A                      A
 Frequencies --   1198.1867              1201.2456              1214.8357
 Red. masses --      1.8253                 1.2839                 1.4512
 Frc consts  --      1.5440                 1.0915                 1.2619
 IR Inten    --     50.3241                 3.7565                31.0688

                     31                     32                     33
                      A                      A                      A
 Frequencies --   1220.7933              1254.3910              1281.4095
 Red. masses --      1.3710                 1.7630                 1.5341
 Frc consts  --      1.2039                 1.6345                 1.4842
 IR Inten    --      3.4213                14.5805                31.3798

                     34                     35                     36
                      A                      A                      A
 Frequencies --   1290.3736              1345.0550              1374.6513
 Red. masses --      2.0877                 1.5339                 1.4000
 Frc consts  --      2.0481                 1.6351                 1.5586
 IR Inten    --      3.9710                 0.2458                11.3205

                     37                     38                     39
                      A                      A                      A
 Frequencies --   1398.8632              1460.2331              1513.2939
 Red. masses --      1.3341                 1.2320                 1.0902
 Frc consts  --      1.5382                 1.5477                 1.4710
 IR Inten    --      5.4474                71.2693                 0.7338

                     40                     41                     42
                      A                      A                      A
 Frequencies --   1521.0427              1552.1062              2996.4250
 Red. masses --      1.1079                 1.1112                 1.0667
 Frc consts  --      1.5102                 1.5772                 5.6427
 IR Inten    --      0.4707                 2.5157                72.0216

                     43                     44                     45
                      A                      A                      A
 Frequencies --   3030.3465              3045.6793              3051.3071
 Red. masses --      1.0598                 1.0877                 1.0665
 Frc consts  --      5.7342                 5.9449                 5.8502
 IR Inten    --     54.1382                 8.6263                43.9621

                     46                     47                     48
                      A                      A                      A
 Frequencies --   3070.1339              3071.5819              3088.2957
 Red. masses --      1.0976                 1.1021                 1.0857
 Frc consts  --      6.0955                 6.1261                 6.1009
 IR Inten    --     12.3200                75.6835                49.7686

                     49                     50                     51
                      A                      A                      A
 Frequencies --   3104.9472              3135.3396              3816.9993
 Red. masses --      1.0926                 1.0966                 1.0647
 Frc consts  --      6.2059                 6.3516                 9.1398
 IR Inten    --     60.0015                24.1726                13.4275

 - Thermochemistry -
 -------------------
 Temperature   298.150 Kelvin.  Pressure   1.00000 Atm.
 Atom     1 has atomic number  8 and mass  15.99491

 Molecular mass:   126.06808 amu.
 Principal axes and moments of inertia in atomic units:
                           1         2         3
     Eigenvalues --   502.511561295.913051468.22059
           X            0.99993  -0.00385  -0.01135
           Y            0.00385   0.99999   0.00048
           Z            0.01135  -0.00052   0.99994
 This molecule is an asymmetric top.
 Rotational symmetry number  1.
 Warning -- assumption of classical behavior for rotation
           may cause significant error
 Rotational temperatures (Kelvin)      0.17236     0.06684     0.05899
 Rotational constants (GHZ):           3.59144     1.39264     1.22920
 Zero-point vibrational energy     423095.3 (Joules/Mol)
                                  101.12220 (Kcal/Mol)
 Warning -- explicit consideration of   9 degrees of freedom as
           vibrations may cause significant error
 Vibrational temperatures:    145.61   298.06   366.96   410.52   469.06
          (Kelvin)            587.08   700.03   744.63   890.64   950.20
                             1034.87  1133.05  1188.99  1252.68  1267.81
                             1299.92  1326.00  1351.06  1447.33  1480.36
                             1509.07  1526.28  1556.42  1595.15  1627.46
                             1662.28  1671.16  1723.92  1728.32  1747.88
                             1756.45  1804.79  1843.66  1856.56  1935.23
                             1977.81  2012.65  2100.95  2177.29  2188.44
                             2233.13  4311.18  4359.99  4382.05  4390.14
                             4417.23  4419.32  4443.36  4467.32  4511.05
                             5491.80

 Zero-point correction=                           0.161148 (Hartree/Particle)
 Thermal correction to Energy=                    0.168510
 Thermal correction to Enthalpy=                  0.169454
 Thermal correction to Gibbs Free Energy=         0.129499
 Sum of electronic and zero-point Energies=           -422.945660
 Sum of electronic and thermal Energies=              -422.938298
 Sum of electronic and thermal Enthalpies=            -422.937354
 Sum of electronic and thermal Free Energies=         -422.977310

                     E (Thermal)             CV                S
                      KCal/Mol        Cal/Mol-Kelvin    Cal/Mol-Kelvin
 Total                  105.741             29.785             84.093
 Electronic               0.000              0.000              0.000
 Translational            0.889              2.981             40.409
 Rotational               0.889              2.981             28.349
 Vibrational            103.964             23.823             15.336
 Vibration     1          0.604              1.948              3.431
 Vibration     2          0.641              1.830              2.069
 Vibration     3          0.665              1.754              1.695
 Vibration     4          0.683              1.701              1.502
 Vibration     5          0.710              1.623              1.280
 Vibration     6          0.773              1.453              0.934
 Vibration     7          0.843              1.280              0.693
 Vibration     8          0.873              1.211              0.616
 Vibration     9          0.979              0.992              0.418

 Normal termination of Gaussian 09 at Mon Jan 27 23:57:42 2020.
