 Gaussian 09, Revision D.01,
 Gaussian 09:  ES64L-G09RevD.01 24-Apr-2013

 -----------------------------
 # b3lyp 6-31G(2df,p) opt Freq
 -----------------------------

 -----
 titel
 -----
 Symbolic Z-matrix:
 Charge =  0 Multiplicity = 1

 SCF Done:  E(RB3LYP) =  -423.138345720     A.U. after   14 cycles
 Optimization completed.
    -- Stationary point found.
 Normal termination of Gaussian 09 at Mon Jan 27 18:10:27 2020.

 ----------------------------------------------------------------------
 #N Geom=AllCheck Guess=TCheck SCRF=Check GenChk RB3LYP/6-31G(2df,p) Fr
 eq
 ----------------------------------------------------------------------

 Structure from the checkpoint file:  "/scratch/puck/g09_a40982fe-01ec-487f-8964-0f7195b404f0/Gau-65331.chk"
 -----
 titel
 -----
 Charge =  0 Multiplicity = 1

                         Standard orientation:
 ---------------------------------------------------------------------
 Center     Atomic      Atomic             Coordinates (Angstroms)
 Number     Number       Type             X           Y           Z
 ---------------------------------------------------------------------
      1          6           0       -2.373552   -0.119649    0.006791
      2          6           0       -0.883071   -0.361595    0.012339
      3          6           0       -0.212241   -0.992338   -1.243322
      4          6           0        1.036590   -0.100693   -1.049703
      5          8           0        1.878633   -0.593831    0.015081
      6          6           0        1.033718   -0.006558    1.029542
      7          6           0       -0.210340   -0.879861    1.318441
      8          6           0        0.229820    0.782252   -0.034111
      9          8           0        0.055598    2.146479    0.019820
     10          1           0       -2.927064   -1.063998    0.075047
     11          1           0       -2.678335    0.504289    0.854397
     12          1           0       -2.699065    0.380302   -0.913882
     13          1           0       -0.043764   -2.072428   -1.249767
     14          1           0       -0.751931   -0.703630   -2.153338
     15          1           0        1.614187    0.229000   -1.915646
     16          1           0        1.607306    0.420910    1.853193
     17          1           0       -0.041999   -1.955007    1.422416
     18          1           0       -0.742149   -0.505294    2.200174
     19          1           0       -0.536578    2.415318   -0.691660
 ---------------------------------------------------------------------

 SCF Done:  E(RB3LYP) =  -423.138345720     A.U. after    1 cycles

 The electronic state is 1-A.
 Alpha  occ. eigenvalues --  -19.15923 -19.12974 -10.23561 -10.22681 -10.22611
 Alpha  occ. eigenvalues --  -10.19409 -10.18102 -10.18080 -10.17988  -1.05363
 Alpha  occ. eigenvalues --   -1.02914  -0.84667  -0.75122  -0.72244  -0.65804
 Alpha  occ. eigenvalues --   -0.60740  -0.57927  -0.55489  -0.49604  -0.48013
 Alpha  occ. eigenvalues --   -0.45930  -0.43747  -0.42188  -0.41286  -0.40805
 Alpha  occ. eigenvalues --   -0.39823  -0.36973  -0.36376  -0.35568  -0.31513
 Alpha  occ. eigenvalues --   -0.31438  -0.26426  -0.24104  -0.24026
 Alpha virt. eigenvalues --    0.05518   0.08420   0.10261   0.11612   0.12146
 Alpha virt. eigenvalues --    0.13367   0.13929   0.15646   0.16675   0.17408
 Alpha virt. eigenvalues --    0.17686   0.18244   0.19088   0.20113   0.22032

 Mulliken charges:
               1
     1  C   -0.499491
     2  C    0.246802
     3  C   -0.282819
     4  C    0.021619
     5  O   -0.300109
     6  C    0.061549
     7  C   -0.283055
     8  C    0.312675
     9  O   -0.469517
    10  H    0.123841
    11  H    0.120183
    12  H    0.103432
    13  H    0.102703
    14  H    0.090484
    15  H    0.078040
    16  H    0.084107
    17  H    0.101530
    18  H    0.100211
    19  H    0.287813
 Sum of Mulliken charges =   0.00000

 Dipole moment (field-independent basis, Debye):
    X=             -2.3045    Y=              0.3920    Z=             -0.9530  Tot=              2.5244
 Quadrupole moment (field-independent basis, Debye-Ang):
   XX=            -56.7789   YY=            -54.1324   ZZ=            -49.4783
   XY=             -0.2144   XZ=              0.7345   YZ=             -2.8350

  Exact polarizability:  76.839   0.475  70.091   0.565  -0.549  76.409
 Approx polarizability: 108.443  -1.282 106.164   1.469  -0.284 112.393

                      1                      2                      3
                      A                      A                      A
 Frequencies --    166.5854               190.1940               216.9231
 Red. masses --      2.3899                 1.0591                 2.4129
 Frc consts  --      0.0391                 0.0226                 0.0669
 IR Inten    --      7.7909                 2.0672                 5.9824

                      4                      5                      6
                      A                      A                      A
 Frequencies --    244.6424               293.7285               337.9733
 Red. masses --      1.7087                 2.1571                 2.6985
 Frc consts  --      0.0603                 0.1097                 0.1816
 IR Inten    --     38.1918                58.8425                 4.1836

                      7                      8                      9
                      A                      A                      A
 Frequencies --    405.6133               423.1878               437.5412
 Red. masses --      2.0496                 3.0750                 2.6544
 Frc consts  --      0.1987                 0.3245                 0.2994
 IR Inten    --      2.3104                 0.5622                 6.4663

                     10                     11                     12
                      A                      A                      A
 Frequencies --    591.5589               633.0585               649.9505
 Red. masses --      3.2531                 3.3734                 3.9299
 Frc consts  --      0.6707                 0.7965                 0.9781
 IR Inten    --      3.8424                 4.5180                 1.2337

                     13                     14                     15
                      A                      A                      A
 Frequencies --    769.2001               836.1942               852.4707
 Red. masses --      3.6282                 3.0965                 2.2173
 Frc consts  --      1.2648                 1.2757                 0.9494
 IR Inten    --      8.8278                 8.7827                 4.3428

                     16                     17                     18
                      A                      A                      A
 Frequencies --    860.4091               915.4606               941.1143
 Red. masses --      2.6110                 2.0407                 1.8872
 Frc consts  --      1.1388                 1.0076                 0.9848
 IR Inten    --      3.0578                 6.5509                 9.6066

                     19                     20                     21
                      A                      A                      A
 Frequencies --    982.7277               983.3238               987.2341
 Red. masses --      2.2321                 2.0200                 2.0268
 Frc consts  --      1.2700                 1.1508                 1.1639
 IR Inten    --     12.5292                23.4275                14.0988

                     22                     23                     24
                      A                      A                      A
 Frequencies --   1024.4290              1050.0902              1102.9709
 Red. masses --      2.3108                 2.6537                 1.8237
 Frc consts  --      1.4288                 1.7241                 1.3072
 IR Inten    --     22.3275                17.6675                 6.1637

                     25                     26                     27
                      A                      A                      A
 Frequencies --   1107.2196              1148.0165              1173.1545
 Red. masses --      1.5828                 1.8803                 1.6596
 Frc consts  --      1.1432                 1.4600                 1.3457
 IR Inten    --     32.4530                 0.8150                 8.3679

                     28                     29                     30
                      A                      A                      A
 Frequencies --   1187.5460              1240.4114              1245.5202
 Red. masses --      2.6477                 1.8528                 1.6603
 Frc consts  --      2.2000                 1.6797                 1.5176
 IR Inten    --     31.5279                 5.5784                 3.8164

                     31                     32                     33
                      A                      A                      A
 Frequencies --   1246.4691              1286.7702              1300.7373
 Red. masses --      1.7068                 1.3699                 1.8649
 Frc consts  --      1.5624                 1.3364                 1.8590
 IR Inten    --      3.6529                 3.7439               112.2356

                     34                     35                     36
                      A                      A                      A
 Frequencies --   1316.1527              1346.9128              1403.9839
 Red. masses --      2.1057                 1.7505                 1.7973
 Frc consts  --      2.1492                 1.8711                 2.0874
 IR Inten    --     41.7976                16.9351                11.0144

                     37                     38                     39
                      A                      A                      A
 Frequencies --   1416.8783              1460.4341              1477.0538
 Red. masses --      1.7262                 1.1129                 1.1487
 Frc consts  --      2.0417                 1.3986                 1.4766
 IR Inten    --      4.5927                 2.0794                 6.4809

                     40                     41                     42
                      A                      A                      A
 Frequencies --   1491.1662              1493.3546              3014.7599
 Red. masses --      1.0536                 1.0488                 1.0361
 Frc consts  --      1.3804                 1.3780                 5.5485
 IR Inten    --      5.9070                 4.5318                28.5840

                     43                     44                     45
                      A                      A                      A
 Frequencies --   3032.9822              3041.4077              3075.4589
 Red. masses --      1.0607                 1.0592                 1.0998
 Frc consts  --      5.7489                 5.7729                 6.1290
 IR Inten    --     36.4470                27.4883                23.3175

                     46                     47                     48
                      A                      A                      A
 Frequencies --   3087.6891              3090.4102              3101.2235
 Red. masses --      1.1006                 1.0898                 1.1045
 Frc consts  --      6.1825                 6.1322                 6.2585
 IR Inten    --     19.7969                61.3378                 7.8718

                     49                     50                     51
                      A                      A                      A
 Frequencies --   3102.8659              3106.1270              3795.6922
 Red. masses --      1.0937                 1.1036                 1.0658
 Frc consts  --      6.2040                 6.2733                 9.0470
 IR Inten    --     38.4120                45.1931                21.2069

 - Thermochemistry -
 -------------------
 Temperature   298.150 Kelvin.  Pressure   1.00000 Atm.
 Atom     1 has atomic number  6 and mass  12.00000

 Molecular mass:   126.06808 amu.
 Principal axes and moments of inertia in atomic units:
                           1         2         3
     Eigenvalues --   763.90955 993.165561130.46607
           X            0.99965   0.02624   0.00173
           Y           -0.02618   0.99925  -0.02838
           Z           -0.00247   0.02832   0.99960
 This molecule is an asymmetric top.
 Rotational symmetry number  1.
 Warning -- assumption of classical behavior for rotation
           may cause significant error
 Rotational temperatures (Kelvin)      0.11338     0.08721     0.07662
 Rotational constants (GHZ):           2.36251     1.81716     1.59646
 Zero-point vibrational energy     416820.7 (Joules/Mol)
                                   99.62254 (Kcal/Mol)
 Warning -- explicit consideration of  10 degrees of freedom as
           vibrations may cause significant error
 Vibrational temperatures:    239.68   273.65   312.10   351.99   422.61
          (Kelvin)            486.27   583.59   608.87   629.52   851.12
                              910.83   935.13  1106.71  1203.10  1226.51
                             1237.94  1317.14  1354.05  1413.92  1414.78
                             1420.41  1473.92  1510.84  1586.93  1593.04
                             1651.74  1687.91  1708.61  1784.67  1792.02
                             1793.39  1851.37  1871.47  1893.65  1937.90
                             2020.02  2038.57  2101.24  2125.15  2145.45
                             2148.60  4337.56  4363.78  4375.90  4424.89
                             4442.49  4446.41  4461.96  4464.33  4469.02
                             5461.15

 Zero-point correction=                           0.158759 (Hartree/Particle)
 Thermal correction to Energy=                    0.166710
 Thermal correction to Enthalpy=                  0.167654
 Thermal correction to Gibbs Free Energy=         0.126946
 Sum of electronic and zero-point Energies=           -422.979587
 Sum of electronic and thermal Energies=              -422.971636
 Sum of electronic and thermal Enthalpies=            -422.970692
 Sum of electronic and thermal Free Energies=         -423.011400

                     E (Thermal)             CV                S
                      KCal/Mol        Cal/Mol-Kelvin    Cal/Mol-Kelvin
 Total                  104.612             31.842             85.678
 Electronic               0.000              0.000              0.000
 Translational            0.889              2.981             40.409
 Rotational               0.889              2.981             28.241
 Vibrational            102.835             25.880             17.028
 Vibration     1          0.624              1.884              2.474
 Vibration     2          0.634              1.853              2.226
 Vibration     3          0.646              1.815              1.985
 Vibration     4          0.660              1.772              1.769
 Vibration     5          0.689              1.685              1.452
 Vibration     6          0.718              1.600              1.222
 Vibration     7          0.771              1.458              0.942
 Vibration     8          0.785              1.420              0.881
 Vibration     9          0.798              1.388              0.834
 Vibration    10          0.949              1.050              0.464

 Optimization completed.
    -- Stationary point found.
 Normal termination of Gaussian 09 at Mon Jan 27 18:55:15 2020.
