 Gaussian 09, Revision D.01,
 Gaussian 09:  ES64L-G09RevD.01 24-Apr-2013

 -----------------------------
 # b3lyp 6-31G(2df,p) opt Freq
 -----------------------------

 -----
 titel
 -----
 Symbolic Z-matrix:
 Charge =  0 Multiplicity = 1

 SCF Done:  E(RB3LYP) =  -423.129204565     A.U. after   14 cycles
 Optimization completed.
    -- Stationary point found.
 Normal termination of Gaussian 09 at Tue Jan 28 10:19:27 2020.

 ----------------------------------------------------------------------
 #N Geom=AllCheck Guess=TCheck SCRF=Check GenChk RB3LYP/6-31G(2df,p) Fr
 eq
 ----------------------------------------------------------------------

 Structure from the checkpoint file:  "/scratch/puck/g09_3c0fc4dd-d10f-4382-bd1b-a922e4efc5a6/Gau-859.chk"
 -----
 titel
 -----
 Charge =  0 Multiplicity = 1

                         Standard orientation:
 ---------------------------------------------------------------------
 Center     Atomic      Atomic             Coordinates (Angstroms)
 Number     Number       Type             X           Y           Z
 ---------------------------------------------------------------------
      1          8           0        2.855651   -0.075493   -0.422696
      2          6           0        1.919290   -0.009262    0.645653
      3          6           0        0.490800   -0.003350    0.158001
      4          6           0       -0.062063    1.295018   -0.507674
      5          6           0       -1.436428    1.029780    0.150821
      6          8           0       -2.176152    0.006525   -0.548238
      7          6           0       -1.430892   -1.040240    0.116620
      8          6           0       -0.056967   -1.276038   -0.550177
      9          6           0       -0.786491   -0.018634    1.096317
     10          1           0        2.724647    0.703327   -0.973573
     11          1           0        2.107908   -0.899878    1.256505
     12          1           0        2.103493    0.870591    1.285373
     13          1           0        0.405486    2.184657   -0.067499
     14          1           0       -0.047603    1.374295   -1.598434
     15          1           0       -2.069532    1.872094    0.435795
     16          1           0       -2.064109   -1.890723    0.375391
     17          1           0        0.422204   -2.174075   -0.144550
     18          1           0       -0.035697   -1.316481   -1.641904
     19          1           0       -0.806280   -0.035701    2.182999
 ---------------------------------------------------------------------

 SCF Done:  E(RB3LYP) =  -423.129204565     A.U. after    1 cycles

 The electronic state is 1-A.
 Alpha  occ. eigenvalues --  -19.13651 -19.13243 -10.23673 -10.23461 -10.22727
 Alpha  occ. eigenvalues --  -10.19844 -10.19252 -10.18652 -10.18098  -1.04557
 Alpha  occ. eigenvalues --   -1.01642  -0.85343  -0.75436  -0.70581  -0.66725
 Alpha  occ. eigenvalues --   -0.61079  -0.58393  -0.53037  -0.50543  -0.48311
 Alpha  occ. eigenvalues --   -0.47346  -0.45698  -0.43357  -0.42475  -0.41636
 Alpha  occ. eigenvalues --   -0.38904  -0.37480  -0.34077  -0.32406  -0.31407
 Alpha  occ. eigenvalues --   -0.29186  -0.27756  -0.26250  -0.23997
 Alpha virt. eigenvalues --    0.06152   0.07442   0.09820   0.10100   0.12443
 Alpha virt. eigenvalues --    0.13181   0.13825   0.15026   0.16040   0.17307
 Alpha virt. eigenvalues --    0.17450   0.18069   0.18897   0.19074   0.21775

 Mulliken charges:
               1
     1  O   -0.416487
     2  C   -0.177837
     3  C    0.314731
     4  C   -0.305014
     5  C    0.111714
     6  O   -0.304399
     7  C    0.106979
     8  C   -0.277788
     9  C   -0.163085
    10  H    0.285813
    11  H    0.105743
    12  H    0.081635
    13  H    0.095517
    14  H    0.103840
    15  H    0.078848
    16  H    0.078923
    17  H    0.101630
    18  H    0.104766
    19  H    0.074472
 Sum of Mulliken charges =   0.00000

 Dipole moment (field-independent basis, Debye):
    X=              0.2342    Y=              0.9809    Z=              1.1406  Tot=              1.5225
 Quadrupole moment (field-independent basis, Debye-Ang):
   XX=            -63.1210   YY=            -49.3332   ZZ=            -51.6247
   XY=              3.1786   XZ=             -2.4794   YZ=             -1.5001

  Exact polarizability:  78.698   0.374  76.527  -1.609  -0.707  67.367
 Approx polarizability: 109.013  -0.459 112.646  -1.179  -1.294 104.454

                      1                      2                      3
                      A                      A                      A
 Frequencies --     81.0832               148.5409               261.9633
 Red. masses --      3.4713                 4.6862                 1.7102
 Frc consts  --      0.0134                 0.0609                 0.0691
 IR Inten    --      2.4586                 2.3648                34.4839

                      4                      5                      6
                      A                      A                      A
 Frequencies --    311.3067               327.0242               358.6198
 Red. masses --      1.5444                 2.3594                 4.2929
 Frc consts  --      0.0882                 0.1487                 0.3253
 IR Inten    --     40.7803                27.9390                 5.1215

                      7                      8                      9
                      A                      A                      A
 Frequencies --    397.4646               463.6394               657.5701
 Red. masses --      1.7517                 2.2758                 4.0746
 Frc consts  --      0.1630                 0.2882                 1.0381
 IR Inten    --     11.8987                 4.5883                 0.6195

                     10                     11                     12
                      A                      A                      A
 Frequencies --    665.8196               751.9697               821.5755
 Red. masses --      3.3127                 3.9763                 2.2046
 Frc consts  --      0.8653                 1.3248                 0.8768
 IR Inten    --     12.5918                 0.1217                12.7596

                     13                     14                     15
                      A                      A                      A
 Frequencies --    830.9611               856.0745               875.0505
 Red. masses --      1.5198                 2.1286                 1.8325
 Frc consts  --      0.6183                 0.9191                 0.8267
 IR Inten    --      0.2878                 4.4488                 0.6356

                     16                     17                     18
                      A                      A                      A
 Frequencies --    915.7626               952.0217               958.4907
 Red. masses --      2.0112                 2.7843                 1.7303
 Frc consts  --      0.9937                 1.4868                 0.9366
 IR Inten    --      8.4733                 8.5909                 1.1902

                     19                     20                     21
                      A                      A                      A
 Frequencies --    971.9348               979.3332               992.3287
 Red. masses --      2.6758                 3.0947                 2.8230
 Frc consts  --      1.4893                 1.7488                 1.6378
 IR Inten    --     40.2542                26.2580                 6.9010

                     22                     23                     24
                      A                      A                      A
 Frequencies --   1035.9349              1063.6947              1096.9056
 Red. masses --      3.2499                 3.3321                 1.9998
 Frc consts  --      2.0549                 2.2213                 1.4176
 IR Inten    --     19.5367                83.0898                22.3068

                     25                     26                     27
                      A                      A                      A
 Frequencies --   1141.2310              1150.1673              1152.8001
 Red. masses --      1.3879                 1.8616                 1.6774
 Frc consts  --      1.0650                 1.4510                 1.3134
 IR Inten    --     15.6911                 7.0839                 0.1353

                     28                     29                     30
                      A                      A                      A
 Frequencies --   1161.6119              1195.5114              1239.6196
 Red. masses --      1.5741                 1.4217                 1.9711
 Frc consts  --      1.2514                 1.1972                 1.7846
 IR Inten    --      2.8503                 1.8186                11.2871

                     31                     32                     33
                      A                      A                      A
 Frequencies --   1257.0265              1268.0793              1271.4448
 Red. masses --      1.6275                 1.7786                 1.4699
 Frc consts  --      1.5152                 1.6851                 1.4000
 IR Inten    --      2.6793                 2.4415                 6.1354

                     34                     35                     36
                      A                      A                      A
 Frequencies --   1301.4013              1325.5795              1354.5562
 Red. masses --      1.4705                 2.1131                 1.5454
 Frc consts  --      1.4674                 2.1876                 1.6706
 IR Inten    --      3.9976                16.6657                 3.8493

                     37                     38                     39
                      A                      A                      A
 Frequencies --   1374.5324              1419.2130              1462.3616
 Red. masses --      1.2746                 1.3151                 1.1067
 Frc consts  --      1.4188                 1.5606                 1.3944
 IR Inten    --      2.4458                59.2781                 1.8854

                     40                     41                     42
                      A                      A                      A
 Frequencies --   1473.7242              1502.5401              2959.6472
 Red. masses --      1.1266                 1.0879                 1.0704
 Frc consts  --      1.4417                 1.4471                 5.5245
 IR Inten    --      1.2253                 0.8791                61.3253

                     43                     44                     45
                      A                      A                      A
 Frequencies --   3027.3496              3044.0469              3057.4215
 Red. masses --      1.0598                 1.0609                 1.0910
 Frc consts  --      5.7226                 5.7918                 6.0086
 IR Inten    --     33.0642                20.3998                33.8763

                     46                     47                     48
                      A                      A                      A
 Frequencies --   3089.3932              3093.2204              3095.3433
 Red. masses --      1.0888                 1.0922                 1.1041
 Frc consts  --      6.1227                 6.1569                 6.2327
 IR Inten    --     78.1923                45.6453                19.8646

                     49                     50                     51
                      A                      A                      A
 Frequencies --   3109.2131              3148.7796              3811.5559
 Red. masses --      1.1054                 1.0940                 1.0661
 Frc consts  --      6.2959                 6.3905                 9.1252
 IR Inten    --     26.2948                24.7238                14.0812

 - Thermochemistry -
 -------------------
 Temperature   298.150 Kelvin.  Pressure   1.00000 Atm.
 Atom     1 has atomic number  8 and mass  15.99491

 Molecular mass:   126.06808 amu.
 Principal axes and moments of inertia in atomic units:
                           1         2         3
     Eigenvalues --   489.588331375.935841514.14196
           X            0.99997   0.00744  -0.00240
           Y           -0.00747   0.99988  -0.01371
           Z            0.00229   0.01373   0.99990
 This molecule is an asymmetric top.
 Rotational symmetry number  1.
 Warning -- assumption of classical behavior for rotation
           may cause significant error
 Rotational temperatures (Kelvin)      0.17691     0.06295     0.05720
 Rotational constants (GHZ):           3.68624     1.31165     1.19192
 Zero-point vibrational energy     420262.7 (Joules/Mol)
                                  100.44520 (Kcal/Mol)
 Warning -- explicit consideration of   8 degrees of freedom as
           vibrations may cause significant error
 Vibrational temperatures:    116.66   213.72   376.91   447.90   470.51
          (Kelvin)            515.97   571.86   667.07   946.10   957.96
                             1081.92  1182.06  1195.57  1231.70  1259.00
                             1317.58  1369.75  1379.05  1398.40  1409.04
                             1427.74  1490.48  1530.42  1578.20  1641.97
                             1654.83  1658.62  1671.30  1720.07  1783.53
                             1808.58  1824.48  1829.32  1872.42  1907.21
                             1948.90  1977.64  2041.93  2104.01  2120.36
                             2161.82  4258.27  4355.68  4379.70  4398.94
                             4444.94  4450.45  4453.50  4473.46  4530.39
                             5483.97

 Zero-point correction=                           0.160070 (Hartree/Particle)
 Thermal correction to Energy=                    0.167672
 Thermal correction to Enthalpy=                  0.168616
 Thermal correction to Gibbs Free Energy=         0.127963
 Sum of electronic and zero-point Energies=           -422.969135
 Sum of electronic and thermal Energies=              -422.961532
 Sum of electronic and thermal Enthalpies=            -422.960588
 Sum of electronic and thermal Free Energies=         -423.001242

                     E (Thermal)             CV                S
                      KCal/Mol        Cal/Mol-Kelvin    Cal/Mol-Kelvin
 Total                  105.216             30.236             85.563
 Electronic               0.000              0.000              0.000
 Translational            0.889              2.981             40.409
 Rotational               0.889              2.981             28.413
 Vibrational            103.438             24.275             16.741
 Vibration     1          0.600              1.962              3.864
 Vibration     2          0.618              1.904              2.691
 Vibration     3          0.669              1.742              1.649
 Vibration     4          0.700              1.652              1.355
 Vibration     5          0.711              1.621              1.275
 Vibration     6          0.733              1.558              1.128
 Vibration     7          0.764              1.476              0.972
 Vibration     8          0.821              1.331              0.756

 Normal termination of Gaussian 09 at Tue Jan 28 12:28:12 2020.
