 Gaussian 09, Revision D.01,
 Gaussian 09:  ES64L-G09RevD.01 24-Apr-2013

 -----------------------------
 # b3lyp 6-31G(2df,p) opt Freq
 -----------------------------

 -----
 titel
 -----
 Symbolic Z-matrix:
 Charge =  0 Multiplicity = 1

 SCF Done:  E(RB3LYP) =  -423.161794500     A.U. after   13 cycles
 Optimization completed.
    -- Stationary point found.
 Normal termination of Gaussian 09 at Mon Jan 27 17:29:24 2020.

 ----------------------------------------------------------------------
 #N Geom=AllCheck Guess=TCheck SCRF=Check GenChk RB3LYP/6-31G(2df,p) Fr
 eq
 ----------------------------------------------------------------------

 Structure from the checkpoint file:  "/scratch/puck/g09_29b45832-9995-47b7-8370-203014a58e3f/Gau-72640.chk"
 -----
 titel
 -----
 Charge =  0 Multiplicity = 1

                         Standard orientation:
 ---------------------------------------------------------------------
 Center     Atomic      Atomic             Coordinates (Angstroms)
 Number     Number       Type             X           Y           Z
 ---------------------------------------------------------------------
      1          8           0       -2.246370    0.605832    0.644565
      2          6           0       -1.108140    0.169054   -0.051992
      3          6           0       -1.199759   -1.160184   -0.765907
      4          6           0       -0.412551   -1.034553    0.523279
      5          6           0        1.102252   -0.940110    0.448025
      6          6           0        1.565676    0.402829    1.054504
      7          6           0        1.278115    0.897887   -0.381195
      8          6           0       -0.192464    1.280307   -0.584930
      9          8           0        1.484075   -0.460017   -0.873923
     10          1           0       -2.887920    0.914656   -0.004963
     11          1           0       -2.154989   -1.670149   -0.706563
     12          1           0       -0.638308   -1.292877   -1.682967
     13          1           0       -0.832778   -1.468197    1.424861
     14          1           0        1.618464   -1.867668    0.708702
     15          1           0        0.984526    0.820217    1.879344
     16          1           0        2.632775    0.417025    1.281806
     17          1           0        1.969316    1.607753   -0.842788
     18          1           0       -0.411201    2.197375   -0.026810
     19          1           0       -0.380298    1.483970   -1.646461
 ---------------------------------------------------------------------

 SCF Done:  E(RB3LYP) =  -423.161794500     A.U. after    1 cycles

 The electronic state is 1-A.
 Alpha  occ. eigenvalues --  -19.13960 -19.13013 -10.23565 -10.23552 -10.23511
 Alpha  occ. eigenvalues --  -10.18441 -10.18368 -10.18291 -10.17693  -1.04131
 Alpha  occ. eigenvalues --   -1.02366  -0.84741  -0.76058  -0.73414  -0.65461
 Alpha  occ. eigenvalues --   -0.59414  -0.58913  -0.52967  -0.51179  -0.48560
 Alpha  occ. eigenvalues --   -0.46569  -0.45556  -0.43151  -0.42009  -0.39674
 Alpha  occ. eigenvalues --   -0.38470  -0.36412  -0.35625  -0.33921  -0.31797
 Alpha  occ. eigenvalues --   -0.30150  -0.26426  -0.25743  -0.23950
 Alpha virt. eigenvalues --    0.07826   0.09153   0.10655   0.11557   0.12418
 Alpha virt. eigenvalues --    0.13257   0.14210   0.15908   0.16608   0.17021
 Alpha virt. eigenvalues --    0.17865   0.19063   0.20108   0.20950   0.21594

 Mulliken charges:
               1
     1  O   -0.474958
     2  C    0.408381
     3  C   -0.354448
     4  C   -0.079944
     5  C    0.068737
     6  C   -0.251612
     7  C    0.104171
     8  C   -0.307628
     9  O   -0.296129
    10  H    0.278867
    11  H    0.105566
    12  H    0.128154
    13  H    0.095088
    14  H    0.076774
    15  H    0.107196
    16  H    0.107403
    17  H    0.075465
    18  H    0.108626
    19  H    0.100294
 Sum of Mulliken charges =   0.00000

 Dipole moment (field-independent basis, Debye):
    X=             -0.4918    Y=              0.8532    Z=              0.0644  Tot=              0.9869
 Quadrupole moment (field-independent basis, Debye-Ang):
   XX=            -51.2913   YY=            -51.1600   ZZ=            -54.5486
   XY=              0.6215   XZ=              5.6639   YZ=             -2.9466

  Exact polarizability:  79.850   1.284  73.786   4.026  -1.827  67.309
 Approx polarizability: 108.495  -1.867 108.945   1.924  -0.879 106.487

                      1                      2                      3
                      A                      A                      A
 Frequencies --    169.0824               257.7810               302.0859
 Red. masses --      3.2647                 3.0188                 1.1417
 Frc consts  --      0.0550                 0.1182                 0.0614
 IR Inten    --      3.9086                 7.2867                78.6543

                      4                      5                      6
                      A                      A                      A
 Frequencies --    366.3691               374.8676               400.7790
 Red. masses --      3.8412                 2.4144                 2.8489
 Frc consts  --      0.3038                 0.1999                 0.2696
 IR Inten    --      0.9894                 3.9288                 6.3192

                      7                      8                      9
                      A                      A                      A
 Frequencies --    432.2694               485.9952               560.1886
 Red. masses --      2.9122                 2.9242                 3.5354
 Frc consts  --      0.3206                 0.4069                 0.6537
 IR Inten    --     10.2199                 5.4543                 3.8020

                     10                     11                     12
                      A                      A                      A
 Frequencies --    615.5749               711.0316               789.9744
 Red. masses --      3.0862                 3.8642                 2.0967
 Frc consts  --      0.6890                 1.1510                 0.7709
 IR Inten    --      4.9780                 4.1469                 1.7326

                     13                     14                     15
                      A                      A                      A
 Frequencies --    841.6981               869.4009               887.0731
 Red. masses --      2.3573                 2.4833                 2.4835
 Frc consts  --      0.9840                 1.1059                 1.1514
 IR Inten    --      5.6942                11.0037                12.4064

                     16                     17                     18
                      A                      A                      A
 Frequencies --    915.8576               925.5764               929.2379
 Red. masses --      2.1125                 2.2358                 3.5033
 Frc consts  --      1.0440                 1.1285                 1.7823
 IR Inten    --     20.8117                11.7330                20.7047

                     19                     20                     21
                      A                      A                      A
 Frequencies --    948.7137               976.8254               994.7985
 Red. masses --      1.9711                 2.0664                 2.0225
 Frc consts  --      1.0453                 1.1617                 1.1792
 IR Inten    --     18.1100                10.4829                15.2419

                     22                     23                     24
                      A                      A                      A
 Frequencies --   1031.5782              1065.4681              1079.1820
 Red. masses --      2.2655                 1.3359                 1.5836
 Frc consts  --      1.4204                 0.8935                 1.0866
 IR Inten    --      9.7670                 8.2902                 3.8341

                     25                     26                     27
                      A                      A                      A
 Frequencies --   1093.2649              1110.7881              1128.6504
 Red. masses --      1.9279                 2.0364                 1.3182
 Frc consts  --      1.3576                 1.4804                 0.9893
 IR Inten    --      3.4350                 3.8344                 5.3356

                     28                     29                     30
                      A                      A                      A
 Frequencies --   1156.7594              1221.4079              1245.9280
 Red. masses --      1.2524                 1.6628                 1.4700
 Frc consts  --      0.9874                 1.4615                 1.3445
 IR Inten    --     32.0476                15.2508                19.3734

                     31                     32                     33
                      A                      A                      A
 Frequencies --   1262.2381              1263.0338              1298.8100
 Red. masses --      1.9758                 1.5391                 1.4880
 Frc consts  --      1.8547                 1.4466                 1.4789
 IR Inten    --     19.0059                11.4309                31.7607

                     34                     35                     36
                      A                      A                      A
 Frequencies --   1323.1222              1343.0176              1350.4472
 Red. masses --      1.7283                 1.4992                 1.6280
 Frc consts  --      1.7827                 1.5932                 1.7493
 IR Inten    --      5.0031                13.5162                33.2863

                     37                     38                     39
                      A                      A                      A
 Frequencies --   1376.7453              1398.1624              1464.8740
 Red. masses --      1.5885                 1.5094                 1.3322
 Frc consts  --      1.7740                 1.7385                 1.6843
 IR Inten    --      3.2034                 9.8952                 6.2538

                     40                     41                     42
                      A                      A                      A
 Frequencies --   1484.1129              1488.7211              3025.7971
 Red. masses --      1.3077                 1.1598                 1.0619
 Frc consts  --      1.6971                 1.5144                 5.7281
 IR Inten    --      2.2060                 4.9894                29.2690

                     43                     44                     45
                      A                      A                      A
 Frequencies --   3069.2177              3074.9377              3077.2638
 Red. masses --      1.0670                 1.0861                 1.1009
 Frc consts  --      5.9218                 6.0504                 6.1421
 IR Inten    --     15.5987                86.3180                16.2401

                     46                     47                     48
                      A                      A                      A
 Frequencies --   3082.2449              3136.8141              3138.1320
 Red. masses --      1.0816                 1.0570                 1.1054
 Frc consts  --      6.0542                 6.1278                 6.4137
 IR Inten    --     37.8309                17.2730                19.2661

                     49                     50                     51
                      A                      A                      A
 Frequencies --   3168.7147              3235.6958              3789.0746
 Red. masses --      1.0898                 1.1173                 1.0661
 Frc consts  --      6.4471                 6.8923                 9.0184
 IR Inten    --      8.3425                 3.0081                14.8330

 - Thermochemistry -
 -------------------
 Temperature   298.150 Kelvin.  Pressure   1.00000 Atm.
 Atom     1 has atomic number  8 and mass  15.99491

 Molecular mass:   126.06808 amu.
 Principal axes and moments of inertia in atomic units:
                           1         2         3
     Eigenvalues --   596.729081101.555991233.59171
           X            0.99895   0.02725   0.03670
           Y           -0.02556   0.99863  -0.04569
           Z           -0.03790   0.04471   0.99828
 This molecule is an asymmetric top.
 Rotational symmetry number  1.
 Warning -- assumption of classical behavior for rotation
           may cause significant error
 Rotational temperatures (Kelvin)      0.14515     0.07863     0.07021
 Rotational constants (GHZ):           3.02439     1.63836     1.46300
 Zero-point vibrational energy     423115.5 (Joules/Mol)
                                  101.12703 (Kcal/Mol)
 Warning -- explicit consideration of  10 degrees of freedom as
           vibrations may cause significant error
 Vibrational temperatures:    243.27   370.89   434.63   527.12   539.35
          (Kelvin)            576.63   621.94   699.24   805.99   885.67
                             1023.01  1136.60  1211.01  1250.87  1276.30
                             1317.71  1331.70  1336.96  1364.99  1405.43
                             1431.29  1484.21  1532.97  1552.70  1572.96
                             1598.17  1623.87  1664.32  1757.33  1792.61
                             1816.08  1817.22  1868.70  1903.68  1932.30
                             1942.99  1980.83  2011.64  2107.62  2135.30
                             2141.93  4353.44  4415.91  4424.14  4427.49
                             4434.66  4513.17  4515.07  4559.07  4655.44
                             5451.63

 Zero-point correction=                           0.161156 (Hartree/Particle)
 Thermal correction to Energy=                    0.168280
 Thermal correction to Enthalpy=                  0.169224
 Thermal correction to Gibbs Free Energy=         0.130181
 Sum of electronic and zero-point Energies=           -423.000638
 Sum of electronic and thermal Energies=              -422.993514
 Sum of electronic and thermal Enthalpies=            -422.992570
 Sum of electronic and thermal Free Energies=         -423.031613

                     E (Thermal)             CV                S
                      KCal/Mol        Cal/Mol-Kelvin    Cal/Mol-Kelvin
 Total                  105.597             30.050             82.173
 Electronic               0.000              0.000              0.000
 Translational            0.889              2.981             40.409
 Rotational               0.889              2.981             28.185
 Vibrational            103.820             24.088             13.579
 Vibration     1          0.625              1.881              2.446
 Vibration     2          0.667              1.750              1.677
 Vibration     3          0.694              1.670              1.405
 Vibration     4          0.739              1.541              1.095
 Vibration     5          0.746              1.524              1.060
 Vibration     6          0.767              1.468              0.960
 Vibration     7          0.793              1.400              0.851
 Vibration     8          0.842              1.281              0.694
 Vibration     9          0.916              1.117              0.523
 Vibration    10          0.975              0.999              0.424

 Optimization completed.
    -- Stationary point found.
 Normal termination of Gaussian 09 at Mon Jan 27 18:28:15 2020.
