 Gaussian 09, Revision D.01,
 Gaussian 09:  ES64L-G09RevD.01 24-Apr-2013

 -----------------------------
 # b3lyp 6-31G(2df,p) opt Freq
 -----------------------------

 -----
 titel
 -----
 Symbolic Z-matrix:
 Charge =  0 Multiplicity = 1

 SCF Done:  E(RB3LYP) =  -423.129886196     A.U. after   14 cycles
 Optimization completed.
    -- Stationary point found.
 Normal termination of Gaussian 09 at Tue Jan 28 12:10:20 2020.

 ----------------------------------------------------------------------
 #N Geom=AllCheck Guess=TCheck SCRF=Check GenChk RB3LYP/6-31G(2df,p) Fr
 eq
 ----------------------------------------------------------------------

 Structure from the checkpoint file:  "/scratch/puck/g09_c6e781bc-6a1a-42c9-8f11-ea649e40c39c/Gau-36771.chk"
 -----
 titel
 -----
 Charge =  0 Multiplicity = 1

                         Standard orientation:
 ---------------------------------------------------------------------
 Center     Atomic      Atomic             Coordinates (Angstroms)
 Number     Number       Type             X           Y           Z
 ---------------------------------------------------------------------
      1          6           0        3.406855   -1.369163    0.020361
      2          6           0        2.183173   -0.584485   -0.046920
      3          6           0        1.177378    0.077131   -0.092467
      4          6           0       -0.046510    0.842403   -0.168420
      5          6           0       -1.291387    0.086318   -0.599456
      6          6           0       -1.706875   -0.991179    0.408899
      7          8           0       -2.895932   -1.660322    0.020461
      8          6           0        0.035308    2.304252   -0.373505
      9          8           0       -0.262582    1.777417    0.913730
     10          1           0        3.213261   -2.426531   -0.190071
     11          1           0        4.148531   -1.014972   -0.703968
     12          1           0        3.858250   -1.306302    1.016515
     13          1           0       -2.117171    0.794028   -0.720547
     14          1           0       -1.102927   -0.376492   -1.577325
     15          1           0       -0.878135   -1.696392    0.568384
     16          1           0       -1.925901   -0.520253    1.371769
     17          1           0       -2.702846   -2.166155   -0.775232
     18          1           0        1.012880    2.772283   -0.474771
     19          1           0       -0.785490    2.812363   -0.879238
 ---------------------------------------------------------------------

 SCF Done:  E(RB3LYP) =  -423.129886196     A.U. after    1 cycles

 The electronic state is 1-A.
 Alpha  occ. eigenvalues --  -19.15430 -19.13232 -10.26307 -10.23764 -10.22342
 Alpha  occ. eigenvalues --  -10.21058 -10.18915 -10.18615 -10.17561  -1.07449
 Alpha  occ. eigenvalues --   -1.01303  -0.79406  -0.77135  -0.71521  -0.67299
 Alpha  occ. eigenvalues --   -0.64072  -0.60702  -0.52445  -0.49813  -0.48353
 Alpha  occ. eigenvalues --   -0.46284  -0.45298  -0.43332  -0.43284  -0.41411
 Alpha  occ. eigenvalues --   -0.40290  -0.38700  -0.36614  -0.34340  -0.31398
 Alpha  occ. eigenvalues --   -0.27692  -0.27254  -0.26083  -0.24551
 Alpha virt. eigenvalues --    0.02925   0.04604   0.07857   0.10283   0.10527
 Alpha virt. eigenvalues --    0.11832   0.13219   0.14513   0.15238   0.16022
 Alpha virt. eigenvalues --    0.16719   0.18671   0.19442   0.20654   0.20912

 Mulliken charges:
               1
     1  C   -0.503671
     2  C    0.114486
     3  C    0.036092
     4  C    0.202016
     5  C   -0.302907
     6  C   -0.059880
     7  O   -0.416194
     8  C   -0.215982
     9  O   -0.265387
    10  H    0.151207
    11  H    0.151578
    12  H    0.156859
    13  H    0.114236
    14  H    0.096551
    15  H    0.098730
    16  H    0.128859
    17  H    0.280334
    18  H    0.118941
    19  H    0.114131
 Sum of Mulliken charges =   0.00000

 Dipole moment (field-independent basis, Debye):
    X=              2.1503    Y=             -0.8109    Z=             -2.3820  Tot=              3.3098
 Quadrupole moment (field-independent basis, Debye-Ang):
   XX=            -52.7273   YY=            -49.1086   ZZ=            -53.6020
   XY=             -4.0851   XZ=              3.4011   YZ=             -0.9016

  Exact polarizability:  97.907 -13.589  86.984   2.175  -1.612  58.928
 Approx polarizability: 134.368 -27.018 123.137   0.565   0.961  92.567

                      1                      2                      3
                      A                      A                      A
 Frequencies --     27.6350                57.3073                85.6952
 Red. masses --      1.0161                 4.3859                 1.8505
 Frc consts  --      0.0005                 0.0085                 0.0080
 IR Inten    --      0.0265                 0.2255                 3.5260

                      4                      5                      6
                      A                      A                      A
 Frequencies --    109.6257               128.6227               186.9778
 Red. masses --      3.9960                 4.0345                 3.6978
 Frc consts  --      0.0283                 0.0393                 0.0762
 IR Inten    --      0.5779                 4.4659                 3.9289

                      7                      8                      9
                      A                      A                      A
 Frequencies --    291.1702               300.9284               321.8088
 Red. masses --      2.2930                 1.4863                 3.4941
 Frc consts  --      0.1145                 0.0793                 0.2132
 IR Inten    --     28.3998                57.5245                 6.2530

                     10                     11                     12
                      A                      A                      A
 Frequencies --    339.3346               384.4265               419.5399
 Red. masses --      2.6075                 4.6494                 4.2838
 Frc consts  --      0.1769                 0.4048                 0.4442
 IR Inten    --     18.6613                 9.4672                 3.5373

                     13                     14                     15
                      A                      A                      A
 Frequencies --    532.5209               569.5233               665.1424
 Red. masses --      6.1050                 5.4714                 3.5098
 Frc consts  --      1.0200                 1.0456                 0.9149
 IR Inten    --      2.2310                 5.6364                12.8731

                     16                     17                     18
                      A                      A                      A
 Frequencies --    767.3976               816.0035               913.1070
 Red. masses --      1.8339                 1.9050                 2.0516
 Frc consts  --      0.6363                 0.7474                 1.0078
 IR Inten    --      7.3194                16.1149                13.1807

                     19                     20                     21
                      A                      A                      A
 Frequencies --    940.0973              1031.6825              1040.9484
 Red. masses --      3.7462                 1.9168                 3.3266
 Frc consts  --      1.9507                 1.2021                 2.1238
 IR Inten    --     15.6529                39.7956                13.4544

                     22                     23                     24
                      A                      A                      A
 Frequencies --   1051.0124              1054.8849              1069.0500
 Red. masses --      1.4096                 1.4587                 2.6863
 Frc consts  --      0.9174                 0.9564                 1.8088
 IR Inten    --      0.6823                 0.4929                41.8870

                     25                     26                     27
                      A                      A                      A
 Frequencies --   1082.0303              1132.9708              1160.7440
 Red. masses --      3.6443                 1.2565                 1.2727
 Frc consts  --      2.5139                 0.9502                 1.0103
 IR Inten    --     67.0612                 1.2407                 4.2958

                     28                     29                     30
                      A                      A                      A
 Frequencies --   1172.8012              1276.1681              1291.0397
 Red. masses --      1.3036                 1.9682                 1.7230
 Frc consts  --      1.0564                 1.8886                 1.6920
 IR Inten    --      2.1588                14.5768                29.1257

                     31                     32                     33
                      A                      A                      A
 Frequencies --   1326.0791              1381.6734              1400.7709
 Red. masses --      1.4799                 2.4818                 1.3231
 Frc consts  --      1.5333                 2.7915                 1.5295
 IR Inten    --      5.1875                17.2921                15.9264

                     34                     35                     36
                      A                      A                      A
 Frequencies --   1414.0277              1419.4770              1470.1209
 Red. masses --      1.2582                 1.3228                 1.0921
 Frc consts  --      1.4822                 1.5704                 1.3906
 IR Inten    --      7.6853                32.7283                 3.3338

                     37                     38                     39
                      A                      A                      A
 Frequencies --   1476.1009              1477.3745              1514.2444
 Red. masses --      1.0395                 1.0397                 1.0878
 Frc consts  --      1.3345                 1.3370                 1.4696
 IR Inten    --      5.8605                 6.0098                 1.1406

                     40                     41                     42
                      A                      A                      A
 Frequencies --   1519.9235              2367.0644              3001.4529
 Red. masses --      1.2284                11.8933                 1.0684
 Frc consts  --      1.6719                39.2621                 5.6708
 IR Inten    --      1.3371                13.7675                40.8654

                     43                     44                     45
                      A                      A                      A
 Frequencies --   3024.1385              3029.1128              3079.0135
 Red. masses --      1.0642                 1.0347                 1.0569
 Frc consts  --      5.7342                 5.5938                 5.9034
 IR Inten    --     20.7924                27.1988                16.7774

                     46                     47                     48
                      A                      A                      A
 Frequencies --   3081.8338              3090.5140              3092.5779
 Red. masses --      1.0847                 1.1003                 1.1001
 Frc consts  --      6.0698                 6.1920                 6.1989
 IR Inten    --     18.3861                 8.6907                 7.4026

                     49                     50                     51
                      A                      A                      A
 Frequencies --   3099.4159              3172.0534              3815.5564
 Red. masses --      1.1007                 1.1196                 1.0662
 Frc consts  --      6.2301                 6.6374                 9.1452
 IR Inten    --     34.6562                22.1144                15.8947

 - Thermochemistry -
 -------------------
 Temperature   298.150 Kelvin.  Pressure   1.00000 Atm.
 Atom     1 has atomic number  6 and mass  12.00000

 Molecular mass:   126.06808 amu.
 Principal axes and moments of inertia in atomic units:
                           1         2         3
     Eigenvalues --   957.901511770.804122513.46569
           X            0.99914  -0.04083   0.00671
           Y            0.04095   0.99899  -0.01865
           Z           -0.00594   0.01890   0.99980
 This molecule is an asymmetric top.
 Rotational symmetry number  1.
 Warning -- assumption of classical behavior for rotation
           may cause significant error
 Rotational temperatures (Kelvin)      0.09042     0.04891     0.03446
 Rotational constants (GHZ):           1.88406     1.01916     0.71803
 Zero-point vibrational energy     409557.8 (Joules/Mol)
                                   97.88667 (Kcal/Mol)
 Warning -- explicit consideration of  14 degrees of freedom as
           vibrations may cause significant error
 Vibrational temperatures:     39.76    82.45   123.30   157.73   185.06
          (Kelvin)            269.02   418.93   432.97   463.01   488.23
                              553.10   603.62   766.18   819.42   956.99
                             1104.11  1174.05  1313.76  1352.59  1484.36
                             1497.69  1512.17  1517.74  1538.12  1556.80
                             1630.09  1670.05  1687.40  1836.12  1857.52
                             1907.93  1987.92  2015.39  2034.47  2042.31
                             2115.17  2123.78  2125.61  2178.66  2186.83
                             3405.67  4318.42  4351.06  4358.21  4430.01
                             4434.07  4446.55  4449.52  4459.36  4563.87
                             5489.73

 Zero-point correction=                           0.155992 (Hartree/Particle)
 Thermal correction to Energy=                    0.166596
 Thermal correction to Enthalpy=                  0.167540
 Thermal correction to Gibbs Free Energy=         0.118467
 Sum of electronic and zero-point Energies=           -422.973894
 Sum of electronic and thermal Energies=              -422.963291
 Sum of electronic and thermal Enthalpies=            -422.962346
 Sum of electronic and thermal Free Energies=         -423.011419

                     E (Thermal)             CV                S
                      KCal/Mol        Cal/Mol-Kelvin    Cal/Mol-Kelvin
 Total                  104.540             36.451            103.283
 Electronic               0.000              0.000              0.000
 Translational            0.889              2.981             40.409
 Rotational               0.889              2.981             29.834
 Vibrational            102.763             30.490             33.040
 Vibration     1          0.593              1.984              5.992
 Vibration     2          0.596              1.975              4.548
 Vibration     3          0.601              1.959              3.756
 Vibration     4          0.606              1.942              3.276
 Vibration     5          0.611              1.925              2.967
 Vibration     6          0.632              1.858              2.258
 Vibration     7          0.687              1.690              1.467
 Vibration     8          0.693              1.672              1.412
 Vibration     9          0.707              1.632              1.301
 Vibration    10          0.719              1.597              1.215
 Vibration    11          0.753              1.503              1.022
 Vibration    12          0.782              1.428              0.894
 Vibration    13          0.887              1.178              0.582
 Vibration    14          0.926              1.097              0.505

 Optimization completed on the basis of negligible forces.
    -- Stationary point found.
 Normal termination of Gaussian 09 at Tue Jan 28 12:47:35 2020.
