 Gaussian 09, Revision D.01,
 Gaussian 09:  ES64L-G09RevD.01 24-Apr-2013

 -----------------------------
 # b3lyp 6-31G(2df,p) opt Freq
 -----------------------------

 -----
 titel
 -----
 Symbolic Z-matrix:
 Charge =  0 Multiplicity = 1

 SCF Done:  E(RB3LYP) =  -423.158063070     A.U. after   14 cycles
 Optimization completed.
    -- Stationary point found.
 Normal termination of Gaussian 09 at Mon Jan 27 12:55:45 2020.

 ----------------------------------------------------------------------
 #N Geom=AllCheck Guess=TCheck SCRF=Check GenChk RB3LYP/6-31G(2df,p) Fr
 eq
 ----------------------------------------------------------------------

 Structure from the checkpoint file:  "/scratch/puck/g09_82e78cb8-bcbc-4a74-bc44-a0298c3f2888/Gau-50567.chk"
 -----
 titel
 -----
 Charge =  0 Multiplicity = 1

                         Standard orientation:
 ---------------------------------------------------------------------
 Center     Atomic      Atomic             Coordinates (Angstroms)
 Number     Number       Type             X           Y           Z
 ---------------------------------------------------------------------
      1          8           0       -0.279385    1.975438    0.049727
      2          6           0       -0.581356    0.826647   -0.184790
      3          6           0        0.407624   -0.173985   -0.773154
      4          6           0        1.482709   -0.562381    0.231117
      5          6           0        2.883540   -0.865129   -0.240747
      6          6           0        2.603878    0.392550    0.544734
      7          6           0       -1.979957    0.361915    0.129100
      8          6           0       -2.233655   -0.943975    0.773827
      9          8           0       -2.506039   -0.749986   -0.603753
     10          1           0       -0.119426   -1.055898   -1.147672
     11          1           0        0.878029    0.322895   -1.628507
     12          1           0        1.124617   -1.163597    1.063118
     13          1           0        3.425957   -1.668932    0.244604
     14          1           0        3.090463   -0.769241   -1.301583
     15          1           0        2.958567    0.450416    1.567599
     16          1           0        2.610850    1.340450    0.019450
     17          1           0       -2.677815    1.176835    0.312287
     18          1           0       -1.401714   -1.608386    1.000479
     19          1           0       -3.102825   -1.042012    1.421906
 ---------------------------------------------------------------------

 SCF Done:  E(RB3LYP) =  -423.158063070     A.U. after    1 cycles

 The electronic state is 1-A.
 Alpha  occ. eigenvalues --  -19.17461 -19.13417 -10.27328 -10.25615 -10.25168
 Alpha  occ. eigenvalues --  -10.20064 -10.19325 -10.18740 -10.18386  -1.09473
 Alpha  occ. eigenvalues --   -1.04347  -0.86149  -0.75431  -0.69993  -0.66482
 Alpha  occ. eigenvalues --   -0.60079  -0.58560  -0.55585  -0.51080  -0.49427
 Alpha  occ. eigenvalues --   -0.49002  -0.46592  -0.43770  -0.42562  -0.40843
 Alpha  occ. eigenvalues --   -0.39455  -0.38482  -0.36385  -0.35217  -0.32105
 Alpha  occ. eigenvalues --   -0.30335  -0.29567  -0.28755  -0.24326
 Alpha virt. eigenvalues --   -0.03171   0.07666   0.09613   0.10286   0.11371
 Alpha virt. eigenvalues --    0.12513   0.13106   0.14585   0.14839   0.15556
 Alpha virt. eigenvalues --    0.16926   0.17743   0.19656   0.22598   0.22969

 Mulliken charges:
               1
     1  O   -0.310856
     2  C    0.373378
     3  C   -0.341950
     4  C    0.030522
     5  C   -0.277577
     6  C   -0.243970
     7  C   -0.016117
     8  C   -0.178879
     9  O   -0.213693
    10  H    0.125789
    11  H    0.123951
    12  H    0.081947
    13  H    0.112714
    14  H    0.113645
    15  H    0.112407
    16  H    0.129996
    17  H    0.116832
    18  H    0.128546
    19  H    0.133314
 Sum of Mulliken charges =   0.00000

 Dipole moment (field-independent basis, Debye):
    X=              0.0864    Y=             -1.9666    Z=              1.0957  Tot=              2.2529
 Quadrupole moment (field-independent basis, Debye-Ang):
   XX=            -52.0770   YY=            -57.9826   ZZ=            -51.3124
   XY=             -1.3673   XZ=             -4.1645   YZ=             -3.1383

  Exact polarizability:  89.331   1.254  76.262  -3.514  -1.522  63.223
 Approx polarizability: 110.672   7.224 124.716  -1.756   0.463  98.586

                      1                      2                      3
                      A                      A                      A
 Frequencies --     31.5908                65.4969                85.9726
 Red. masses --      3.1485                 3.2621                 3.6695
 Frc consts  --      0.0019                 0.0082                 0.0160
 IR Inten    --      0.7094                 1.6090                 4.4149

                      4                      5                      6
                      A                      A                      A
 Frequencies --    160.0719               205.3352               268.3462
 Red. masses --      3.8396                 4.1865                 3.4049
 Frc consts  --      0.0580                 0.1040                 0.1445
 IR Inten    --      2.7756                 6.0768                 4.1828

                      7                      8                      9
                      A                      A                      A
 Frequencies --    347.2130               365.1622               490.8624
 Red. masses --      3.1651                 2.3530                 6.1179
 Frc consts  --      0.2248                 0.1849                 0.8685
 IR Inten    --      0.1867                 7.5529                 6.8877

                     10                     11                     12
                      A                      A                      A
 Frequencies --    500.5897               672.6395               772.6945
 Red. masses --      2.5524                 3.7601                 1.1447
 Frc consts  --      0.3768                 1.0023                 0.4027
 IR Inten    --      9.3839                 2.3734                 0.8042

                     13                     14                     15
                      A                      A                      A
 Frequencies --    780.3394               808.9016               839.9485
 Red. masses --      2.1112                 1.6408                 2.0258
 Frc consts  --      0.7574                 0.6326                 0.8421
 IR Inten    --      2.1556                 8.3246                11.0502

                     16                     17                     18
                      A                      A                      A
 Frequencies --    870.5234               898.9635               908.3035
 Red. masses --      4.4538                 2.4137                 2.8718
 Frc consts  --      1.9886                 1.1493                 1.3959
 IR Inten    --     16.6654                16.3830                14.9968

                     19                     20                     21
                      A                      A                      A
 Frequencies --    954.6832               971.2200              1002.4150
 Red. masses --      1.8233                 2.4173                 2.3272
 Frc consts  --      0.9791                 1.3434                 1.3778
 IR Inten    --     36.2764                 4.0332                 0.7966

                     22                     23                     24
                      A                      A                      A
 Frequencies --   1059.5031              1076.9320              1093.4043
 Red. masses --      1.3759                 1.3439                 1.2056
 Frc consts  --      0.9100                 0.9183                 0.8492
 IR Inten    --      7.3005                 1.3153                 3.2209

                     25                     26                     27
                      A                      A                      A
 Frequencies --   1118.4296              1137.3701              1152.0374
 Red. masses --      1.3779                 1.2332                 1.3754
 Frc consts  --      1.0155                 0.9399                 1.0755
 IR Inten    --      1.8304                 0.8334                 1.8895

                     28                     29                     30
                      A                      A                      A
 Frequencies --   1168.2565              1195.2034              1207.8249
 Red. masses --      1.3347                 1.3975                 2.1062
 Frc consts  --      1.0733                 1.1762                 1.8104
 IR Inten    --      0.6516                 0.5842                22.5654

                     31                     32                     33
                      A                      A                      A
 Frequencies --   1232.5243              1260.9955              1263.0828
 Red. masses --      1.9126                 1.5837                 1.3382
 Frc consts  --      1.7119                 1.4837                 1.2579
 IR Inten    --      7.4391                 3.3700                23.6032

                     34                     35                     36
                      A                      A                      A
 Frequencies --   1334.7684              1386.5609              1402.1793
 Red. masses --      1.7338                 2.3865                 1.5517
 Frc consts  --      1.8200                 2.7033                 1.7975
 IR Inten    --     46.1836                12.7532                 4.6840

                     37                     38                     39
                      A                      A                      A
 Frequencies --   1470.5736              1482.1076              1507.8847
 Red. masses --      1.0860                 1.1124                 1.3363
 Frc consts  --      1.3837                 1.4396                 1.7901
 IR Inten    --      2.9262                 6.4968                 2.9781

                     40                     41                     42
                      A                      A                      A
 Frequencies --   1521.5378              1799.0967              3049.8840
 Red. masses --      1.2162                11.4649                 1.0599
 Frc consts  --      1.6588                21.8639                 5.8088
 IR Inten    --      1.7149               132.5988                 6.8906

                     43                     44                     45
                      A                      A                      A
 Frequencies --   3091.0865              3101.6882              3131.5572
 Red. masses --      1.0493                 1.1005                 1.0571
 Frc consts  --      5.9068                 6.2377                 6.1078
 IR Inten    --     18.6828                 4.9951                21.1754

                     46                     47                     48
                      A                      A                      A
 Frequencies --   3134.4946              3140.4639              3144.2529
 Red. masses --      1.0818                 1.0900                 1.0599
 Frc consts  --      6.2625                 6.3337                 6.1739
 IR Inten    --     20.2161                10.1289                 6.5984

                     49                     50                     51
                      A                      A                      A
 Frequencies --   3181.5151              3212.1467              3230.7438
 Red. masses --      1.1196                 1.1175                 1.1155
 Frc consts  --      6.6767                 6.7932                 6.8597
 IR Inten    --     22.1463                 3.6755                13.5988

 - Thermochemistry -
 -------------------
 Temperature   298.150 Kelvin.  Pressure   1.00000 Atm.
 Atom     1 has atomic number  8 and mass  15.99491

 Molecular mass:   126.06808 amu.
 Principal axes and moments of inertia in atomic units:
                           1         2         3
     Eigenvalues --   564.326571850.378112142.30449
           X            0.99992  -0.00594  -0.01146
           Y            0.00566   0.99970  -0.02394
           Z            0.01160   0.02387   0.99965
 This molecule is an asymmetric top.
 Rotational symmetry number  1.
 Warning -- assumption of classical behavior for rotation
           may cause significant error
 Rotational temperatures (Kelvin)      0.15348     0.04681     0.04043
 Rotational constants (GHZ):           3.19804     0.97534     0.84243
 Zero-point vibrational energy     414442.5 (Joules/Mol)
                                   99.05414 (Kcal/Mol)
 Warning -- explicit consideration of  10 degrees of freedom as
           vibrations may cause significant error
 Vibrational temperatures:     45.45    94.24   123.70   230.31   295.43
          (Kelvin)            386.09   499.56   525.39   706.24   720.24
                              967.78  1111.73  1122.73  1163.83  1208.50
                             1252.49  1293.41  1306.84  1373.57  1397.37
                             1442.25  1524.39  1549.46  1573.16  1609.17
                             1636.42  1657.52  1680.86  1719.63  1737.79
                             1773.33  1814.29  1817.29  1920.43  1994.95
                             2017.42  2115.82  2132.42  2169.51  2189.15
                             2588.50  4388.10  4447.38  4462.63  4505.61
                             4509.83  4518.42  4523.87  4577.48  4621.56
                             4648.31

 Zero-point correction=                           0.157853 (Hartree/Particle)
 Thermal correction to Energy=                    0.166941
 Thermal correction to Enthalpy=                  0.167885
 Thermal correction to Gibbs Free Energy=         0.122347
 Sum of electronic and zero-point Energies=           -423.000210
 Sum of electronic and thermal Energies=              -422.991122
 Sum of electronic and thermal Enthalpies=            -422.990178
 Sum of electronic and thermal Free Energies=         -423.035716

                     E (Thermal)             CV                S
                      KCal/Mol        Cal/Mol-Kelvin    Cal/Mol-Kelvin
 Total                  104.757             32.694             95.844
 Electronic               0.000              0.000              0.000
 Translational            0.889              2.981             40.409
 Rotational               0.889              2.981             29.194
 Vibrational            102.980             26.733             26.242
 Vibration     1          0.594              1.983              5.727
 Vibration     2          0.597              1.971              4.284
 Vibration     3          0.601              1.959              3.750
 Vibration     4          0.622              1.891              2.549
 Vibration     5          0.640              1.832              2.085
 Vibration     6          0.673              1.731              1.607
 Vibration     7          0.725              1.581              1.179
 Vibration     8          0.738              1.544              1.100
 Vibration     9          0.847              1.270              0.681
 Vibration    10          0.856              1.249              0.657

 Optimization completed.
    -- Stationary point found.
 Normal termination of Gaussian 09 at Mon Jan 27 13:31:23 2020.
