 Gaussian 09, Revision D.01,
 Gaussian 09:  ES64L-G09RevD.01 24-Apr-2013

 -----------------------------
 # b3lyp 6-31G(2df,p) opt Freq
 -----------------------------

 -----
 titel
 -----
 Symbolic Z-matrix:
 Charge =  0 Multiplicity = 1

 SCF Done:  E(RB3LYP) =  -423.157239043     A.U. after   12 cycles
 SCF Done:  E(RB3LYP) =  -423.157238711     A.U. after    6 cycles
 Optimization completed.
    -- Stationary point found.
 Normal termination of Gaussian 09 at Mon Jan 27 18:11:02 2020.

 ----------------------------------------------------------------------
 #N Geom=AllCheck Guess=TCheck SCRF=Check GenChk RB3LYP/6-31G(2df,p) Fr
 eq
 ----------------------------------------------------------------------

 Structure from the checkpoint file:  "/scratch/puck/g09_deebc55e-e021-44fb-9cb8-6bcee474b4b7/Gau-16781.chk"
 -----
 titel
 -----
 Charge =  0 Multiplicity = 1

                         Standard orientation:
 ---------------------------------------------------------------------
 Center     Atomic      Atomic             Coordinates (Angstroms)
 Number     Number       Type             X           Y           Z
 ---------------------------------------------------------------------
      1          8           0       -1.495073    1.473773   -0.400787
      2          6           0       -0.799814    0.362131    0.089016
      3          6           0       -1.462059   -0.610365    1.025243
      4          6           0       -1.129656   -1.013507   -0.405551
      5          6           0        0.177169   -1.751453   -0.728935
      6          6           0        1.320428   -0.773178   -0.444613
      7          6           0        1.574729   -0.317971    0.986391
      8          6           0        0.728059    0.519768    0.088854
      9          8           0        1.190198    1.793020   -0.225148
     10          1           0       -1.547810    2.122238    0.311275
     11          1           0       -0.914024   -1.031162    1.860916
     12          1           0       -2.515315   -0.438399    1.223772
     13          1           0       -1.977021   -1.158202   -1.066380
     14          1           0        0.273678   -2.687393   -0.165598
     15          1           0        0.183281   -2.020900   -1.790390
     16          1           0        2.170767   -0.758647   -1.117313
     17          1           0        1.143093   -0.857462    1.822856
     18          1           0        2.567704    0.074999    1.179732
     19          1           0        0.601517    2.128042   -0.913813
 ---------------------------------------------------------------------

 SCF Done:  E(RB3LYP) =  -423.157238711     A.U. after    1 cycles

 The electronic state is 1-A.
 Alpha  occ. eigenvalues --  -19.15522 -19.13841 -10.23855 -10.23371 -10.18772
 Alpha  occ. eigenvalues --  -10.18557 -10.18548 -10.18044 -10.17922  -1.04652
 Alpha  occ. eigenvalues --   -1.01737  -0.88475  -0.81791  -0.71687  -0.63544
 Alpha  occ. eigenvalues --   -0.58773  -0.56915  -0.55964  -0.54339  -0.49192
 Alpha  occ. eigenvalues --   -0.46488  -0.44667  -0.42115  -0.41783  -0.40598
 Alpha  occ. eigenvalues --   -0.39092  -0.37151  -0.33291  -0.32872  -0.32474
 Alpha  occ. eigenvalues --   -0.29830  -0.27553  -0.26021  -0.22598
 Alpha virt. eigenvalues --    0.06782   0.09042   0.09486   0.11532   0.12578
 Alpha virt. eigenvalues --    0.12883   0.14799   0.16236   0.17012   0.17566
 Alpha virt. eigenvalues --    0.19800   0.20271   0.20555   0.23289   0.23829

 Mulliken charges:
               1
     1  O   -0.469099
     2  C    0.311581
     3  C   -0.363045
     4  C   -0.076285
     5  C   -0.254700
     6  C   -0.109984
     7  C   -0.348703
     8  C    0.363819
     9  O   -0.474198
    10  H    0.288661
    11  H    0.113984
    12  H    0.112527
    13  H    0.096295
    14  H    0.103080
    15  H    0.106192
    16  H    0.089902
    17  H    0.108528
    18  H    0.119608
    19  H    0.281835
 Sum of Mulliken charges =   0.00000

 Dipole moment (field-independent basis, Debye):
    X=             -0.8651    Y=             -0.3766    Z=              0.3600  Tot=              1.0099
 Quadrupole moment (field-independent basis, Debye-Ang):
   XX=            -54.3199   YY=            -51.9988   ZZ=            -51.2692
   XY=             -2.7706   XZ=             -2.1430   YZ=              0.7175

  Exact polarizability:  76.841  -0.666  75.794  -0.455   1.261  68.880
 Approx polarizability: 105.232  -1.230 112.462   0.558   0.844 107.298

                      1                      2                      3
                      A                      A                      A
 Frequencies --    150.9854               216.5520               244.2018
 Red. masses --      4.7954                 1.2556                 1.7273
 Frc consts  --      0.0644                 0.0347                 0.0607
 IR Inten    --      2.7156               141.2507                57.0696

                      4                      5                      6
                      A                      A                      A
 Frequencies --    297.2160               344.1921               378.5027
 Red. masses --      3.3407                 3.4057                 2.6263
 Frc consts  --      0.1739                 0.2377                 0.2217
 IR Inten    --      1.1907                 5.3321                 0.5988

                      7                      8                      9
                      A                      A                      A
 Frequencies --    432.7674               448.3222               462.0869
 Red. masses --      2.6327                 2.1770                 4.4044
 Frc consts  --      0.2905                 0.2578                 0.5541
 IR Inten    --      5.9686                 9.0037                 6.3020

                     10                     11                     12
                      A                      A                      A
 Frequencies --    505.7176               596.5462               610.4522
 Red. masses --      1.2288                 3.4692                 4.0476
 Frc consts  --      0.1852                 0.7274                 0.8887
 IR Inten    --     17.2789                12.7630                 5.9376

                     13                     14                     15
                      A                      A                      A
 Frequencies --    668.3397               795.3654               819.0862
 Red. masses --      3.8935                 2.8560                 2.8694
 Frc consts  --      1.0247                 1.0645                 1.1342
 IR Inten    --      2.8500                 2.0274                 0.5793

                     16                     17                     18
                      A                      A                      A
 Frequencies --    835.4102               855.0655               913.4513
 Red. masses --      1.4885                 1.5646                 1.6678
 Frc consts  --      0.6121                 0.6740                 0.8199
 IR Inten    --      2.7906                 3.3347                11.6882

                     19                     20                     21
                      A                      A                      A
 Frequencies --    923.5006               950.0200               961.3291
 Red. masses --      1.9431                 2.3613                 2.6363
 Frc consts  --      0.9764                 1.2556                 1.4354
 IR Inten    --     11.1765                21.1364                 5.1326

                     22                     23                     24
                      A                      A                      A
 Frequencies --   1027.4724              1033.8910              1048.9206
 Red. masses --      1.4216                 1.7049                 1.4548
 Frc consts  --      0.8842                 1.0738                 0.9431
 IR Inten    --      3.3513                 9.9388                 0.6656

                     25                     26                     27
                      A                      A                      A
 Frequencies --   1062.2208              1084.3629              1089.6949
 Red. masses --      1.2999                 1.9825                 1.7368
 Frc consts  --      0.8642                 1.3734                 1.2151
 IR Inten    --      2.0476                 1.1644                10.4691

                     28                     29                     30
                      A                      A                      A
 Frequencies --   1119.5110              1162.4711              1223.2612
 Red. masses --      1.7795                 2.4280                 1.2201
 Frc consts  --      1.3140                 1.9331                 1.0757
 IR Inten    --      9.2162                10.8988                 4.7746

                     31                     32                     33
                      A                      A                      A
 Frequencies --   1238.9460              1251.3101              1286.9059
 Red. masses --      1.7211                 1.9386                 2.1047
 Frc consts  --      1.5566                 1.7884                 2.0537
 IR Inten    --     86.5248                90.4194                22.1271

                     34                     35                     36
                      A                      A                      A
 Frequencies --   1313.9693              1329.7822              1364.0539
 Red. masses --      1.9313                 1.4500                 1.9424
 Frc consts  --      1.9646                 1.5107                 2.1293
 IR Inten    --      6.6428                 9.9583               116.0814

                     37                     38                     39
                      A                      A                      A
 Frequencies --   1400.8702              1429.3085              1484.9156
 Red. masses --      1.8178                 1.5068                 1.2239
 Frc consts  --      2.1018                 1.8137                 1.5899
 IR Inten    --      2.4907                20.7838                 2.5879

                     40                     41                     42
                      A                      A                      A
 Frequencies --   1489.9140              1504.0542              3031.5319
 Red. masses --      1.6014                 1.2713                 1.0621
 Frc consts  --      2.0944                 1.6945                 5.7509
 IR Inten    --      8.3221                11.7538                46.1457

                     43                     44                     45
                      A                      A                      A
 Frequencies --   3070.4024              3124.0233              3131.5539
 Red. masses --      1.1013                 1.0544                 1.0540
 Frc consts  --      6.1171                 6.0629                 6.0901
 IR Inten    --     18.8622                 4.3161                21.0600

                     46                     47                     48
                      A                      A                      A
 Frequencies --   3170.8505              3173.6839              3209.3692
 Red. masses --      1.0908                 1.0916                 1.1157
 Frc consts  --      6.4618                 6.4781                 6.7710
 IR Inten    --     12.0119                 7.4883                12.0331

                     49                     50                     51
                      A                      A                      A
 Frequencies --   3215.8878              3770.0524              3786.4480
 Red. masses --      1.1145                 1.0649                 1.0660
 Frc consts  --      6.7909                 8.9177                 9.0045
 IR Inten    --      8.9472                38.1167                24.7427

 - Thermochemistry -
 -------------------
 Temperature   298.150 Kelvin.  Pressure   1.00000 Atm.
 Atom     1 has atomic number  8 and mass  15.99491

 Molecular mass:   126.06808 amu.
 Principal axes and moments of inertia in atomic units:
                           1         2         3
     Eigenvalues --   828.68147 879.337091315.92114
           X            0.99640  -0.08422  -0.01016
           Y            0.08429   0.99641   0.00722
           Z            0.00951  -0.00805   0.99992
 This molecule is an asymmetric top.
 Rotational symmetry number  1.
 Warning -- assumption of classical behavior for rotation
           may cause significant error
 Rotational temperatures (Kelvin)      0.10452     0.09850     0.06582
 Rotational constants (GHZ):           2.17785     2.05239     1.37147
 Zero-point vibrational energy     418924.8 (Joules/Mol)
                                  100.12542 (Kcal/Mol)
 Warning -- explicit consideration of  12 degrees of freedom as
           vibrations may cause significant error
 Vibrational temperatures:    217.23   311.57   351.35   427.63   495.22
          (Kelvin)            544.58   622.65   645.03   664.84   727.61
                              858.30   878.30   961.59  1144.35  1178.48
                             1201.97  1230.25  1314.25  1328.71  1366.87
                             1383.14  1478.30  1487.54  1509.16  1528.30
                             1560.15  1567.83  1610.72  1672.53  1760.00
                             1782.56  1800.35  1851.57  1890.51  1913.26
                             1962.57  2015.54  2056.45  2136.46  2143.65
                             2164.00  4361.69  4417.62  4494.77  4505.60
                             4562.14  4566.22  4617.56  4626.94  5424.26
                             5447.85

 Zero-point correction=                           0.159560 (Hartree/Particle)
 Thermal correction to Energy=                    0.167453
 Thermal correction to Enthalpy=                  0.168397
 Thermal correction to Gibbs Free Energy=         0.127916
 Sum of electronic and zero-point Energies=           -422.997679
 Sum of electronic and thermal Energies=              -422.989786
 Sum of electronic and thermal Enthalpies=            -422.988841
 Sum of electronic and thermal Free Energies=         -423.029323

                     E (Thermal)             CV                S
                      KCal/Mol        Cal/Mol-Kelvin    Cal/Mol-Kelvin
 Total                  105.078             32.686             85.200
 Electronic               0.000              0.000              0.000
 Translational            0.889              2.981             40.409
 Rotational               0.889              2.981             28.352
 Vibrational            103.301             26.724             16.440
 Vibration     1          0.618              1.902              2.660
 Vibration     2          0.645              1.816              1.988
 Vibration     3          0.660              1.772              1.772
 Vibration     4          0.691              1.679              1.433
 Vibration     5          0.723              1.587              1.193
 Vibration     6          0.749              1.516              1.045
 Vibration     7          0.794              1.399              0.850
 Vibration     8          0.807              1.365              0.801
 Vibration     9          0.820              1.334              0.760
 Vibration    10          0.861              1.237              0.644
 Vibration    11          0.954              1.039              0.456
 Vibration    12          0.970              1.010              0.432

 Optimization completed.
    -- Stationary point found.
 Normal termination of Gaussian 09 at Mon Jan 27 20:04:11 2020.
