 Gaussian 09, Revision D.01,
 Gaussian 09:  ES64L-G09RevD.01 24-Apr-2013

 -----------------------------
 # b3lyp 6-31G(2df,p) opt Freq
 -----------------------------

 -----
 titel
 -----
 Symbolic Z-matrix:
 Charge =  0 Multiplicity = 1

 SCF Done:  E(RB3LYP) =  -423.116486425     A.U. after   14 cycles
 SCF Done:  E(RB3LYP) =  -423.116486343     A.U. after    6 cycles
 SCF Done:  E(RB3LYP) =  -423.116486461     A.U. after    7 cycles
 Optimization completed.
    -- Stationary point found.
 Normal termination of Gaussian 09 at Tue Jan 28 14:37:01 2020.

 ----------------------------------------------------------------------
 #N Geom=AllCheck Guess=TCheck SCRF=Check GenChk RB3LYP/6-31G(2df,p) Fr
 eq
 ----------------------------------------------------------------------

 Structure from the checkpoint file:  "/scratch/puck/g09_1896e29c-c8db-456f-80b8-ce646eadef4f/Gau-122070.chk"
 -----
 titel
 -----
 Charge =  0 Multiplicity = 1

                         Standard orientation:
 ---------------------------------------------------------------------
 Center     Atomic      Atomic             Coordinates (Angstroms)
 Number     Number       Type             X           Y           Z
 ---------------------------------------------------------------------
      1          8           0        3.054857   -0.531098   -0.086671
      2          6           0        2.502874    0.770486   -0.042563
      3          6           0        1.067202    0.754619    0.454776
      4          8           0        0.332902   -0.050760   -0.466967
      5          6           0       -0.996910   -0.293377   -0.102580
      6          6           0       -1.537471   -1.619523   -0.572667
      7          6           0       -1.251760   -1.414691    0.892729
      8          6           0       -1.858848    0.862582   -0.094647
      9          6           0       -2.559902    1.839910   -0.084497
     10          1           0        2.430106   -1.063140   -0.592502
     11          1           0        3.120484    1.360035    0.642800
     12          1           0        2.535697    1.256404   -1.030416
     13          1           0        1.017293    0.313169    1.460210
     14          1           0        0.650997    1.770657    0.495152
     15          1           0       -2.567453   -1.652999   -0.905865
     16          1           0       -0.844234   -2.227756   -1.142008
     17          1           0       -2.083857   -1.309800    1.578468
     18          1           0       -0.367711   -1.890509    1.301983
     19          1           0       -3.184505    2.698767   -0.082031
 ---------------------------------------------------------------------

 SCF Done:  E(RB3LYP) =  -423.116486461     A.U. after    1 cycles

 The electronic state is 1-A.
 Alpha  occ. eigenvalues --  -19.15886 -19.12843 -10.26838 -10.22890 -10.22575
 Alpha  occ. eigenvalues --  -10.20001 -10.19943 -10.18762 -10.18102  -1.05523
 Alpha  occ. eigenvalues --   -1.00967  -0.86809  -0.75222  -0.73992  -0.64156
 Alpha  occ. eigenvalues --   -0.62244  -0.60793  -0.54557  -0.51698  -0.50444
 Alpha  occ. eigenvalues --   -0.49688  -0.45781  -0.45012  -0.42659  -0.40962
 Alpha  occ. eigenvalues --   -0.38085  -0.37123  -0.34265  -0.32700  -0.31846
 Alpha  occ. eigenvalues --   -0.28001  -0.27621  -0.26411  -0.24854
 Alpha virt. eigenvalues --    0.03148   0.04432   0.08669   0.10625   0.11176
 Alpha virt. eigenvalues --    0.12312   0.12510   0.13188   0.15245   0.16089
 Alpha virt. eigenvalues --    0.16713   0.18727   0.19307   0.19605   0.21538

 Mulliken charges:
               1
     1  O   -0.422225
     2  C   -0.063042
     3  C   -0.090593
     4  O   -0.292202
     5  C    0.263142
     6  C   -0.313182
     7  C   -0.316178
     8  C    0.317376
     9  C   -0.503863
    10  H    0.287550
    11  H    0.110020
    12  H    0.096573
    13  H    0.099851
    14  H    0.105551
    15  H    0.131930
    16  H    0.128779
    17  H    0.130421
    18  H    0.129963
    19  H    0.200129
 Sum of Mulliken charges =   0.00000

 Dipole moment (field-independent basis, Debye):
    X=             -1.7357    Y=              0.2846    Z=              0.4154  Tot=              1.8072
 Quadrupole moment (field-independent basis, Debye-Ang):
   XX=            -57.4128   YY=            -48.0137   ZZ=            -53.3484
   XY=              1.2165   XZ=             -0.5462   YZ=              1.4356

  Exact polarizability:  87.029  -8.004  88.351   1.709   0.781  60.905
 Approx polarizability: 114.131 -20.680 133.935   2.120   1.615  92.636

                      1                      2                      3
                      A                      A                      A
 Frequencies --     37.9710                75.9339               136.0039
 Red. masses --      4.2718                 3.9764                 4.1065
 Frc consts  --      0.0036                 0.0135                 0.0448
 IR Inten    --      0.7013                 0.9969                 2.3784

                      4                      5                      6
                      A                      A                      A
 Frequencies --    162.8539               199.6121               226.0143
 Red. masses --      3.1344                 2.9530                 2.4422
 Frc consts  --      0.0490                 0.0693                 0.0735
 IR Inten    --      1.9584                 3.7354                 1.8410

                      7                      8                      9
                      A                      A                      A
 Frequencies --    301.6049               365.1762               405.8282
 Red. masses --      2.3610                 3.5079                 2.2491
 Frc consts  --      0.1265                 0.2756                 0.2182
 IR Inten    --      6.9164                 5.6546                35.2797

                     10                     11                     12
                      A                      A                      A
 Frequencies --    418.4227               506.5798               552.4961
 Red. masses --      1.3903                 2.8636                 5.6732
 Frc consts  --      0.1434                 0.4330                 1.0203
 IR Inten    --     90.6544                10.4222                14.2630

                     13                     14                     15
                      A                      A                      A
 Frequencies --    576.2436               594.7457               683.4589
 Red. masses --      2.4070                 1.5870                 1.2706
 Frc consts  --      0.4709                 0.3307                 0.3497
 IR Inten    --     16.6398                28.1459                33.8792

                     16                     17                     18
                      A                      A                      A
 Frequencies --    706.2650               775.6783               849.9606
 Red. masses --      3.4604                 1.0497                 1.7811
 Frc consts  --      1.0170                 0.3721                 0.7581
 IR Inten    --      0.4720                 0.1302                 9.7665

                     19                     20                     21
                      A                      A                      A
 Frequencies --    898.8594               909.3388               938.2645
 Red. masses --      2.6089                 2.0321                 1.6979
 Frc consts  --      1.2419                 0.9900                 0.8807
 IR Inten    --     13.3183                12.5218                 8.1890

                     22                     23                     24
                      A                      A                      A
 Frequencies --    961.7268               998.9997              1054.9300
 Red. masses --      2.8498                 2.6800                 1.4035
 Frc consts  --      1.5530                 1.5758                 0.9203
 IR Inten    --     15.3390                 5.3835                 9.3389

                     25                     26                     27
                      A                      A                      A
 Frequencies --   1078.1609              1083.8910              1104.4457
 Red. masses --      2.2649                 1.5131                 3.7059
 Frc consts  --      1.5512                 1.0474                 2.6634
 IR Inten    --     90.6033                18.4124                72.3492

                     28                     29                     30
                      A                      A                      A
 Frequencies --   1135.4720              1194.1723              1235.8960
 Red. masses --      2.0792                 1.2809                 1.2652
 Frc consts  --      1.5794                 1.0762                 1.1386
 IR Inten    --      5.7913                 0.0891                11.0357

                     31                     32                     33
                      A                      A                      A
 Frequencies --   1259.9875              1265.8376              1307.0380
 Red. masses --      1.5339                 1.9585                 3.2264
 Frc consts  --      1.4347                 1.8489                 3.2475
 IR Inten    --     67.5054               106.3466                14.4368

                     34                     35                     36
                      A                      A                      A
 Frequencies --   1387.6941              1405.3645              1437.3828
 Red. masses --      1.2319                 1.2893                 1.3587
 Frc consts  --      1.3977                 1.5003                 1.6539
 IR Inten    --      2.2711                13.7674                49.4622

                     37                     38                     39
                      A                      A                      A
 Frequencies --   1450.5127              1483.5241              1498.2929
 Red. masses --      1.0898                 1.3527                 1.0910
 Frc consts  --      1.3509                 1.7540                 1.4430
 IR Inten    --      2.5173                 5.8765                 2.0423

                     40                     41                     42
                      A                      A                      A
 Frequencies --   1507.5589              2231.6469              2985.6525
 Red. masses --      1.0903                 5.9886                 1.0703
 Frc consts  --      1.4600                17.5721                 5.6214
 IR Inten    --      6.3311                 3.4205                40.9779

                     43                     44                     45
                      A                      A                      A
 Frequencies --   3000.2049              3047.9529              3081.4134
 Red. masses --      1.0548                 1.1060                 1.0938
 Frc consts  --      5.5939                 6.0536                 6.1190
 IR Inten    --     28.1137                43.5306                34.0751

                     46                     47                     48
                      A                      A                      A
 Frequencies --   3142.4920              3147.5172              3231.4989
 Red. masses --      1.0513                 1.0567                 1.1195
 Frc consts  --      6.1169                 6.1676                 6.8878
 IR Inten    --      7.6431                 3.8783                 0.4312

                     49                     50                     51
                      A                      A                      A
 Frequencies --   3245.6604              3500.6655              3802.7866
 Red. masses --      1.1169                 1.1609                 1.0653
 Frc consts  --      6.9321                 8.3819                 9.0768
 IR Inten    --      6.2570                73.9878                23.7777

 - Thermochemistry -
 -------------------
 Temperature   298.150 Kelvin.  Pressure   1.00000 Atm.
 Atom     1 has atomic number  8 and mass  15.99491

 Molecular mass:   126.06808 amu.
 Principal axes and moments of inertia in atomic units:
                           1         2         3
     Eigenvalues --   654.234731769.650322206.01514
           X            0.99973   0.02308  -0.00091
           Y           -0.02307   0.99971   0.00664
           Z            0.00107  -0.00661   0.99998
 This molecule is an asymmetric top.
 Rotational symmetry number  1.
 Warning -- assumption of classical behavior for rotation
           may cause significant error
 Rotational temperatures (Kelvin)      0.13239     0.04894     0.03926
 Rotational constants (GHZ):           2.75855     1.01983     0.81810
 Zero-point vibrational energy     410257.5 (Joules/Mol)
                                   98.05388 (Kcal/Mol)
 Warning -- explicit consideration of  14 degrees of freedom as
           vibrations may cause significant error
 Vibrational temperatures:     54.63   109.25   195.68   234.31   287.20
          (Kelvin)            325.18   433.94   525.41   583.90   602.02
                              728.85   794.92   829.09   855.71   983.34
                             1016.16  1116.03  1222.90  1293.26  1308.33
                             1349.95  1383.71  1437.34  1517.81  1551.23
                             1559.48  1589.05  1633.69  1718.15  1778.18
                             1812.84  1821.26  1880.53  1996.58  2022.00
                             2068.07  2086.96  2134.46  2155.71  2169.04
                             3210.84  4295.68  4316.62  4385.32  4433.46
                             4521.34  4528.57  4649.40  4669.78  5036.67
                             5471.35

 Zero-point correction=                           0.156259 (Hartree/Particle)
 Thermal correction to Energy=                    0.166062
 Thermal correction to Enthalpy=                  0.167006
 Thermal correction to Gibbs Free Energy=         0.120819
 Sum of electronic and zero-point Energies=           -422.960228
 Sum of electronic and thermal Energies=              -422.950425
 Sum of electronic and thermal Enthalpies=            -422.949481
 Sum of electronic and thermal Free Energies=         -422.995667

                     E (Thermal)             CV                S
                      KCal/Mol        Cal/Mol-Kelvin    Cal/Mol-Kelvin
 Total                  104.205             36.075             97.208
 Electronic               0.000              0.000              0.000
 Translational            0.889              2.981             40.409
 Rotational               0.889              2.981             29.325
 Vibrational            102.428             30.114             27.474
 Vibration     1          0.594              1.982              5.362
 Vibration     2          0.599              1.965              3.993
 Vibration     3          0.614              1.917              2.859
 Vibration     4          0.623              1.888              2.516
 Vibration     5          0.638              1.840              2.137
 Vibration     6          0.650              1.801              1.910
 Vibration     7          0.694              1.671              1.408
 Vibration     8          0.738              1.544              1.100
 Vibration     9          0.771              1.458              0.941
 Vibration    10          0.781              1.430              0.897
 Vibration    11          0.862              1.235              0.642
 Vibration    12          0.908              1.134              0.539
 Vibration    13          0.933              1.083              0.492
 Vibration    14          0.952              1.043              0.459

 Optimization completed.
    -- Stationary point found.
 Normal termination of Gaussian 09 at Tue Jan 28 15:09:58 2020.
