 Gaussian 09, Revision D.01,
 Gaussian 09:  ES64L-G09RevD.01 24-Apr-2013

 -----------------------------
 # b3lyp 6-31G(2df,p) opt Freq
 -----------------------------

 -----
 titel
 -----
 Symbolic Z-matrix:
 Charge =  0 Multiplicity = 1

 SCF Done:  E(RB3LYP) =  -423.109245638     A.U. after   14 cycles
 Optimization completed.
    -- Stationary point found.
 Normal termination of Gaussian 09 at Tue Jan 28 08:20:33 2020.

 ----------------------------------------------------------------------
 #N Geom=AllCheck Guess=TCheck SCRF=Check GenChk RB3LYP/6-31G(2df,p) Fr
 eq
 ----------------------------------------------------------------------

 Structure from the checkpoint file:  "/scratch/puck/g09_e2a11853-9fd2-47a0-9605-72ace9face11/Gau-60017.chk"
 -----
 titel
 -----
 Charge =  0 Multiplicity = 1

                         Standard orientation:
 ---------------------------------------------------------------------
 Center     Atomic      Atomic             Coordinates (Angstroms)
 Number     Number       Type             X           Y           Z
 ---------------------------------------------------------------------
      1          6           0        2.392755   -1.488417    0.271221
      2          8           0        1.183574   -1.140296   -0.372849
      3          6           0        0.519948   -0.027793    0.201629
      4          6           0        1.275525    1.221651    0.058790
      5          6           0        1.898958    2.240104   -0.077704
      6          6           0       -0.838275    0.053583   -0.505511
      7          6           0       -1.830530   -1.087198   -0.207394
      8          6           0       -2.718163    0.034825    0.368826
      9          8           0       -1.703478    1.030849    0.103040
     10          1           0        2.225885   -1.744739    1.328887
     11          1           0        2.787274   -2.364127   -0.248743
     12          1           0        3.128235   -0.675077    0.220358
     13          1           0        0.335884   -0.208172    1.274959
     14          1           0        2.441491    3.146062   -0.192285
     15          1           0       -0.669485    0.261576   -1.568848
     16          1           0       -2.224078   -1.608795   -1.079847
     17          1           0       -1.470300   -1.820923    0.515515
     18          1           0       -3.640767    0.239087   -0.187665
     19          1           0       -2.956221   -0.029842    1.436987
 ---------------------------------------------------------------------

 SCF Done:  E(RB3LYP) =  -423.109245638     A.U. after    1 cycles

 The electronic state is 1-A.
 Alpha  occ. eigenvalues --  -19.14964 -19.13247 -10.25538 -10.23735 -10.23144
 Alpha  occ. eigenvalues --  -10.22594 -10.18911 -10.18150 -10.17763  -1.04622
 Alpha  occ. eigenvalues --   -1.03457  -0.78747  -0.74571  -0.72331  -0.67745
 Alpha  occ. eigenvalues --   -0.64167  -0.55957  -0.54007  -0.50591  -0.49570
 Alpha  occ. eigenvalues --   -0.49099  -0.47233  -0.44606  -0.42630  -0.41980
 Alpha  occ. eigenvalues --   -0.38368  -0.37463  -0.33434  -0.33021  -0.30662
 Alpha  occ. eigenvalues --   -0.27769  -0.27117  -0.26682  -0.24683
 Alpha virt. eigenvalues --    0.03046   0.04700   0.09856   0.10133   0.10803
 Alpha virt. eigenvalues --    0.11766   0.12715   0.13607   0.15395   0.16165
 Alpha virt. eigenvalues --    0.17046   0.17659   0.17888   0.18645   0.21925

 Mulliken charges:
               1
     1  C   -0.236990
     2  O   -0.238227
     3  C   -0.083041
     4  C    0.342720
     5  C   -0.460058
     6  C    0.142937
     7  C   -0.294481
     8  C   -0.063479
     9  O   -0.290180
    10  H    0.104556
    11  H    0.129097
    12  H    0.123817
    13  H    0.089909
    14  H    0.200046
    15  H    0.092230
    16  H    0.115097
    17  H    0.115590
    18  H    0.105052
    19  H    0.105404
 Sum of Mulliken charges =   0.00000

 Dipole moment (field-independent basis, Debye):
    X=              0.2068    Y=             -1.3411    Z=              0.5795  Tot=              1.4755
 Quadrupole moment (field-independent basis, Debye-Ang):
   XX=            -47.0097   YY=            -52.2898   ZZ=            -52.9006
   XY=              3.9479   XZ=              0.9268   YZ=             -1.9092

  Exact polarizability:  89.670   8.481  84.352  -2.019  -1.998  60.253
 Approx polarizability: 112.240  18.122 127.195  -4.015  -2.856  91.861

                      1                      2                      3
                      A                      A                      A
 Frequencies --     65.2098                75.0653               103.5251
 Red. masses --      3.5033                 2.4655                 2.4388
 Frc consts  --      0.0088                 0.0082                 0.0154
 IR Inten    --      0.8902                 2.3762                 2.2230

                      4                      5                      6
                      A                      A                      A
 Frequencies --    124.4054               171.6168               191.2864
 Red. masses --      3.9348                 2.2900                 1.8924
 Frc consts  --      0.0359                 0.0397                 0.0408
 IR Inten    --      2.3588                 1.2425                 1.2744

                      7                      8                      9
                      A                      A                      A
 Frequencies --    250.1292               326.8847               377.5380
 Red. masses --      2.3830                 3.3015                 6.2401
 Frc consts  --      0.0878                 0.2079                 0.5240
 IR Inten    --      4.5210                 1.0489                 1.8131

                     10                     11                     12
                      A                      A                      A
 Frequencies --    435.6843               506.2685               592.8494
 Red. masses --      3.3025                 4.9488                 6.0652
 Frc consts  --      0.3694                 0.7473                 1.2560
 IR Inten    --      1.9663                 8.5744                 7.8754

                     13                     14                     15
                      A                      A                      A
 Frequencies --    630.9245               673.6188               775.3105
 Red. masses --      1.2252                 1.2572                 1.2066
 Frc consts  --      0.2874                 0.3361                 0.4273
 IR Inten    --     42.6178                33.4804                 0.9068

                     16                     17                     18
                      A                      A                      A
 Frequencies --    831.4555               884.0813               938.7416
 Red. masses --      3.0469                 2.1777                 3.0770
 Frc consts  --      1.2411                 1.0029                 1.5976
 IR Inten    --      4.7708                 2.5172                18.2822

                     19                     20                     21
                      A                      A                      A
 Frequencies --    956.2685               984.8427              1026.3864
 Red. masses --      3.5797                 3.7540                 4.9267
 Frc consts  --      1.9286                 2.1452                 3.0579
 IR Inten    --     36.5917                24.5435                46.3492

                     22                     23                     24
                      A                      A                      A
 Frequencies --   1055.0959              1089.3804              1129.7079
 Red. masses --      4.9796                 2.4355                 3.8305
 Frc consts  --      3.2661                 1.7030                 2.8803
 IR Inten    --     68.4942                 1.2883               135.6570

                     25                     26                     27
                      A                      A                      A
 Frequencies --   1155.0423              1169.6885              1184.0849
 Red. masses --      2.0330                 1.5616                 1.2828
 Frc consts  --      1.5980                 1.2588                 1.0597
 IR Inten    --     42.0555                24.0854                 2.2838

                     28                     29                     30
                      A                      A                      A
 Frequencies --   1207.2075              1222.7279              1255.4677
 Red. masses --      1.2819                 1.4184                 1.5045
 Frc consts  --      1.1007                 1.2494                 1.3972
 IR Inten    --      5.5631                 7.4906                 6.1391

                     31                     32                     33
                      A                      A                      A
 Frequencies --   1277.6951              1293.3387              1345.6769
 Red. masses --      1.2827                 1.3593                 1.2172
 Frc consts  --      1.2338                 1.3396                 1.2986
 IR Inten    --      0.3817                13.3170                26.1111

                     34                     35                     36
                      A                      A                      A
 Frequencies --   1360.0470              1394.5485              1477.6027
 Red. masses --      1.3960                 1.5022                 1.1472
 Frc consts  --      1.5214                 1.7213                 1.4758
 IR Inten    --      1.5131                 6.4345                 0.9826

                     37                     38                     39
                      A                      A                      A
 Frequencies --   1485.2200              1493.2699              1510.7293
 Red. masses --      1.0476                 1.1040                 1.0528
 Frc consts  --      1.3615                 1.4504                 1.4157
 IR Inten    --      3.4021                 4.8407                 8.0916

                     40                     41                     42
                      A                      A                      A
 Frequencies --   1532.2166              2231.5014              2953.3858
 Red. masses --      1.1107                 5.8929                 1.0800
 Frc consts  --      1.5363                17.2891                 5.5504
 IR Inten    --      0.9359                 2.8202                26.3988

                     43                     44                     45
                      A                      A                      A
 Frequencies --   2985.0085              3019.9033              3038.3914
 Red. masses --      1.0416                 1.0557                 1.0858
 Frc consts  --      5.4683                 5.6724                 5.9058
 IR Inten    --     58.4878               101.8247                30.9291

                     46                     47                     48
                      A                      A                      A
 Frequencies --   3050.1230              3060.5202              3087.7982
 Red. masses --      1.0959                 1.1113                 1.0602
 Frc consts  --      6.0072                 6.1329                 5.9559
 IR Inten    --     36.4724                35.1982                19.9947

                     49                     50                     51
                      A                      A                      A
 Frequencies --   3122.7519              3143.1075              3502.3952
 Red. masses --      1.0987                 1.1083                 1.1626
 Frc consts  --      6.3128                 6.4509                 8.4028
 IR Inten    --     24.6293                22.0272                61.4627

 - Thermochemistry -
 -------------------
 Temperature   298.150 Kelvin.  Pressure   1.00000 Atm.
 Atom     1 has atomic number  6 and mass  12.00000

 Molecular mass:   126.06808 amu.
 Principal axes and moments of inertia in atomic units:
                           1         2         3
     Eigenvalues --   715.979861493.068362075.96446
           X            0.99998   0.00156   0.00530
           Y           -0.00147   0.99988  -0.01521
           Z           -0.00532   0.01520   0.99987
 This molecule is an asymmetric top.
 Rotational symmetry number  1.
 Warning -- assumption of classical behavior for rotation
           may cause significant error
 Rotational temperatures (Kelvin)      0.12097     0.05801     0.04172
 Rotational constants (GHZ):           2.52066     1.20875     0.86935
 Zero-point vibrational energy     411250.6 (Joules/Mol)
                                   98.29125 (Kcal/Mol)
 Warning -- explicit consideration of  12 degrees of freedom as
           vibrations may cause significant error
 Vibrational temperatures:     93.82   108.00   148.95   178.99   246.92
          (Kelvin)            275.22   359.88   470.31   543.19   626.85
                              728.41   852.98   907.76   969.19  1115.50
                             1196.28  1271.99  1350.64  1375.86  1416.97
                             1476.74  1518.05  1567.37  1625.40  1661.85
                             1682.92  1703.63  1736.90  1759.23  1806.34
                             1838.32  1860.82  1936.13  1956.80  2006.44
                             2125.94  2136.90  2148.48  2173.60  2204.52
                             3210.63  4249.26  4294.76  4344.96  4371.56
                             4388.44  4403.40  4442.65  4492.94  4522.22
                             5039.16

 Zero-point correction=                           0.156637 (Hartree/Particle)
 Thermal correction to Energy=                    0.166417
 Thermal correction to Enthalpy=                  0.167361
 Thermal correction to Gibbs Free Energy=         0.121134
 Sum of electronic and zero-point Energies=           -422.952609
 Sum of electronic and thermal Energies=              -422.942829
 Sum of electronic and thermal Enthalpies=            -422.941885
 Sum of electronic and thermal Free Energies=         -422.988112

                     E (Thermal)             CV                S
                      KCal/Mol        Cal/Mol-Kelvin    Cal/Mol-Kelvin
 Total                  104.428             34.516             97.293
 Electronic               0.000              0.000              0.000
 Translational            0.889              2.981             40.409
 Rotational               0.889              2.981             29.186
 Vibrational            102.651             28.555             27.699
 Vibration     1          0.597              1.971              4.293
 Vibration     2          0.599              1.966              4.016
 Vibration     3          0.605              1.946              3.387
 Vibration     4          0.610              1.929              3.031
 Vibration     5          0.626              1.877              2.418
 Vibration     6          0.634              1.852              2.215
 Vibration     7          0.663              1.763              1.730
 Vibration     8          0.711              1.622              1.275
 Vibration     9          0.748              1.518              1.049
 Vibration    10          0.796              1.392              0.840
 Vibration    11          0.861              1.236              0.643
 Vibration    12          0.950              1.047              0.462

 Optimization completed.
    -- Stationary point found.
 Normal termination of Gaussian 09 at Tue Jan 28 10:02:53 2020.
