 Gaussian 09, Revision D.01,
 Gaussian 09:  ES64L-G09RevD.01 24-Apr-2013

 -----------------------------
 # b3lyp 6-31G(2df,p) opt Freq
 -----------------------------

 -----
 titel
 -----
 Symbolic Z-matrix:
 Charge =  0 Multiplicity = 1

 SCF Done:  E(RB3LYP) =  -423.104756006     A.U. after   13 cycles
 Optimization completed.
    -- Stationary point found.
 Normal termination of Gaussian 09 at Tue Jan 28 14:10:46 2020.

 ----------------------------------------------------------------------
 #N Geom=AllCheck Guess=TCheck SCRF=Check GenChk RB3LYP/6-31G(2df,p) Fr
 eq
 ----------------------------------------------------------------------

 Structure from the checkpoint file:  "/scratch/puck/g09_4b4e05d4-963b-4f8a-a4e5-d759c901c2ce/Gau-144537.chk"
 -----
 titel
 -----
 Charge =  0 Multiplicity = 1

                         Standard orientation:
 ---------------------------------------------------------------------
 Center     Atomic      Atomic             Coordinates (Angstroms)
 Number     Number       Type             X           Y           Z
 ---------------------------------------------------------------------
      1          6           0        3.381800    0.198935   -0.374946
      2          6           0        2.145493    0.014024    0.487822
      3          8           0        1.076713   -0.402713   -0.343452
      4          6           0       -0.103448   -0.672034    0.344860
      5          6           0       -1.309826   -1.033792   -0.498025
      6          6           0       -1.985702    0.310767   -0.804652
      7          8           0       -1.171502    1.357406   -0.279193
      8          6           0       -0.983200    0.509246    0.881592
      9          6           0       -2.244080   -0.348429    0.505373
     10          1           0        4.228277    0.528022    0.235298
     11          1           0        3.650719   -0.740388   -0.866509
     12          1           0        3.196891    0.949628   -1.148216
     13          1           0        2.328780   -0.739215    1.273284
     14          1           0        1.888863    0.956822    0.996155
     15          1           0        0.052031   -1.408606    1.149089
     16          1           0       -1.483432   -1.931525   -1.076080
     17          1           0       -2.610197    0.505109   -1.665863
     18          1           0       -0.775921    1.055755    1.798627
     19          1           0       -3.123916   -0.685448    1.033224
 ---------------------------------------------------------------------

 SCF Done:  E(RB3LYP) =  -423.104756006     A.U. after    1 cycles

 The electronic state is 1-A.
 Alpha  occ. eigenvalues --  -19.13513 -19.13466 -10.24135 -10.24126 -10.23574
 Alpha  occ. eigenvalues --  -10.22566 -10.19885 -10.19583 -10.17213  -1.06635
 Alpha  occ. eigenvalues --   -1.02777  -0.85917  -0.75727  -0.71066  -0.65145
 Alpha  occ. eigenvalues --   -0.60201  -0.56387  -0.54610  -0.53957  -0.50107
 Alpha  occ. eigenvalues --   -0.47552  -0.44915  -0.43858  -0.40943  -0.39726
 Alpha  occ. eigenvalues --   -0.38228  -0.36821  -0.36087  -0.33815  -0.31462
 Alpha  occ. eigenvalues --   -0.30280  -0.27659  -0.24957  -0.23036
 Alpha virt. eigenvalues --    0.07602   0.09680   0.10816   0.11603   0.12811
 Alpha virt. eigenvalues --    0.14225   0.14545   0.15567   0.16094   0.17065
 Alpha virt. eigenvalues --    0.17360   0.18428   0.19249   0.19670   0.20400

 Mulliken charges:
               1
     1  C   -0.385249
     2  C   -0.040081
     3  O   -0.258674
     4  C    0.198109
     5  C   -0.192835
     6  C    0.105363
     7  O   -0.281796
     8  C    0.000217
     9  C   -0.152439
    10  H    0.112344
    11  H    0.124696
    12  H    0.132601
    13  H    0.082251
    14  H    0.093169
    15  H    0.065617
    16  H    0.095866
    17  H    0.112471
    18  H    0.085673
    19  H    0.102697
 Sum of Mulliken charges =   0.00000

 Dipole moment (field-independent basis, Debye):
    X=             -0.5086    Y=             -1.2939    Z=              1.3679  Tot=              1.9504
 Quadrupole moment (field-independent basis, Debye-Ang):
   XX=            -47.6569   YY=            -55.2359   ZZ=            -50.9684
   XY=              2.8809   XZ=              2.1504   YZ=              0.9085

  Exact polarizability:  89.547   1.627  67.091   2.354   0.777  69.030
 Approx polarizability: 109.910   1.129 105.711   2.172   0.615 107.771

                      1                      2                      3
                      A                      A                      A
 Frequencies --     59.8860                64.0110               138.2039
 Red. masses --      4.0692                 1.7850                 3.3297
 Frc consts  --      0.0086                 0.0043                 0.0375
 IR Inten    --      2.2722                 1.1548                 1.4453

                      4                      5                      6
                      A                      A                      A
 Frequencies --    229.2370               270.3788               342.3333
 Red. masses --      1.5732                 2.4321                 3.0488
 Frc consts  --      0.0487                 0.1048                 0.2105
 IR Inten    --      0.1065                 1.7273                 1.4002

                      7                      8                      9
                      A                      A                      A
 Frequencies --    389.3870               584.2837               654.2660
 Red. masses --      4.4000                 3.7733                 4.8562
 Frc consts  --      0.3931                 0.7590                 1.2248
 IR Inten    --      0.8008                 0.3601                10.7222

                     10                     11                     12
                      A                      A                      A
 Frequencies --    763.4707               769.9487               788.7236
 Red. masses --      3.9852                 1.6001                 1.6852
 Frc consts  --      1.3686                 0.5589                 0.6177
 IR Inten    --     12.2012                 6.8780                11.1984

                     13                     14                     15
                      A                      A                      A
 Frequencies --    802.8206               822.5524               836.0243
 Red. masses --      3.4716                 1.2084                 2.0555
 Frc consts  --      1.3183                 0.4817                 0.8465
 IR Inten    --      6.5457                 0.6788                 8.8094

                     16                     17                     18
                      A                      A                      A
 Frequencies --    884.3503               915.7530               949.0022
 Red. masses --      1.6996                 1.9864                 2.9148
 Frc consts  --      0.7832                 0.9815                 1.5467
 IR Inten    --      4.1350                 4.3559                31.1364

                     19                     20                     21
                      A                      A                      A
 Frequencies --    978.2440              1002.9796              1026.1415
 Red. masses --      3.0881                 1.6010                 1.4688
 Frc consts  --      1.7411                 0.9489                 0.9112
 IR Inten    --     33.5368                 0.6859                 6.1820

                     22                     23                     24
                      A                      A                      A
 Frequencies --   1029.8917              1052.6870              1066.9343
 Red. masses --      2.6559                 3.1214                 2.7898
 Frc consts  --      1.6597                 2.0380                 1.8711
 IR Inten    --     16.0082                 9.7141                 1.1981

                     25                     26                     27
                      A                      A                      A
 Frequencies --   1094.6629              1142.4086              1153.0280
 Red. masses --      3.4098                 1.6361                 2.4050
 Frc consts  --      2.4074                 1.2580                 1.8839
 IR Inten    --     38.9594                 4.2424                24.4412

                     28                     29                     30
                      A                      A                      A
 Frequencies --   1168.6926              1178.6866              1190.7564
 Red. masses --      1.6124                 2.9401                 1.9258
 Frc consts  --      1.2976                 2.4066                 1.6088
 IR Inten    --      6.6274               194.5100                62.1993

                     31                     32                     33
                      A                      A                      A
 Frequencies --   1226.1828              1251.4750              1298.5441
 Red. masses --      1.3367                 1.7178                 1.1036
 Frc consts  --      1.1841                 1.5851                 1.0964
 IR Inten    --     10.9078                 1.7738                 2.0020

                     34                     35                     36
                      A                      A                      A
 Frequencies --   1326.0379              1369.7892              1376.2381
 Red. masses --      1.7366                 1.8159                 1.5561
 Frc consts  --      1.7991                 2.0074                 1.7365
 IR Inten    --      7.5936                52.8430                56.5420

                     37                     38                     39
                      A                      A                      A
 Frequencies --   1403.7606              1442.4821              1483.1752
 Red. masses --      1.2565                 1.4757                 1.0403
 Frc consts  --      1.4588                 1.8092                 1.3484
 IR Inten    --     10.9857                 3.2083                 3.9669

                     40                     41                     42
                      A                      A                      A
 Frequencies --   1499.4793              1526.9802              2956.3820
 Red. masses --      1.0451                 1.0923                 1.0605
 Frc consts  --      1.3845                 1.5006                 5.4611
 IR Inten    --      2.0243                 1.4043                41.2454

                     43                     44                     45
                      A                      A                      A
 Frequencies --   2984.5210              2992.4076              3044.9955
 Red. masses --      1.0844                 1.0980                 1.0347
 Frc consts  --      5.6909                 5.7930                 5.6524
 IR Inten    --     74.3525                30.2130                18.8761

                     46                     47                     48
                      A                      A                      A
 Frequencies --   3118.6712              3123.4782              3149.6138
 Red. masses --      1.1016                 1.1026                 1.0925
 Frc consts  --      6.3124                 6.3380                 6.3851
 IR Inten    --     24.7929                24.1112                28.4570

                     49                     50                     51
                      A                      A                      A
 Frequencies --   3208.2862              3213.1073              3229.6923
 Red. masses --      1.0922                 1.0904                 1.1051
 Frc consts  --      6.6235                 6.6328                 6.7918
 IR Inten    --      6.6066                12.7234                11.0625

 - Thermochemistry -
 -------------------
 Temperature   298.150 Kelvin.  Pressure   1.00000 Atm.
 Atom     1 has atomic number  6 and mass  12.00000

 Molecular mass:   126.06808 amu.
 Principal axes and moments of inertia in atomic units:
                           1         2         3
     Eigenvalues --   406.652161748.537741822.28289
           X            0.99990   0.01409   0.00153
           Y           -0.01412   0.99963   0.02313
           Z           -0.00121  -0.02315   0.99973
 This molecule is an asymmetric top.
 Rotational symmetry number  1.
 Rotational temperatures (Kelvin)      0.21299     0.04953     0.04753
 Rotational constants (GHZ):           4.43805     1.03214     0.99037
 Zero-point vibrational energy     416151.2 (Joules/Mol)
                                   99.46252 (Kcal/Mol)
 Warning -- explicit consideration of   8 degrees of freedom as
           vibrations may cause significant error
 Vibrational temperatures:     86.16    92.10   198.84   329.82   389.01
          (Kelvin)            492.54   560.24   840.65   941.34  1098.46
                             1107.78  1134.80  1155.08  1183.47  1202.85
                             1272.38  1317.56  1365.40  1407.47  1443.06
                             1476.39  1481.78  1514.58  1535.08  1574.97
                             1643.67  1658.95  1681.49  1695.87  1713.23
                             1764.20  1800.59  1868.31  1907.87  1970.82
                             1980.10  2019.70  2075.41  2133.96  2157.41
                             2196.98  4253.57  4294.05  4305.40  4381.06
                             4487.07  4493.98  4531.59  4616.00  4622.94
                             4646.80

 Zero-point correction=                           0.158504 (Hartree/Particle)
 Thermal correction to Energy=                    0.166634
 Thermal correction to Enthalpy=                  0.167578
 Thermal correction to Gibbs Free Energy=         0.124862
 Sum of electronic and zero-point Energies=           -422.946252
 Sum of electronic and thermal Energies=              -422.938122
 Sum of electronic and thermal Enthalpies=            -422.937178
 Sum of electronic and thermal Free Energies=         -422.979894

                     E (Thermal)             CV                S
                      KCal/Mol        Cal/Mol-Kelvin    Cal/Mol-Kelvin
 Total                  104.564             30.615             89.903
 Electronic               0.000              0.000              0.000
 Translational            0.889              2.981             40.409
 Rotational               0.889              2.981             28.651
 Vibrational            102.787             24.653             20.843
 Vibration     1          0.597              1.973              4.461
 Vibration     2          0.597              1.971              4.330
 Vibration     3          0.614              1.915              2.829
 Vibration     4          0.652              1.796              1.885
 Vibration     5          0.674              1.728              1.594
 Vibration     6          0.721              1.591              1.201
 Vibration     7          0.757              1.493              1.002
 Vibration     8          0.941              1.065              0.477

 Normal termination of Gaussian 09 at Tue Jan 28 14:55:25 2020.
