 Gaussian 09, Revision D.01,
 Gaussian 09:  ES64L-G09RevD.01 24-Apr-2013

 -----------------------------
 # b3lyp 6-31G(2df,p) opt Freq
 -----------------------------

 -----
 titel
 -----
 Symbolic Z-matrix:
 Charge =  0 Multiplicity = 1

 SCF Done:  E(RB3LYP) =  -423.159007449     A.U. after   14 cycles
 Optimization completed.
    -- Stationary point found.
 Normal termination of Gaussian 09 at Mon Jan 27 16:22:15 2020.

 ----------------------------------------------------------------------
 #N Geom=AllCheck Guess=TCheck SCRF=Check GenChk RB3LYP/6-31G(2df,p) Fr
 eq
 ----------------------------------------------------------------------

 Structure from the checkpoint file:  "/scratch/puck/g09_ba3778a9-c9df-4926-b7fe-ea1699d6eccd/Gau-176969.chk"
 -----
 titel
 -----
 Charge =  0 Multiplicity = 1

                         Standard orientation:
 ---------------------------------------------------------------------
 Center     Atomic      Atomic             Coordinates (Angstroms)
 Number     Number       Type             X           Y           Z
 ---------------------------------------------------------------------
      1          6           0        2.309950   -0.164475   -1.041374
      2          6           0        1.199183   -0.167813    0.000501
      3          6           0        1.531884   -1.019679    1.225445
      4          8           0        0.936917    1.183902    0.369986
      5          6           0       -0.457439    1.305580    0.551620
      6          6           0       -1.012584    0.351739   -0.524707
      7          8           0       -0.015082   -0.666333   -0.584328
      8          6           0       -2.321580   -0.204333   -0.212174
      9          6           0       -3.415352   -0.626297    0.049601
     10          1           0        2.512589   -1.184084   -1.378459
     11          1           0        2.010161    0.440664   -1.899797
     12          1           0        3.225960    0.255233   -0.616827
     13          1           0        2.462277   -0.675725    1.685362
     14          1           0        0.727704   -0.957298    1.962789
     15          1           0        1.646308   -2.067067    0.934103
     16          1           0       -0.779210    0.984723    1.552048
     17          1           0       -0.744082    2.347549    0.396651
     18          1           0       -1.060803    0.875661   -1.491228
     19          1           0       -4.379950   -1.008548    0.276623
 ---------------------------------------------------------------------

 SCF Done:  E(RB3LYP) =  -423.159007449     A.U. after    1 cycles

 The electronic state is 1-A.
 Alpha  occ. eigenvalues --  -19.14972 -19.14505 -10.28524 -10.26084 -10.23954
 Alpha  occ. eigenvalues --  -10.18716 -10.18225 -10.17501 -10.17460  -1.08902
 Alpha  occ. eigenvalues --   -0.99542  -0.81419  -0.75591  -0.70890  -0.69700
 Alpha  occ. eigenvalues --   -0.64766  -0.57763  -0.54103  -0.51966  -0.49844
 Alpha  occ. eigenvalues --   -0.47936  -0.44815  -0.43409  -0.41788  -0.39321
 Alpha  occ. eigenvalues --   -0.38636  -0.38385  -0.36301  -0.35452  -0.33539
 Alpha  occ. eigenvalues --   -0.28786  -0.27831  -0.26437  -0.25474
 Alpha virt. eigenvalues --    0.02979   0.04739   0.09248   0.11231   0.11980
 Alpha virt. eigenvalues --    0.12340   0.12694   0.14511   0.15933   0.17397
 Alpha virt. eigenvalues --    0.17496   0.19584   0.19856   0.21230   0.21745

 Mulliken charges:
               1
     1  C   -0.414683
     2  C    0.457064
     3  C   -0.409945
     4  O   -0.281713
     5  C   -0.126897
     6  C   -0.058384
     7  O   -0.309824
     8  C    0.307623
     9  C   -0.443127
    10  H    0.125778
    11  H    0.122381
    12  H    0.124726
    13  H    0.120949
    14  H    0.120648
    15  H    0.127255
    16  H    0.107151
    17  H    0.123285
    18  H    0.105592
    19  H    0.202121
 Sum of Mulliken charges =   0.00000

 Dipole moment (field-independent basis, Debye):
    X=             -0.2911    Y=              0.3389    Z=              0.3880  Tot=              0.5917
 Quadrupole moment (field-independent basis, Debye-Ang):
   XX=            -47.4465   YY=            -53.9097   ZZ=            -53.0872
   XY=             -1.7486   XZ=             -1.5903   YZ=             -1.7254

  Exact polarizability: 102.577   3.297  66.449  -3.990  -2.194  63.954
 Approx polarizability: 139.996  11.997 100.067  -8.065  -2.296  91.889

                      1                      2                      3
                      A                      A                      A
 Frequencies --     29.4235               136.8728               165.7236
 Red. masses --      4.0160                 3.4832                 3.2864
 Frc consts  --      0.0020                 0.0384                 0.0532
 IR Inten    --      1.1430                 0.5312                 2.6276

                      4                      5                      6
                      A                      A                      A
 Frequencies --    188.5124               237.8126               250.8740
 Red. masses --      1.0346                 1.0489                 2.9773
 Frc consts  --      0.0217                 0.0350                 0.1104
 IR Inten    --      0.0733                 0.1082                 1.9731

                      7                      8                      9
                      A                      A                      A
 Frequencies --    329.2625               340.2687               384.6707
 Red. masses --      2.7122                 3.2050                 2.7559
 Frc consts  --      0.1732                 0.2186                 0.2403
 IR Inten    --      1.0227                 0.7246                 0.7292

                     10                     11                     12
                      A                      A                      A
 Frequencies --    492.2106               504.2127               520.7583
 Red. masses --      3.7502                 5.2719                 4.5193
 Frc consts  --      0.5353                 0.7897                 0.7221
 IR Inten    --      6.3828                 5.7288                 5.2524

                     13                     14                     15
                      A                      A                      A
 Frequencies --    612.0991               631.5772               642.6041
 Red. masses --      2.2304                 1.4297                 4.3949
 Frc consts  --      0.4923                 0.3360                 1.0693
 IR Inten    --      3.1459                44.7558                 0.4079

                     16                     17                     18
                      A                      A                      A
 Frequencies --    672.4199               801.1040               859.5538
 Red. masses --      1.2534                 6.4370                 2.7443
 Frc consts  --      0.3339                 2.4339                 1.1946
 IR Inten    --     34.4109                 4.6737                56.1143

                     19                     20                     21
                      A                      A                      A
 Frequencies --    900.9175               920.5056               970.8056
 Red. masses --      3.4156                 1.4970                 2.1080
 Frc consts  --      1.6334                 0.7474                 1.1705
 IR Inten    --      7.7202                 1.2740                 2.0846

                     22                     23                     24
                      A                      A                      A
 Frequencies --    998.5874              1042.7169              1050.0218
 Red. masses --      1.3267                 2.1442                 5.0547
 Frc consts  --      0.7795                 1.3736                 3.2835
 IR Inten    --      1.0135                 5.4811                52.2330

                     25                     26                     27
                      A                      A                      A
 Frequencies --   1099.1978              1114.5306              1177.2106
 Red. masses --      4.9027                 3.0588                 2.0987
 Frc consts  --      3.4901                 2.2387                 1.7136
 IR Inten    --    111.4312                95.2080                49.6430

                     28                     29                     30
                      A                      A                      A
 Frequencies --   1232.2135              1236.0564              1268.0439
 Red. masses --      2.1960                 1.5720                 2.5979
 Frc consts  --      1.9645                 1.4150                 2.4612
 IR Inten    --     30.2185                79.4626               132.6643

                     31                     32                     33
                      A                      A                      A
 Frequencies --   1319.1433              1352.2416              1388.5606
 Red. masses --      1.3338                 1.2156                 1.4209
 Frc consts  --      1.3675                 1.3096                 1.6141
 IR Inten    --      9.9540                10.3461                 3.5688

                     34                     35                     36
                      A                      A                      A
 Frequencies --   1400.6085              1413.8197              1471.2737
 Red. masses --      1.3610                 1.2619                 1.0451
 Frc consts  --      1.5730                 1.4861                 1.3329
 IR Inten    --     21.1684                13.2034                 0.0145

                     37                     38                     39
                      A                      A                      A
 Frequencies --   1475.9417              1494.7268              1495.5838
 Red. masses --      1.0526                 1.0732                 1.0541
 Frc consts  --      1.3510                 1.4128                 1.3892
 IR Inten    --      0.6347                 0.9228                 4.0038

                     40                     41                     42
                      A                      A                      A
 Frequencies --   1515.2823              2243.2588              2985.1445
 Red. masses --      1.0879                 5.9107                 1.0815
 Frc consts  --      1.4718                17.5245                 5.6782
 IR Inten    --      1.1221                 1.1198                25.4863

                     43                     44                     45
                      A                      A                      A
 Frequencies --   3013.3802              3048.2531              3053.5719
 Red. masses --      1.0679                 1.0344                 1.0348
 Frc consts  --      5.7132                 5.6628                 5.6848
 IR Inten    --     42.7883                12.2412                 8.5283

                     46                     47                     48
                      A                      A                      A
 Frequencies --   3114.3831              3124.8716              3129.8905
 Red. masses --      1.0974                 1.1023                 1.1022
 Frc consts  --      6.2715                 6.3420                 6.3614
 IR Inten    --     25.3082                 0.5866                18.5806

                     49                     50                     51
                      A                      A                      A
 Frequencies --   3132.6949              3136.5273              3503.4836
 Red. masses --      1.1020                 1.1028                 1.1633
 Frc consts  --      6.3722                 6.3921                 8.4128
 IR Inten    --     30.3297                21.1916                66.4486

 - Thermochemistry -
 -------------------
 Temperature   298.150 Kelvin.  Pressure   1.00000 Atm.
 Atom     1 has atomic number  6 and mass  12.00000

 Molecular mass:   126.06808 amu.
 Principal axes and moments of inertia in atomic units:
                           1         2         3
     Eigenvalues --   535.667271638.751381716.61760
           X            0.99976  -0.02095  -0.00671
           Y            0.01965   0.98759  -0.15582
           Z            0.00990   0.15566   0.98776
 This molecule is an asymmetric top.
 Rotational symmetry number  1.
 Warning -- assumption of classical behavior for rotation
           may cause significant error
 Rotational temperatures (Kelvin)      0.16169     0.05285     0.05046
 Rotational constants (GHZ):           3.36915     1.10129     1.05134
 Zero-point vibrational energy     410459.1 (Joules/Mol)
                                   98.10209 (Kcal/Mol)
 Warning -- explicit consideration of  13 degrees of freedom as
           vibrations may cause significant error
 Vibrational temperatures:     42.33   196.93   238.44   271.23   342.16
          (Kelvin)            360.95   473.73   489.57   553.45   708.18
                              725.45   749.25   880.67   908.70   924.56
                              967.46  1152.61  1236.70  1296.22  1324.40
                             1396.77  1436.74  1500.24  1510.75  1581.50
                             1603.56  1693.74  1772.88  1778.41  1824.43
                             1897.95  1945.57  1997.83  2015.16  2034.17
                             2116.83  2123.55  2150.58  2151.81  2180.15
                             3227.55  4294.95  4335.58  4385.75  4393.40
                             4480.90  4495.99  4503.21  4507.24  4512.76
                             5040.73

 Zero-point correction=                           0.156336 (Hartree/Particle)
 Thermal correction to Energy=                    0.165759
 Thermal correction to Enthalpy=                  0.166704
 Thermal correction to Gibbs Free Energy=         0.121757
 Sum of electronic and zero-point Energies=           -423.002672
 Sum of electronic and thermal Energies=              -422.993248
 Sum of electronic and thermal Enthalpies=            -422.992304
 Sum of electronic and thermal Free Energies=         -423.037251

                     E (Thermal)             CV                S
                      KCal/Mol        Cal/Mol-Kelvin    Cal/Mol-Kelvin
 Total                  104.016             35.270             94.599
 Electronic               0.000              0.000              0.000
 Translational            0.889              2.981             40.409
 Rotational               0.889              2.981             28.801
 Vibrational            102.238             29.309             25.389
 Vibration     1          0.593              1.984              5.868
 Vibration     2          0.614              1.917              2.847
 Vibration     3          0.624              1.885              2.483
 Vibration     4          0.633              1.856              2.242
 Vibration     5          0.656              1.783              1.819
 Vibration     6          0.663              1.761              1.724
 Vibration     7          0.712              1.617              1.264
 Vibration     8          0.720              1.595              1.211
 Vibration     9          0.754              1.503              1.021
 Vibration    10          0.848              1.267              0.678
 Vibration    11          0.859              1.241              0.648
 Vibration    12          0.876              1.204              0.608
 Vibration    13          0.971              1.006              0.429

 Optimization completed.
    -- Stationary point found.
 Normal termination of Gaussian 09 at Mon Jan 27 17:02:18 2020.
