 Gaussian 09, Revision D.01,
 Gaussian 09:  ES64L-G09RevD.01 24-Apr-2013

 -----------------------------
 # b3lyp 6-31G(2df,p) opt Freq
 -----------------------------

 -----
 titel
 -----
 Symbolic Z-matrix:
 Charge =  0 Multiplicity = 1

 SCF Done:  E(RB3LYP) =  -423.221681261     A.U. after   14 cycles
 Optimization completed.
    -- Stationary point found.
 Normal termination of Gaussian 09 at Tue Jan 28 00:43:17 2020.

 ----------------------------------------------------------------------
 #N Geom=AllCheck Guess=TCheck SCRF=Check GenChk RB3LYP/6-31G(2df,p) Fr
 eq
 ----------------------------------------------------------------------

 Structure from the checkpoint file:  "/scratch/puck/g09_ad0eb900-f5f4-402c-b02b-31f17caf064a/Gau-37523.chk"
 -----
 titel
 -----
 Charge =  0 Multiplicity = 1

                         Standard orientation:
 ---------------------------------------------------------------------
 Center     Atomic      Atomic             Coordinates (Angstroms)
 Number     Number       Type             X           Y           Z
 ---------------------------------------------------------------------
      1          6           0        2.303240   -1.329981    0.585297
      2          6           0        1.315385   -0.523439   -0.244359
      3          6           0        1.653555    0.981836   -0.500211
      4          6           0        0.251263    1.344157   -0.009724
      5          8           0       -0.419024    2.334961   -0.015610
      6          6           0       -0.023930   -0.119289    0.434482
      7          6           0       -1.323978   -0.716568   -0.084425
      8          6           0       -2.582582   -0.157844    0.541569
      9          8           0       -1.330211   -1.544185   -0.966080
     10          1           0        1.909601   -2.327719    0.804661
     11          1           0        3.252944   -1.455842    0.055020
     12          1           0        2.518747   -0.835478    1.540126
     13          1           0        1.089839   -1.040850   -1.179837
     14          1           0        2.426342    1.380461    0.167497
     15          1           0        1.889246    1.290537   -1.522315
     16          1           0       -0.005019   -0.176214    1.530483
     17          1           0       -3.463703   -0.562947    0.042803
     18          1           0       -2.615544   -0.407404    1.608497
     19          1           0       -2.566292    0.936017    0.470802
 ---------------------------------------------------------------------

 SCF Done:  E(RB3LYP) =  -423.221681261     A.U. after    1 cycles

 The electronic state is 1-A.
 Alpha  occ. eigenvalues --  -19.15175 -19.13485 -10.28439 -10.27727 -10.20371
 Alpha  occ. eigenvalues --  -10.20314 -10.20001 -10.18836 -10.18659  -1.06048
 Alpha  occ. eigenvalues --   -1.04506  -0.86134  -0.76026  -0.72705  -0.69496
 Alpha  occ. eigenvalues --   -0.59320  -0.57086  -0.52196  -0.48558  -0.47129
 Alpha  occ. eigenvalues --   -0.46410  -0.44316  -0.43368  -0.42577  -0.42066
 Alpha  occ. eigenvalues --   -0.40395  -0.39652  -0.38118  -0.36225  -0.34787
 Alpha  occ. eigenvalues --   -0.33659  -0.32888  -0.26373  -0.24405
 Alpha virt. eigenvalues --   -0.03586  -0.00971   0.08047   0.10637   0.11660
 Alpha virt. eigenvalues --    0.12748   0.13691   0.15236   0.15857   0.16168
 Alpha virt. eigenvalues --    0.16560   0.17442   0.18542   0.19339   0.21925

 Mulliken charges:
               1
     1  C   -0.414668
     2  C    0.015377
     3  C   -0.360269
     4  C    0.393756
     5  O   -0.290588
     6  C   -0.236721
     7  C    0.370238
     8  C   -0.486436
     9  O   -0.293815
    10  H    0.129091
    11  H    0.123128
    12  H    0.111140
    13  H    0.109814
    14  H    0.132020
    15  H    0.136905
    16  H    0.113446
    17  H    0.140864
    18  H    0.137457
    19  H    0.169260
 Sum of Mulliken charges =   0.00000

 Dipole moment (field-independent basis, Debye):
    X=              1.6481    Y=             -0.3519    Z=              1.7776  Tot=              2.4494
 Quadrupole moment (field-independent basis, Debye-Ang):
   XX=            -49.5385   YY=            -62.7579   ZZ=            -52.3642
   XY=              0.2237   XZ=             -3.0063   YZ=             -3.0051

  Exact polarizability:  90.026   0.367  78.626  -3.196   1.486  64.627
 Approx polarizability: 115.235  -0.150 125.914  -2.763   9.454 104.546

                      1                      2                      3
                      A                      A                      A
 Frequencies --     49.0004                69.8010               132.2826
 Red. masses --      2.8886                 4.8188                 4.5073
 Frc consts  --      0.0041                 0.0138                 0.0465
 IR Inten    --      1.2333                 5.9246                 5.1712

                      4                      5                      6
                      A                      A                      A
 Frequencies --    161.5403               179.5128               234.7815
 Red. masses --      1.0553                 3.1319                 1.3346
 Frc consts  --      0.0162                 0.0595                 0.0433
 IR Inten    --      0.2748                 4.8324                 1.0098

                      7                      8                      9
                      A                      A                      A
 Frequencies --    255.2977               361.3807               389.0883
 Red. masses --      2.0485                 3.2062                 2.9829
 Frc consts  --      0.0787                 0.2467                 0.2661
 IR Inten    --      0.3058                 0.6288                 3.5160

                     10                     11                     12
                      A                      A                      A
 Frequencies --    435.7789               484.7674               575.6415
 Red. masses --      2.4041                 3.0427                 4.0750
 Frc consts  --      0.2690                 0.4213                 0.7956
 IR Inten    --      1.1669                 2.1307                17.7356

                     13                     14                     15
                      A                      A                      A
 Frequencies --    600.7268               631.5353               715.4649
 Red. masses --      2.8593                 3.9568                 2.3983
 Frc consts  --      0.6080                 0.9298                 0.7233
 IR Inten    --      3.1539                 2.3736                 4.7777

                     16                     17                     18
                      A                      A                      A
 Frequencies --    807.5199               886.6973               896.3141
 Red. masses --      2.4107                 1.4717                 2.5254
 Frc consts  --      0.9262                 0.6817                 1.1954
 IR Inten    --      1.0830                 1.5202                12.4064

                     19                     20                     21
                      A                      A                      A
 Frequencies --    945.1469               969.4567               989.9997
 Red. masses --      2.6784                 1.3273                 1.5553
 Frc consts  --      1.4097                 0.7350                 0.8981
 IR Inten    --     12.9934                 1.8197                 5.4777

                     22                     23                     24
                      A                      A                      A
 Frequencies --   1053.4716              1064.2913              1110.1361
 Red. masses --      4.1695                 2.1110                 2.0821
 Frc consts  --      2.7263                 1.4088                 1.5118
 IR Inten    --     97.0932                 1.9844                 0.8989

                     25                     26                     27
                      A                      A                      A
 Frequencies --   1121.8255              1146.7040              1166.8603
 Red. masses --      2.2876                 1.6613                 1.6185
 Frc consts  --      1.6962                 1.2870                 1.2984
 IR Inten    --      7.9505                55.2645                24.2448

                     28                     29                     30
                      A                      A                      A
 Frequencies --   1203.4265              1223.2941              1254.5116
 Red. masses --      1.8148                 1.5571                 1.6975
 Frc consts  --      1.5485                 1.3729                 1.5741
 IR Inten    --     30.5229                10.5013                19.3975

                     31                     32                     33
                      A                      A                      A
 Frequencies --   1298.7088              1381.3894              1386.6740
 Red. masses --      1.6588                 1.3883                 1.3859
 Frc consts  --      1.6484                 1.5609                 1.5701
 IR Inten    --     55.0337                 3.0953                57.1515

                     34                     35                     36
                      A                      A                      A
 Frequencies --   1413.7298              1438.1358              1467.5773
 Red. masses --      1.2717                 1.1189                 1.0528
 Frc consts  --      1.4975                 1.3635                 1.3360
 IR Inten    --      1.9429                 2.7661                10.4234

                     37                     38                     39
                      A                      A                      A
 Frequencies --   1473.9681              1494.5330              1499.1833
 Red. masses --      1.0504                 1.0487                 1.0424
 Frc consts  --      1.3445                 1.3801                 1.3804
 IR Inten    --     11.1659                 1.1922                 5.8206

                     40                     41                     42
                      A                      A                      A
 Frequencies --   1805.0861              1881.0474              3025.3426
 Red. masses --     10.7333                12.8127                 1.0370
 Frc consts  --     20.6054                26.7111                 5.5923
 IR Inten    --    198.0811               216.9073                23.4826

                     43                     44                     45
                      A                      A                      A
 Frequencies --   3032.3777              3039.2409              3046.7254
 Red. masses --      1.0416                 1.0754                 1.0628
 Frc consts  --      5.6428                 5.8524                 5.8125
 IR Inten    --      1.7831                 5.6186                 8.2595

                     46                     47                     48
                      A                      A                      A
 Frequencies --   3079.9958              3095.8751              3097.5144
 Red. masses --      1.0900                 1.0981                 1.0971
 Frc consts  --      6.0925                 6.2010                 6.2019
 IR Inten    --      4.3719                 3.4763                18.0772

                     49                     50                     51
                      A                      A                      A
 Frequencies --   3102.9632              3109.2975              3153.7929
 Red. masses --      1.1015                 1.0992                 1.1025
 Frc consts  --      6.2485                 6.2609                 6.4611
 IR Inten    --     20.6272                14.8526                 8.2212

 - Thermochemistry -
 -------------------
 Temperature   298.150 Kelvin.  Pressure   1.00000 Atm.
 Atom     1 has atomic number  6 and mass  12.00000

 Molecular mass:   126.06808 amu.
 Principal axes and moments of inertia in atomic units:
                           1         2         3
     Eigenvalues --   871.996361242.405871825.95413
           X            0.99814  -0.05955  -0.01281
           Y            0.05920   0.99791  -0.02579
           Z            0.01432   0.02498   0.99959
 This molecule is an asymmetric top.
 Rotational symmetry number  1.
 Warning -- assumption of classical behavior for rotation
           may cause significant error
 Rotational temperatures (Kelvin)      0.09933     0.06971     0.04743
 Rotational constants (GHZ):           2.06967     1.45262     0.98838
 Zero-point vibrational energy     409358.6 (Joules/Mol)
                                   97.83905 (Kcal/Mol)
 Warning -- explicit consideration of  13 degrees of freedom as
           vibrations may cause significant error
 Vibrational temperatures:     70.50   100.43   190.32   232.42   258.28
          (Kelvin)            337.80   367.32   519.95   559.81   626.99
                              697.47   828.22   864.31   908.64  1029.39
                             1161.84  1275.76  1289.59  1359.85  1394.83
                             1424.39  1515.71  1531.28  1597.24  1614.05
                             1649.85  1678.85  1731.46  1760.05  1804.96
                             1868.55  1987.51  1995.11  2034.04  2069.15
                             2111.51  2120.71  2150.30  2156.99  2597.11
                             2706.40  4352.79  4362.91  4372.78  4383.55
                             4431.42  4454.27  4456.63  4464.47  4473.58
                             4537.60

 Zero-point correction=                           0.155916 (Hartree/Particle)
 Thermal correction to Energy=                    0.165591
 Thermal correction to Enthalpy=                  0.166535
 Thermal correction to Gibbs Free Energy=         0.120668
 Sum of electronic and zero-point Energies=           -423.065765
 Sum of electronic and thermal Energies=              -423.056090
 Sum of electronic and thermal Enthalpies=            -423.055146
 Sum of electronic and thermal Free Energies=         -423.101013

                     E (Thermal)             CV                S
                      KCal/Mol        Cal/Mol-Kelvin    Cal/Mol-Kelvin
 Total                  103.910             34.763             96.534
 Electronic               0.000              0.000              0.000
 Translational            0.889              2.981             40.409
 Rotational               0.889              2.981             29.071
 Vibrational            102.132             28.801             27.054
 Vibration     1          0.595              1.978              4.857
 Vibration     2          0.598              1.969              4.159
 Vibration     3          0.612              1.921              2.913
 Vibration     4          0.622              1.890              2.532
 Vibration     5          0.629              1.867              2.333
 Vibration     6          0.655              1.788              1.842
 Vibration     7          0.666              1.754              1.694
 Vibration     8          0.736              1.552              1.116
 Vibration     9          0.757              1.493              1.004
 Vibration    10          0.796              1.392              0.840
 Vibration    11          0.841              1.284              0.697
 Vibration    12          0.932              1.084              0.494
 Vibration    13          0.959              1.030              0.448

 Optimization completed.
    -- Stationary point found.
 Normal termination of Gaussian 09 at Tue Jan 28 02:37:33 2020.
