 Gaussian 09, Revision D.01,
 Gaussian 09:  ES64L-G09RevD.01 24-Apr-2013

 -----------------------------
 # b3lyp 6-31G(2df,p) opt Freq
 -----------------------------

 -----
 titel
 -----
 Symbolic Z-matrix:
 Charge =  0 Multiplicity = 1

 SCF Done:  E(RB3LYP) =  -423.120412253     A.U. after   14 cycles
 Optimization completed.
    -- Stationary point found.
 Normal termination of Gaussian 09 at Tue Jan 28 09:02:23 2020.

 ----------------------------------------------------------------------
 #N Geom=AllCheck Guess=TCheck SCRF=Check GenChk RB3LYP/6-31G(2df,p) Fr
 eq
 ----------------------------------------------------------------------

 Structure from the checkpoint file:  "/scratch/puck/g09_f6bb8b10-0e7d-45d8-9a96-a297e20ffe02/Gau-144465.chk"
 -----
 titel
 -----
 Charge =  0 Multiplicity = 1

                         Standard orientation:
 ---------------------------------------------------------------------
 Center     Atomic      Atomic             Coordinates (Angstroms)
 Number     Number       Type             X           Y           Z
 ---------------------------------------------------------------------
      1          6           0       -0.462759    2.365890    0.180469
      2          8           0       -0.921722    1.281767   -0.605106
      3          6           0       -0.525841    0.006191   -0.146280
      4          6           0       -1.297471   -1.087859   -0.926826
      5          8           0       -1.973303   -1.538006    0.260519
      6          6           0       -1.339185   -0.536075    1.073431
      7          6           0        0.921630   -0.154540   -0.068327
      8          6           0        2.116371   -0.296849   -0.004555
      9          6           0        3.559382   -0.473449    0.067120
     10          1           0       -0.856341    3.273461   -0.281937
     11          1           0       -0.832935    2.306968    1.214721
     12          1           0        0.633209    2.414215    0.203198
     13          1           0       -1.982255   -0.660979   -1.667966
     14          1           0       -0.683023   -1.872106   -1.379903
     15          1           0       -2.056259    0.191265    1.473886
     16          1           0       -0.750998   -0.973031    1.887262
     17          1           0        3.826280   -1.535844    0.057555
     18          1           0        4.059356    0.001933   -0.783691
     19          1           0        3.970405   -0.035830    0.983383
 ---------------------------------------------------------------------

 SCF Done:  E(RB3LYP) =  -423.120412253     A.U. after    1 cycles

 The electronic state is 1-A.
 Alpha  occ. eigenvalues --  -19.14915 -19.13229 -10.26153 -10.22981 -10.22879
 Alpha  occ. eigenvalues --  -10.22517 -10.21089 -10.18603 -10.17419  -1.05442
 Alpha  occ. eigenvalues --   -1.02559  -0.79088  -0.76071  -0.70288  -0.69293
 Alpha  occ. eigenvalues --   -0.66398  -0.58162  -0.52723  -0.50636  -0.47582
 Alpha  occ. eigenvalues --   -0.46647  -0.44157  -0.43670  -0.43360  -0.43110
 Alpha  occ. eigenvalues --   -0.42256  -0.40327  -0.36112  -0.33190  -0.31853
 Alpha  occ. eigenvalues --   -0.26611  -0.26467  -0.25233  -0.24774
 Alpha virt. eigenvalues --    0.03292   0.04422   0.08620   0.10171   0.10844
 Alpha virt. eigenvalues --    0.12333   0.14731   0.15127   0.15751   0.16381
 Alpha virt. eigenvalues --    0.17355   0.17979   0.18204   0.19413   0.20765

 Mulliken charges:
               1
     1  C   -0.253586
     2  O   -0.268015
     3  C    0.160285
     4  C   -0.109226
     5  O   -0.268997
     6  C   -0.111924
     7  C    0.094697
     8  C    0.006854
     9  C   -0.500776
    10  H    0.130296
    11  H    0.106363
    12  H    0.120825
    13  H    0.114205
    14  H    0.109264
    15  H    0.103588
    16  H    0.106585
    17  H    0.154623
    18  H    0.153750
    19  H    0.151191
 Sum of Mulliken charges =   0.00000

 Dipole moment (field-independent basis, Debye):
    X=              2.4845    Y=              1.0915    Z=              0.6149  Tot=              2.7824
 Quadrupole moment (field-independent basis, Debye-Ang):
   XX=            -49.8013   YY=            -53.2232   ZZ=            -52.0291
   XY=             -3.9307   XZ=              0.1575   YZ=              2.6643

  Exact polarizability: 103.256  -4.166  73.542   1.026   2.325  65.435
 Approx polarizability: 148.101  -5.961  99.192   3.443   1.481  96.024

                      1                      2                      3
                      A                      A                      A
 Frequencies --     19.0475                53.1574                93.0947
 Red. masses --      1.0186                 4.8001                 2.8813
 Frc consts  --      0.0002                 0.0080                 0.0147
 IR Inten    --      0.0149                 3.3094                 1.2578

                      4                      5                      6
                      A                      A                      A
 Frequencies --    110.8741               134.5711               187.8783
 Red. masses --      2.6629                 2.5678                 1.2495
 Frc consts  --      0.0193                 0.0274                 0.0260
 IR Inten    --      1.9224                 2.8739                 1.2047

                      7                      8                      9
                      A                      A                      A
 Frequencies --    250.5103               296.4333               320.6047
 Red. masses --      2.4983                 3.4297                 3.2403
 Frc consts  --      0.0924                 0.1776                 0.1962
 IR Inten    --      5.5743                 4.2657                 2.3461

                     10                     11                     12
                      A                      A                      A
 Frequencies --    375.1555               433.6007               504.7212
 Red. masses --      3.2854                 3.8082                 6.4577
 Frc consts  --      0.2724                 0.4218                 0.9692
 IR Inten    --      6.4961                 0.8273                 2.1474

                     13                     14                     15
                      A                      A                      A
 Frequencies --    549.3606               587.5610               811.7826
 Red. masses --      5.4440                 3.9937                 3.0468
 Frc consts  --      0.9680                 0.8123                 1.1830
 IR Inten    --      4.6044                 2.9570                16.9231

                     16                     17                     18
                      A                      A                      A
 Frequencies --    866.2560               951.5184               971.6989
 Red. masses --      3.0654                 1.4219                 3.7550
 Frc consts  --      1.3553                 0.7585                 2.0890
 IR Inten    --     15.4486                 0.6509                 6.1794

                     19                     20                     21
                      A                      A                      A
 Frequencies --   1030.6847              1046.4277              1051.7783
 Red. masses --      4.5025                 8.5202                 1.4509
 Frc consts  --      2.8181                 5.4969                 0.9457
 IR Inten    --     17.6057                76.8404                 1.0224

                     22                     23                     24
                      A                      A                      A
 Frequencies --   1053.5836              1060.1717              1089.8104
 Red. masses --      1.5280                 4.2012                 4.6103
 Frc consts  --      0.9994                 2.7821                 3.2261
 IR Inten    --     12.2273                12.9043                36.5630

                     25                     26                     27
                      A                      A                      A
 Frequencies --   1154.7712              1161.0575              1183.7284
 Red. masses --      1.4145                 1.1107                 1.3082
 Frc consts  --      1.1114                 0.8821                 1.0800
 IR Inten    --     17.3620                 3.6980                 3.4151

                     28                     29                     30
                      A                      A                      A
 Frequencies --   1193.7943              1222.5429              1285.4492
 Red. masses --      3.3474                 1.5540                 3.3930
 Frc consts  --      2.8107                 1.3685                 3.3032
 IR Inten    --    120.2592                 5.4716                59.3063

                     31                     32                     33
                      A                      A                      A
 Frequencies --   1302.7239              1371.5028              1413.7406
 Red. masses --      1.2796                 1.5265                 1.2469
 Frc consts  --      1.2795                 1.6918                 1.4683
 IR Inten    --      0.8448                 0.9651                 5.4082

                     34                     35                     36
                      A                      A                      A
 Frequencies --   1475.0014              1476.3038              1477.5265
 Red. masses --      1.1447                 1.0394                 1.0397
 Frc consts  --      1.4673                 1.3348                 1.3373
 IR Inten    --      0.3009                 6.1585                 5.9936

                     37                     38                     39
                      A                      A                      A
 Frequencies --   1486.1058              1493.6047              1509.2667
 Red. masses --      1.0520                 1.0748                 1.0523
 Frc consts  --      1.3688                 1.4127                 1.4123
 IR Inten    --      3.0852                 0.3166                 7.2282

                     40                     41                     42
                      A                      A                      A
 Frequencies --   1520.1668              2362.4238              2992.2216
 Red. masses --      1.1100                11.8912                 1.0401
 Frc consts  --      1.5114                39.1012                 5.4868
 IR Inten    --      1.9459                15.4731                34.3315

                     43                     44                     45
                      A                      A                      A
 Frequencies --   3016.5581              3029.3835              3034.4129
 Red. masses --      1.0539                 1.0347                 1.0568
 Frc consts  --      5.6502                 5.5948                 5.7332
 IR Inten    --     84.4856                27.5409                18.8627

                     46                     47                     48
                      A                      A                      A
 Frequencies --   3055.5907              3076.9910              3091.0953
 Red. masses --      1.0972                 1.1099                 1.1117
 Frc consts  --      6.0356                 6.1913                 6.2585
 IR Inten    --     39.3476                32.9721                29.4960

                     49                     50                     51
                      A                      A                      A
 Frequencies --   3091.2527              3092.5402              3125.2129
 Red. masses --      1.1008                 1.1001                 1.0990
 Frc consts  --      6.1979                 6.1991                 6.3242
 IR Inten    --     11.5028                 8.2803                24.5648

 - Thermochemistry -
 -------------------
 Temperature   298.150 Kelvin.  Pressure   1.00000 Atm.
 Atom     1 has atomic number  6 and mass  12.00000

 Molecular mass:   126.06808 amu.
 Principal axes and moments of inertia in atomic units:
                           1         2         3
     Eigenvalues --   812.841011582.473832071.20362
           X            0.99960  -0.02829  -0.00006
           Y            0.02828   0.99909   0.03196
           Z           -0.00084  -0.03195   0.99949
 This molecule is an asymmetric top.
 Rotational symmetry number  1.
 Warning -- assumption of classical behavior for rotation
           may cause significant error
 Rotational temperatures (Kelvin)      0.10656     0.05473     0.04182
 Rotational constants (GHZ):           2.22029     1.14046     0.87135
 Zero-point vibrational energy     409991.7 (Joules/Mol)
                                   97.99036 (Kcal/Mol)
 Warning -- explicit consideration of  14 degrees of freedom as
           vibrations may cause significant error
 Vibrational temperatures:     27.41    76.48   133.94   159.52   193.62
          (Kelvin)            270.31   360.43   426.50   461.28   539.76
                              623.85   726.18   790.41   845.37  1167.97
                             1246.35  1369.02  1398.06  1482.92  1505.57
                             1513.27  1515.87  1525.35  1567.99  1661.46
                             1670.50  1703.12  1717.60  1758.96  1849.47
                             1874.33  1973.28  2034.05  2122.20  2124.07
                             2125.83  2138.17  2148.96  2171.50  2187.18
                             3399.00  4305.13  4340.15  4358.60  4365.84
                             4396.31  4427.10  4447.39  4447.62  4449.47
                             4496.48

 Zero-point correction=                           0.156158 (Hartree/Particle)
 Thermal correction to Energy=                    0.166493
 Thermal correction to Enthalpy=                  0.167437
 Thermal correction to Gibbs Free Energy=         0.118666
 Sum of electronic and zero-point Energies=           -422.964255
 Sum of electronic and thermal Energies=              -422.953920
 Sum of electronic and thermal Enthalpies=            -422.952975
 Sum of electronic and thermal Free Energies=         -423.001746

                     E (Thermal)             CV                S
                      KCal/Mol        Cal/Mol-Kelvin    Cal/Mol-Kelvin
 Total                  104.476             35.125            102.647
 Electronic               0.000              0.000              0.000
 Translational            0.889              2.981             40.409
 Rotational               0.889              2.981             29.367
 Vibrational            102.698             29.163             32.871
 Vibration     1          0.593              1.986              6.731
 Vibration     2          0.596              1.976              4.696
 Vibration     3          0.602              1.954              3.594
 Vibration     4          0.607              1.940              3.254
 Vibration     5          0.613              1.919              2.880
 Vibration     6          0.633              1.857              2.249
 Vibration     7          0.663              1.762              1.727
 Vibration     8          0.690              1.680              1.437
 Vibration     9          0.706              1.634              1.307
 Vibration    10          0.746              1.523              1.059
 Vibration    11          0.794              1.397              0.847
 Vibration    12          0.860              1.240              0.646
 Vibration    13          0.905              1.141              0.545
 Vibration    14          0.945              1.058              0.472

 Optimization completed.
    -- Stationary point found.
 Normal termination of Gaussian 09 at Tue Jan 28 09:41:32 2020.
