 Gaussian 09, Revision D.01,
 Gaussian 09:  ES64L-G09RevD.01 24-Apr-2013

 -----------------------------
 # b3lyp 6-31G(2df,p) opt Freq
 -----------------------------

 -----
 titel
 -----
 Symbolic Z-matrix:
 Charge =  0 Multiplicity = 1

 SCF Done:  E(RB3LYP) =  -423.202184896     A.U. after   14 cycles
 SCF Done:  E(RB3LYP) =  -423.202184992     A.U. after    8 cycles
 SCF Done:  E(RB3LYP) =  -423.202182524     A.U. after    8 cycles
 SCF Done:  E(RB3LYP) =  -423.202185316     A.U. after    8 cycles
 Optimization completed.
    -- Stationary point found.
 Normal termination of Gaussian 09 at Tue Jan 28 00:20:55 2020.

 ----------------------------------------------------------------------
 #N Geom=AllCheck Guess=TCheck SCRF=Check GenChk RB3LYP/6-31G(2df,p) Fr
 eq
 ----------------------------------------------------------------------

 Structure from the checkpoint file:  "/scratch/puck/g09_09537c12-29e5-423d-9f35-d4289eee2957/Gau-116686.chk"
 -----
 titel
 -----
 Charge =  0 Multiplicity = 1

                         Standard orientation:
 ---------------------------------------------------------------------
 Center     Atomic      Atomic             Coordinates (Angstroms)
 Number     Number       Type             X           Y           Z
 ---------------------------------------------------------------------
      1          6           0       -0.776378    2.217644    0.170215
      2          6           0       -0.400497    0.821352   -0.335509
      3          6           0       -1.547365   -0.215106   -0.112418
      4          8           0       -1.847653   -1.008508   -1.259548
      5          6           0       -1.050805   -1.050142    1.040426
      6          6           0        0.230384   -0.813659    1.321215
      7          6           0        0.833662    0.257626    0.436409
      8          6           0        1.865431   -0.357086   -0.496624
      9          8           0        3.048970   -0.152800   -0.458644
     10          1           0        0.041542    2.928691    0.019142
     11          1           0       -1.656772    2.597599   -0.357800
     12          1           0       -1.008501    2.195821    1.241003
     13          1           0       -0.204721    0.874005   -1.412056
     14          1           0       -2.490590    0.295785    0.110890
     15          1           0       -1.126384   -1.637238   -1.376594
     16          1           0       -1.680333   -1.782778    1.533141
     17          1           0        0.817151   -1.321919    2.078783
     18          1           0        1.349036    1.029015    1.018319
     19          1           0        1.422442   -1.052292   -1.251576
 ---------------------------------------------------------------------

 SCF Done:  E(RB3LYP) =  -423.202185316     A.U. after    1 cycles

 The electronic state is 1-A.
 Alpha  occ. eigenvalues --  -19.14554 -19.14178 -10.27628 -10.24064 -10.20542
 Alpha  occ. eigenvalues --  -10.20482 -10.20045 -10.19622 -10.18588  -1.05303
 Alpha  occ. eigenvalues --   -1.02329  -0.85964  -0.76099  -0.73351  -0.67076
 Alpha  occ. eigenvalues --   -0.60161  -0.58316  -0.55877  -0.52404  -0.47551
 Alpha  occ. eigenvalues --   -0.46776  -0.45045  -0.43594  -0.41633  -0.41090
 Alpha  occ. eigenvalues --   -0.40102  -0.38266  -0.37632  -0.34980  -0.33956
 Alpha  occ. eigenvalues --   -0.33213  -0.28572  -0.27121  -0.24894
 Alpha virt. eigenvalues --   -0.03643   0.01006   0.06848   0.09348   0.11395
 Alpha virt. eigenvalues --    0.12458   0.14000   0.14482   0.15209   0.16198
 Alpha virt. eigenvalues --    0.16294   0.17227   0.19269   0.20497   0.22124

 Mulliken charges:
               1
     1  C   -0.411051
     2  C   -0.041622
     3  C    0.091931
     4  O   -0.432210
     5  C   -0.110967
     6  C   -0.090396
     7  C   -0.123392
     8  C    0.159762
     9  O   -0.245793
    10  H    0.123347
    11  H    0.123124
    12  H    0.123902
    13  H    0.088948
    14  H    0.088577
    15  H    0.273892
    16  H    0.108716
    17  H    0.115182
    18  H    0.097057
    19  H    0.060994
 Sum of Mulliken charges =   0.00000

 Dipole moment (field-independent basis, Debye):
    X=             -1.4184    Y=             -0.1376    Z=              1.2383  Tot=              1.8879
 Quadrupole moment (field-independent basis, Debye-Ang):
   XX=            -66.6273   YY=            -50.0225   ZZ=            -53.1428
   XY=             -1.4254   XZ=             -1.3780   YZ=             -0.9504

  Exact polarizability:  92.993   2.473  72.422   1.507  -0.816  67.954
 Approx polarizability: 149.003   8.699 100.595   6.503   1.227 103.774

                      1                      2                      3
                      A                      A                      A
 Frequencies --     38.4048                68.9337               161.1794
 Red. masses --      4.9572                 4.8607                 3.3299
 Frc consts  --      0.0043                 0.0136                 0.0510
 IR Inten    --      2.7438                 6.0956                 0.6808

                      4                      5                      6
                      A                      A                      A
 Frequencies --    203.1353               242.4149               303.1356
 Red. masses --      2.9355                 1.0978                 2.0177
 Frc consts  --      0.0714                 0.0380                 0.1092
 IR Inten    --      1.3455                 0.0943                15.5140

                      7                      8                      9
                      A                      A                      A
 Frequencies --    317.9763               328.6714               371.7162
 Red. masses --      1.2452                 2.2554                 4.1457
 Frc consts  --      0.0742                 0.1436                 0.3375
 IR Inten    --     51.1030                 3.4172                17.5097

                     10                     11                     12
                      A                      A                      A
 Frequencies --    446.2870               507.2607               565.6465
 Red. masses --      5.2741                 3.1773                 3.1548
 Frc consts  --      0.6189                 0.4817                 0.5947
 IR Inten    --      3.5440                12.1208                 2.3275

                     13                     14                     15
                      A                      A                      A
 Frequencies --    699.6477               771.2683               801.8649
 Red. masses --      3.1242                 3.5200                 1.7526
 Frc consts  --      0.9011                 1.2337                 0.6640
 IR Inten    --      8.7375                 1.3535                28.7530

                     16                     17                     18
                      A                      A                      A
 Frequencies --    850.1244               921.3497               941.9340
 Red. masses --      2.0686                 2.2176                 2.4754
 Frc consts  --      0.8808                 1.1091                 1.2940
 IR Inten    --     22.9952                11.7587                 7.3767

                     19                     20                     21
                      A                      A                      A
 Frequencies --    988.5803               997.7701              1010.4854
 Red. masses --      1.2991                 1.8725                 1.9802
 Frc consts  --      0.7480                 1.0983                 1.1913
 IR Inten    --      0.3958                 7.3648                23.3734

                     22                     23                     24
                      A                      A                      A
 Frequencies --   1039.5485              1046.6292              1074.8264
 Red. masses --      2.8603                 2.5856                 2.2637
 Frc consts  --      1.8212                 1.6688                 1.5408
 IR Inten    --     15.0031                71.3687                 9.5165

                     25                     26                     27
                      A                      A                      A
 Frequencies --   1123.7578              1136.3286              1149.0470
 Red. masses --      1.7827                 1.2434                 2.2702
 Frc consts  --      1.3264                 0.9459                 1.7660
 IR Inten    --     24.1029                 6.5697                 7.1639

                     28                     29                     30
                      A                      A                      A
 Frequencies --   1232.5583              1258.6418              1267.8351
 Red. masses --      1.5255                 1.3471                 1.2767
 Frc consts  --      1.3655                 1.2574                 1.2091
 IR Inten    --      7.6177                 5.9130                11.9926

                     31                     32                     33
                      A                      A                      A
 Frequencies --   1295.0826              1307.8925              1352.5205
 Red. masses --      1.3795                 1.4106                 1.5330
 Frc consts  --      1.3633                 1.4216                 1.6523
 IR Inten    --      0.0234                 2.6501                 1.6863

                     34                     35                     36
                      A                      A                      A
 Frequencies --   1376.3360              1408.1339              1417.7018
 Red. masses --      1.5749                 1.2215                 1.1769
 Frc consts  --      1.7578                 1.4270                 1.3937
 IR Inten    --      1.3616                 1.2071                 5.0804

                     37                     38                     39
                      A                      A                      A
 Frequencies --   1428.4366              1497.7959              1498.5834
 Red. masses --      1.2266                 1.0433                 1.0510
 Frc consts  --      1.4746                 1.3790                 1.3906
 IR Inten    --     60.1501                 5.1394                 3.8466

                     40                     41                     42
                      A                      A                      A
 Frequencies --   1673.4704              1835.3530              2828.0262
 Red. masses --      6.4796                10.6696                 1.0809
 Frc consts  --     10.6914                21.1757                 5.0933
 IR Inten    --      5.3813               233.0040               100.7798

                     43                     44                     45
                      A                      A                      A
 Frequencies --   3030.2730              3047.8442              3049.1601
 Red. masses --      1.0357                 1.0845                 1.0842
 Frc consts  --      5.6032                 5.9355                 5.9391
 IR Inten    --     16.1430                10.5961                34.3665

                     46                     47                     48
                      A                      A                      A
 Frequencies --   3059.1036              3100.6528              3107.2080
 Red. masses --      1.0845                 1.1011                 1.1020
 Frc consts  --      5.9796                 6.2372                 6.2684
 IR Inten    --     13.4589                26.3732                21.0052

                     49                     50                     51
                      A                      A                      A
 Frequencies --   3185.3741              3210.3839              3793.4973
 Red. masses --      1.0847                 1.1042                 1.0661
 Frc consts  --      6.4847                 6.7052                 9.0390
 IR Inten    --      3.1935                14.1557                10.8065

 - Thermochemistry -
 -------------------
 Temperature   298.150 Kelvin.  Pressure   1.00000 Atm.
 Atom     1 has atomic number  6 and mass  12.00000

 Molecular mass:   126.06808 amu.
 Principal axes and moments of inertia in atomic units:
                           1         2         3
     Eigenvalues --   797.514321458.988181651.47570
           X            0.99979  -0.02037  -0.00174
           Y            0.02036   0.99979  -0.00270
           Z            0.00180   0.00267   0.99999
 This molecule is an asymmetric top.
 Rotational symmetry number  1.
 Warning -- assumption of classical behavior for rotation
           may cause significant error
 Rotational temperatures (Kelvin)      0.10860     0.05937     0.05245
 Rotational constants (GHZ):           2.26296     1.23698     1.09281
 Zero-point vibrational energy     414923.5 (Joules/Mol)
                                   99.16909 (Kcal/Mol)
 Warning -- explicit consideration of  12 degrees of freedom as
           vibrations may cause significant error
 Vibrational temperatures:     55.26    99.18   231.90   292.27   348.78
          (Kelvin)            436.14   457.50   472.88   534.82   642.11
                              729.83   813.84  1006.64  1109.68  1153.70
                             1223.14  1325.62  1355.23  1422.34  1435.57
                             1453.86  1495.68  1505.86  1546.43  1616.83
                             1634.92  1653.22  1773.37  1810.90  1824.13
                             1863.33  1881.76  1945.97  1980.24  2025.99
                             2039.75  2055.20  2154.99  2156.12  2407.75
                             2640.66  4068.89  4359.88  4385.16  4387.06
                             4401.36  4461.14  4470.57  4583.04  4619.02
                             5457.99

 Zero-point correction=                           0.158036 (Hartree/Particle)
 Thermal correction to Energy=                    0.167223
 Thermal correction to Enthalpy=                  0.168168
 Thermal correction to Gibbs Free Energy=         0.123254
 Sum of electronic and zero-point Energies=           -423.044149
 Sum of electronic and thermal Energies=              -423.034962
 Sum of electronic and thermal Enthalpies=            -423.034018
 Sum of electronic and thermal Free Energies=         -423.078931

                     E (Thermal)             CV                S
                      KCal/Mol        Cal/Mol-Kelvin    Cal/Mol-Kelvin
 Total                  104.934             33.662             94.528
 Electronic               0.000              0.000              0.000
 Translational            0.889              2.981             40.409
 Rotational               0.889              2.981             29.043
 Vibrational            103.157             27.700             25.077
 Vibration     1          0.594              1.982              5.340
 Vibration     2          0.598              1.969              4.184
 Vibration     3          0.622              1.890              2.536
 Vibration     4          0.639              1.835              2.105
 Vibration     5          0.659              1.775              1.785
 Vibration     6          0.695              1.668              1.400
 Vibration     7          0.704              1.639              1.320
 Vibration     8          0.712              1.618              1.267
 Vibration     9          0.743              1.530              1.073
 Vibration    10          0.806              1.369              0.807
 Vibration    11          0.862              1.234              0.640
 Vibration    12          0.922              1.106              0.513

 Optimization completed.
    -- Stationary point found.
 Normal termination of Gaussian 09 at Tue Jan 28 01:10:01 2020.
