 Gaussian 09, Revision D.01,
 Gaussian 09:  ES64L-G09RevD.01 24-Apr-2013

 -----------------------------
 # b3lyp 6-31G(2df,p) opt Freq
 -----------------------------

 -----
 titel
 -----
 Symbolic Z-matrix:
 Charge =  0 Multiplicity = 1

 SCF Done:  E(RB3LYP) =  -423.192875704     A.U. after   14 cycles
 Optimization completed.
    -- Stationary point found.
 Normal termination of Gaussian 09 at Mon Jan 27 13:35:26 2020.

 ----------------------------------------------------------------------
 #N Geom=AllCheck Guess=TCheck SCRF=Check GenChk RB3LYP/6-31G(2df,p) Fr
 eq
 ----------------------------------------------------------------------

 Structure from the checkpoint file:  "/scratch/puck/g09_8c4eb548-c553-4fbf-b234-a72695d17ee1/Gau-46915.chk"
 -----
 titel
 -----
 Charge =  0 Multiplicity = 1

                         Standard orientation:
 ---------------------------------------------------------------------
 Center     Atomic      Atomic             Coordinates (Angstroms)
 Number     Number       Type             X           Y           Z
 ---------------------------------------------------------------------
      1          8           0        2.039161   -1.049499   -0.754468
      2          6           0        1.808160   -1.050488    0.428028
      3          6           0        0.560508   -0.476798    1.063717
      4          6           0       -0.373615    0.215616    0.078223
      5          6           0       -1.059414   -0.724276   -0.964444
      6          6           0       -2.349327   -0.736688   -0.105238
      7          6           0       -1.808801    0.495525    0.664129
      8          6           0        0.263088    1.466550   -0.480471
      9          8           0        1.230822    2.016022   -0.019447
     10          1           0        2.525544   -1.502002    1.150184
     11          1           0        0.053903   -1.297141    1.592269
     12          1           0        0.885598    0.225798    1.842001
     13          1           0       -1.203491   -0.213468   -1.921750
     14          1           0       -0.558236   -1.672598   -1.158538
     15          1           0       -3.300196   -0.614369   -0.627974
     16          1           0       -2.421426   -1.624085    0.529084
     17          1           0       -2.224711    1.434763    0.286638
     18          1           0       -1.883945    0.501047    1.754203
     19          1           0       -0.276501    1.893217   -1.358470
 ---------------------------------------------------------------------

 SCF Done:  E(RB3LYP) =  -423.192875704     A.U. after    1 cycles

 The electronic state is 1-A.
 Alpha  occ. eigenvalues --  -19.14392 -19.13991 -10.27589 -10.26848 -10.20947
 Alpha  occ. eigenvalues --  -10.20208 -10.20132 -10.19367 -10.19298  -1.05195
 Alpha  occ. eigenvalues --   -1.04558  -0.86680  -0.76618  -0.68951  -0.67466
 Alpha  occ. eigenvalues --   -0.59793  -0.58245  -0.52923  -0.50620  -0.48599
 Alpha  occ. eigenvalues --   -0.47976  -0.43975  -0.43633  -0.43562  -0.41041
 Alpha  occ. eigenvalues --   -0.39824  -0.38657  -0.36567  -0.35115  -0.34058
 Alpha  occ. eigenvalues --   -0.32652  -0.31468  -0.25554  -0.24993
 Alpha virt. eigenvalues --   -0.02326  -0.02054   0.07550   0.09193   0.11048
 Alpha virt. eigenvalues --    0.11775   0.12920   0.13837   0.14827   0.15693
 Alpha virt. eigenvalues --    0.16941   0.18771   0.19178   0.20490   0.21805

 Mulliken charges:
               1
     1  O   -0.243433
     2  C    0.170594
     3  C   -0.377294
     4  C    0.250647
     5  C   -0.259737
     6  C   -0.213724
     7  C   -0.272878
     8  C    0.133690
     9  O   -0.269684
    10  H    0.084604
    11  H    0.120943
    12  H    0.142513
    13  H    0.107951
    14  H    0.119799
    15  H    0.105545
    16  H    0.107255
    17  H    0.110051
    18  H    0.110463
    19  H    0.072695
 Sum of Mulliken charges =   0.00000

 Dipole moment (field-independent basis, Debye):
    X=             -2.9690    Y=             -1.3499    Z=              1.6507  Tot=              3.6554
 Quadrupole moment (field-independent basis, Debye-Ang):
   XX=            -56.7247   YY=            -56.2536   ZZ=            -51.7809
   XY=             -3.1946   XZ=              4.3047   YZ=             -3.4216

  Exact polarizability:  84.224   0.881  70.856   3.192  -2.186  72.914
 Approx polarizability: 116.740   5.965 103.318   2.911  -0.465 118.155

                      1                      2                      3
                      A                      A                      A
 Frequencies --     75.0951                92.5155               112.5369
 Red. masses --      3.2602                 5.9301                 2.2817
 Frc consts  --      0.0108                 0.0299                 0.0170
 IR Inten    --      8.2728                 1.1393                 1.2516

                      4                      5                      6
                      A                      A                      A
 Frequencies --    151.8913               154.9718               266.4745
 Red. masses --      4.9473                 2.5355                 2.6843
 Frc consts  --      0.0672                 0.0359                 0.1123
 IR Inten    --      5.3373                 4.8742                 7.1868

                      7                      8                      9
                      A                      A                      A
 Frequencies --    278.8322               346.5238               370.9024
 Red. masses --      2.2140                 2.0560                 2.9440
 Frc consts  --      0.1014                 0.1455                 0.2386
 IR Inten    --      6.9555                 4.3368                 0.3757

                     10                     11                     12
                      A                      A                      A
 Frequencies --    472.4981               631.1951               682.2885
 Red. masses --      5.4644                 2.6087                 1.6196
 Frc consts  --      0.7188                 0.6124                 0.4442
 IR Inten    --      1.3443                 6.6785                 5.9514

                     13                     14                     15
                      A                      A                      A
 Frequencies --    727.9154               772.1707               825.2485
 Red. masses --      1.6642                 1.2863                 3.9725
 Frc consts  --      0.5195                 0.4519                 1.5940
 IR Inten    --      8.3280                 0.1438                 8.0029

                     16                     17                     18
                      A                      A                      A
 Frequencies --    861.1416               905.0287               921.2165
 Red. masses --      2.1728                 2.1709                 2.2387
 Frc consts  --      0.9493                 1.0477                 1.1194
 IR Inten    --      1.5810                23.4223                 0.2279

                     19                     20                     21
                      A                      A                      A
 Frequencies --    950.3504               959.6336               974.9500
 Red. masses --      2.4421                 2.3872                 1.8856
 Frc consts  --      1.2995                 1.2952                 1.0560
 IR Inten    --      0.8814                17.2029                19.1550

                     22                     23                     24
                      A                      A                      A
 Frequencies --   1009.2944              1073.8160              1090.2170
 Red. masses --      1.7963                 1.2594                 2.5064
 Frc consts  --      1.0781                 0.8556                 1.7552
 IR Inten    --      4.2808                 0.4892                 5.8873

                     25                     26                     27
                      A                      A                      A
 Frequencies --   1147.5062              1208.8666              1213.9727
 Red. masses --      2.6310                 1.7267                 1.2955
 Frc consts  --      2.0411                 1.4867                 1.1249
 IR Inten    --      0.2455                 2.9178                 1.4596

                     28                     29                     30
                      A                      A                      A
 Frequencies --   1256.6448              1264.3461              1277.2760
 Red. masses --      1.3232                 1.2511                 1.3836
 Frc consts  --      1.2311                 1.1783                 1.3299
 IR Inten    --      0.6360                 0.3645                 1.2101

                     31                     32                     33
                      A                      A                      A
 Frequencies --   1288.7936              1325.8454              1354.1052
 Red. masses --      1.7682                 1.7290                 2.0465
 Frc consts  --      1.7304                 1.7908                 2.2109
 IR Inten    --      0.4445                 2.4570                16.8066

                     34                     35                     36
                      A                      A                      A
 Frequencies --   1415.9315              1417.3824              1438.8470
 Red. masses --      1.1998                 1.1180                 1.1952
 Frc consts  --      1.4173                 1.3233                 1.4579
 IR Inten    --      9.8032                15.7544                 8.9812

                     37                     38                     39
                      A                      A                      A
 Frequencies --   1474.6147              1485.4146              1505.6477
 Red. masses --      1.0841                 1.0827                 1.1233
 Frc consts  --      1.3889                 1.4075                 1.5004
 IR Inten    --      2.3585                 1.9822                 0.6912

                     40                     41                     42
                      A                      A                      A
 Frequencies --   1818.1998              1830.4628              2856.1385
 Red. masses --     10.7568                10.2133                 1.0827
 Frc consts  --     20.9515                20.1622                 5.2036
 IR Inten    --    153.1796               131.0657               110.5942

                     43                     44                     45
                      A                      A                      A
 Frequencies --   2877.6382              3019.3039              3051.7669
 Red. masses --      1.0833                 1.0636                 1.0589
 Frc consts  --      5.2855                 5.7128                 5.8105
 IR Inten    --    137.4539                14.8024                33.0859

                     46                     47                     48
                      A                      A                      A
 Frequencies --   3058.6040              3059.5209              3065.3006
 Red. masses --      1.0943                 1.0664                 1.0610
 Frc consts  --      6.0313                 5.8811                 5.8738
 IR Inten    --      3.0485                15.7570                37.6815

                     49                     50                     51
                      A                      A                      A
 Frequencies --   3102.0386              3117.3480              3134.2216
 Red. masses --      1.1054                 1.1059                 1.1025
 Frc consts  --      6.2672                 6.3320                 6.3810
 IR Inten    --      7.3169                29.4771                26.9216

 - Thermochemistry -
 -------------------
 Temperature   298.150 Kelvin.  Pressure   1.00000 Atm.
 Atom     1 has atomic number  8 and mass  15.99491

 Molecular mass:   126.06808 amu.
 Principal axes and moments of inertia in atomic units:
                           1         2         3
     Eigenvalues --   781.380211255.220881592.27618
           X            0.99977  -0.00629   0.02049
           Y            0.00690   0.99953  -0.02994
           Z           -0.02029   0.03007   0.99934
 This molecule is an asymmetric top.
 Rotational symmetry number  1.
 Warning -- assumption of classical behavior for rotation
           may cause significant error
 Rotational temperatures (Kelvin)      0.11085     0.06900     0.05440
 Rotational constants (GHZ):           2.30968     1.43779     1.13343
 Zero-point vibrational energy     411350.6 (Joules/Mol)
                                   98.31515 (Kcal/Mol)
 Warning -- explicit consideration of  10 degrees of freedom as
           vibrations may cause significant error
 Vibrational temperatures:    108.04   133.11   161.92   218.54   222.97
          (Kelvin)            383.40   401.18   498.57   533.65   679.82
                              908.15   981.66  1047.31  1110.98  1187.35
                             1238.99  1302.13  1325.42  1367.34  1380.70
                             1402.73  1452.15  1544.98  1568.58  1651.00
                             1739.29  1746.63  1808.03  1819.11  1837.71
                             1854.28  1907.59  1948.25  2037.21  2039.29
                             2070.18  2121.64  2137.18  2166.29  2615.98
                             2633.62  4109.34  4140.27  4344.10  4390.81
                             4400.64  4401.96  4410.28  4463.14  4485.16
                             4509.44

 Zero-point correction=                           0.156675 (Hartree/Particle)
 Thermal correction to Energy=                    0.165953
 Thermal correction to Enthalpy=                  0.166897
 Thermal correction to Gibbs Free Energy=         0.122097
 Sum of electronic and zero-point Energies=           -423.036201
 Sum of electronic and thermal Energies=              -423.026923
 Sum of electronic and thermal Enthalpies=            -423.025979
 Sum of electronic and thermal Free Energies=         -423.070779

                     E (Thermal)             CV                S
                      KCal/Mol        Cal/Mol-Kelvin    Cal/Mol-Kelvin
 Total                  104.137             33.270             94.290
 Electronic               0.000              0.000              0.000
 Translational            0.889              2.981             40.409
 Rotational               0.889              2.981             28.837
 Vibrational            102.359             27.308             25.045
 Vibration     1          0.599              1.966              4.015
 Vibration     2          0.602              1.955              3.606
 Vibration     3          0.607              1.939              3.225
 Vibration     4          0.619              1.901              2.648
 Vibration     5          0.620              1.897              2.610
 Vibration     6          0.672              1.735              1.619
 Vibration     7          0.679              1.713              1.541
 Vibration     8          0.725              1.582              1.182
 Vibration     9          0.743              1.532              1.076
 Vibration    10          0.829              1.311              0.731

 Optimization completed.
    -- Stationary point found.
 Normal termination of Gaussian 09 at Mon Jan 27 14:16:45 2020.
