 Gaussian 09, Revision D.01,
 Gaussian 09:  ES64L-G09RevD.01 24-Apr-2013

 -----------------------------
 # b3lyp 6-31G(2df,p) opt Freq
 -----------------------------

 -----
 titel
 -----
 Symbolic Z-matrix:
 Charge =  0 Multiplicity = 1

 SCF Done:  E(RB3LYP) =  -423.159784358     A.U. after   13 cycles
 Optimization completed.
    -- Stationary point found.
 Normal termination of Gaussian 09 at Tue Jan 28 14:10:24 2020.

 ----------------------------------------------------------------------
 #N Geom=AllCheck Guess=TCheck SCRF=Check GenChk RB3LYP/6-31G(2df,p) Fr
 eq
 ----------------------------------------------------------------------

 Structure from the checkpoint file:  "/scratch/puck/g09_ffde18db-39a0-451e-b51c-ca3e872940ad/Gau-32302.chk"
 -----
 titel
 -----
 Charge =  0 Multiplicity = 1

                         Standard orientation:
 ---------------------------------------------------------------------
 Center     Atomic      Atomic             Coordinates (Angstroms)
 Number     Number       Type             X           Y           Z
 ---------------------------------------------------------------------
      1          6           0        2.904514   -0.667961   -0.130746
      2          8           0        1.994372    0.397046   -0.282765
      3          6           0        0.775132    0.211716    0.422201
      4          6           0        0.061818    1.540482    0.520592
      5          6           0       -1.112683    1.552851   -0.109085
      6          6           0       -1.426859    0.224241   -0.736020
      7          8           0       -2.368248   -0.580562    0.030349
      8          6           0       -1.304316   -1.421166    0.521608
      9          6           0       -0.241656   -0.682550   -0.320481
     10          1           0        2.512925   -1.616227   -0.530219
     11          1           0        3.807391   -0.403974   -0.686679
     12              11          1           0        3.807391   -0.403974   -0.686679
     12          1           0        3.170579   -0.827410    0.926241
     13          1           0        1.003642   -0.195059    1.423226
     14          1           0        0.507271    2.375007    1.050439
     15          1           0       -1.791059    2.397283   -0.157531
     16          1           0       -1.735081    0.281541   -1.785467
     17          1           0       -1.177429   -1.337252    1.609819
     18          1           0       -1.471093   -2.473511    0.263682
     19          1           0        0.228164   -1.277961   -1.102588
 ---------------------------------------------------------------------

 SCF Done:  E(RB3LYP) =  -423.159784358     A.U. after    1 cycles

 The electronic state is 1-A.
 Alpha  occ. eigenvalues --  -19.14160 -19.12760 -10.23853 -10.23326 -10.22894
 Alpha  occ. eigenvalues --  -10.22670 -10.18972 -10.18894 -10.18696  -1.03663
 Alpha  occ. eigenvalues --   -1.02989  -0.83115  -0.73782  -0.70958  -0.67556
 Alpha  occ. eigenvalues --   -0.63509  -0.55751  -0.53762  -0.52177  -0.49848
 Alpha  occ. eigenvalues --   -0.47361  -0.45125  -0.44328  -0.42539  -0.42358
 Alpha  occ. eigenvalues --   -0.39253  -0.36947  -0.35666  -0.32932  -0.31138
 Alpha  occ. eigenvalues --   -0.30727  -0.26898  -0.25391  -0.24497
 Alpha virt. eigenvalues --    0.00196   0.08299   0.09216   0.11524   0.11968
 Alpha virt. eigenvalues --    0.12701   0.13880   0.15534   0.16042   0.16185
 Alpha virt. eigenvalues --    0.17148   0.17690   0.19422   0.20677   0.21714

 Mulliken charges:
               1
     1  C   -0.237836
     2  O   -0.249319
     3  C    0.081169
     4  C   -0.089779
     5  C   -0.081924
     6  C    0.091300
     7  O   -0.296862
     8  C   -0.086171
     9  C   -0.113294
    10  H    0.103236
    11  H    0.129140
    12  H    0.105009
    13  H    0.065659
    14  H    0.106202
    15  H    0.105825
    16  H    0.080934
    17  H    0.097318
    18  H    0.101816
    19  H    0.087576
 Sum of Mulliken charges =   0.00000

 Dipole moment (field-independent basis, Debye):
    X=              1.5258    Y=             -0.6905    Z=              0.3188  Tot=              1.7049
 Quadrupole moment (field-independent basis, Debye-Ang):
   XX=            -57.6719   YY=            -50.1295   ZZ=            -52.0633
   XY=             -4.2746   XZ=              2.1631   YZ=              0.6420

  Exact polarizability:  88.837  -2.764  77.116   6.047   0.347  63.945
 Approx polarizability: 126.290  -1.847 107.951  12.851  -1.102 100.432

                      1                      2                      3
                      A                      A                      A
 Frequencies --     75.2767               110.4034               171.8021
 Red. masses --      3.2861                 2.3066                 1.7714
 Frc consts  --      0.0110                 0.0166                 0.0308
 IR Inten    --      1.4375                 2.1318                 1.5721

                      4                      5                      6
                      A                      A                      A
 Frequencies --    191.2301               274.6718               301.2951
 Red. masses --      1.9451                 2.8483                 3.3322
 Frc consts  --      0.0419                 0.1266                 0.1782
 IR Inten    --      2.8086                 3.8313                 2.1071

                      7                      8                      9
                      A                      A                      A
 Frequencies --    407.7035               435.5905               537.6546
 Red. masses --      2.9766                 3.7778                 3.8497
 Frc consts  --      0.2915                 0.4223                 0.6557
 IR Inten    --      9.7292                 2.5415                 0.6564

                     10                     11                     12
                      A                      A                      A
 Frequencies --    694.5631               743.8815               776.0762
 Red. masses --      4.9847                 3.2685                 1.7477
 Frc consts  --      1.4168                 1.0656                 0.6202
 IR Inten    --      4.6687                 1.9633                 6.6767

                     13                     14                     15
                      A                      A                      A
 Frequencies --    857.3292               870.2528               905.8209
 Red. masses --      1.9801                 2.2206                 3.0191
 Frc consts  --      0.8575                 0.9908                 1.4596
 IR Inten    --      8.4273                 5.2559                15.6330

                     16                     17                     18
                      A                      A                      A
 Frequencies --    952.6315               982.2344               985.0888
 Red. masses --      2.9373                 1.7200                 1.7631
 Frc consts  --      1.5706                 0.9777                 1.0080
 IR Inten    --      3.5564                 9.8774                 3.4236

                     19                     20                     21
                      A                      A                      A
 Frequencies --   1000.1990              1012.5521              1023.6733
 Red. masses --      3.1877                 6.5060                 2.5539
 Frc consts  --      1.8789                 3.9301                 1.5768
 IR Inten    --     57.6499                49.2654                33.5489

                     22                     23                     24
                      A                      A                      A
 Frequencies --   1063.4514              1103.1458              1124.8957
 Red. masses --      2.3571                 2.1977                 1.3822
 Frc consts  --      1.5706                 1.5757                 1.0305
 IR Inten    --      4.3882                19.6068                28.6692

                     25                     26                     27
                      A                      A                      A
 Frequencies --   1145.0144              1164.6034              1182.3240
 Red. masses --      2.8830                 1.1307                 1.3058
 Frc consts  --      2.2270                 0.9036                 1.0755
 IR Inten    --    130.2530                 2.4393                 3.2012

                     28                     29                     30
                      A                      A                      A
 Frequencies --   1200.0039              1220.8869              1263.2389
 Red. masses --      1.6478                 1.5863                 1.4220
 Frc consts  --      1.3980                 1.3931                 1.3370
 IR Inten    --      4.9841                35.4754                 1.2834

                     31                     32                     33
                      A                      A                      A
 Frequencies --   1293.6597              1304.1420              1335.6718
 Red. masses --      1.3810                 1.4210                 1.5539
 Frc consts  --      1.3617                 1.4239                 1.6333
 IR Inten    --      1.1487                 1.4151                10.7840

                     34                     35                     36
                      A                      A                      A
 Frequencies --   1353.2541              1366.8211              1394.8570
 Red. masses --      1.5460                 1.3562                 1.5444
 Frc consts  --      1.6681                 1.4928                 1.7704
 IR Inten    --      4.1728                 3.3061                51.9894

                     37                     38                     39
                      A                      A                      A
 Frequencies --   1478.7300              1488.2990              1509.3277
 Red. masses --      1.1290                 1.0637                 1.0621
 Frc consts  --      1.4545                 1.3882                 1.4255
 IR Inten    --      1.3557                 4.2636                 6.4576

                     40                     41                     42
                      A                      A                      A
 Frequencies --   1519.8835              1677.6673              2941.5678
 Red. masses --      1.0990                 6.5379                 1.0807
 Frc consts  --      1.4957                10.8418                 5.5093
 IR Inten    --      0.7165                 0.5519                33.7139

                     43                     44                     45
                      A                      A                      A
 Frequencies --   2972.1514              3003.3724              3016.7235
 Red. masses --      1.0378                 1.0587                 1.1026
 Frc consts  --      5.4014                 5.6265                 5.9120
 IR Inten    --     62.1880                75.4998                55.0705

                     46                     47                     48
                      A                      A                      A
 Frequencies --   3049.3274              3052.6857              3114.4086
 Red. masses --      1.0871                 1.1057                 1.0957
 Frc consts  --      5.9558                 6.0710                 6.2619
 IR Inten    --     36.5806                50.2812                31.3646

                     49                     50                     51
                      A                      A                      A
 Frequencies --   3121.7035              3188.4193              3212.6843
 Red. masses --      1.0879                 1.0849                 1.1044
 Frc consts  --      6.2466                 6.4981                 6.7159
 IR Inten    --     21.0241                 5.5133                15.2592

 - Thermochemistry -
 -------------------
 Temperature   298.150 Kelvin.  Pressure   1.00000 Atm.
 Atom     1 has atomic number  6 and mass  12.00000

 Molecular mass:   126.06808 amu.
 Principal axes and moments of inertia in atomic units:
                           1         2         3
     Eigenvalues --   557.056781408.635801751.90002
           X            0.99954  -0.02993   0.00539
           Y            0.02992   0.99955   0.00252
           Z           -0.00546  -0.00236   0.99998
 This molecule is an asymmetric top.
 Rotational symmetry number  1.
 Warning -- assumption of classical behavior for rotation
           may cause significant error
 Rotational temperatures (Kelvin)      0.15548     0.06149     0.04944
 Rotational constants (GHZ):           3.23978     1.28120     1.03016
 Zero-point vibrational energy     419726.9 (Joules/Mol)
                                  100.31713 (Kcal/Mol)
 Warning -- explicit consideration of   9 degrees of freedom as
           vibrations may cause significant error
 Vibrational temperatures:    108.31   158.85   247.18   275.14   395.19
          (Kelvin)            433.50   586.59   626.72   773.56   999.32
                             1070.28  1116.60  1233.50  1252.10  1303.27
                             1370.62  1413.21  1417.32  1439.06  1456.83
                             1472.84  1530.07  1587.18  1618.47  1647.42
                             1675.60  1701.10  1726.54  1756.58  1817.52
                             1861.29  1876.37  1921.73  1947.03  1966.55
                             2006.89  2127.56  2141.33  2171.58  2186.77
                             2413.79  4232.25  4276.26  4321.18  4340.39
                             4387.30  4392.13  4480.93  4491.43  4587.42
                             4622.33

 Zero-point correction=                           0.159866 (Hartree/Particle)
 Thermal correction to Energy=                    0.167984
 Thermal correction to Enthalpy=                  0.168929
 Thermal correction to Gibbs Free Energy=         0.126727
 Sum of electronic and zero-point Energies=           -422.999919
 Sum of electronic and thermal Energies=              -422.991800
 Sum of electronic and thermal Enthalpies=            -422.990856
 Sum of electronic and thermal Free Energies=         -423.033057

                     E (Thermal)             CV                S
                      KCal/Mol        Cal/Mol-Kelvin    Cal/Mol-Kelvin
 Total                  105.412             30.414             88.820
 Electronic               0.000              0.000              0.000
 Translational            0.889              2.981             40.409
 Rotational               0.889              2.981             28.710
 Vibrational            103.634             24.452             19.701
 Vibration     1          0.599              1.965              4.010
 Vibration     2          0.606              1.941              3.262
 Vibration     3          0.626              1.877              2.416
 Vibration     4          0.634              1.852              2.216
 Vibration     5          0.677              1.720              1.567
 Vibration     6          0.693              1.671              1.410
 Vibration     7          0.772              1.453              0.935
 Vibration     8          0.796              1.393              0.841
 Vibration     9          0.893              1.167              0.570

 Optimization completed.
    -- Stationary point found.
 Normal termination of Gaussian 09 at Tue Jan 28 14:59:53 2020.
