 Gaussian 09, Revision D.01,
 Gaussian 09:  ES64L-G09RevD.01 24-Apr-2013

 -----------------------------
 # b3lyp 6-31G(2df,p) opt Freq
 -----------------------------

 -----
 titel
 -----
 Symbolic Z-matrix:
 Charge =  0 Multiplicity = 1

 SCF Done:  E(RB3LYP) =  -423.104767864     A.U. after   12 cycles
 Optimization completed.
    -- Stationary point found.
 Normal termination of Gaussian 09 at Tue Jan 28 12:46:39 2020.

 ----------------------------------------------------------------------
 #N Geom=AllCheck Guess=TCheck SCRF=Check GenChk RB3LYP/6-31G(2df,p) Fr
 eq
 ----------------------------------------------------------------------

 Structure from the checkpoint file:  "/scratch/puck/g09_3c0ecdf3-58b5-4244-98a9-6880ce163370/Gau-10879.chk"
 -----
 titel
 -----
 Charge =  0 Multiplicity = 1

                         Standard orientation:
 ---------------------------------------------------------------------
 Center     Atomic      Atomic             Coordinates (Angstroms)
 Number     Number       Type             X           Y           Z
 ---------------------------------------------------------------------
      1          6           0        3.152040    0.130092   -0.138714
      2          8           0        2.006639   -0.668519    0.068497
      3          6           0        0.837561   -0.115576   -0.482750
      4          6           0       -0.359893   -1.000841   -0.175439
      5          6           0       -0.639688   -0.249505    1.131740
      6          6           0        0.127546    0.930342    0.436607
      7          8           0       -1.050073    1.290509   -0.332845
      8          6           0       -1.544109   -0.027681   -0.031050
      9          6           0       -2.975474   -0.341882   -0.298596
     10          1           0        3.072236    1.112995    0.349048
     11          1           0        4.000318   -0.406207    0.292946
     12          1           0        3.342457    0.294206   -1.210455
     13          1           0        1.003644    0.206580   -1.522232
     14          1           0       -0.481601   -2.054877   -0.389791
     15          1           0       -0.783961   -0.575034    2.152019
     16          1           0        0.640195    1.773295    0.895252
     17          1           0       -3.630408    0.362397    0.223603
     18          1           0       -3.192364   -0.285186   -1.370533
     19          1           0       -3.210944   -1.353785    0.044146
 ---------------------------------------------------------------------

 SCF Done:  E(RB3LYP) =  -423.104767864     A.U. after    1 cycles

 The electronic state is 1-A.
 Alpha  occ. eigenvalues --  -19.14156 -19.13314 -10.24447 -10.23820 -10.23266
 Alpha  occ. eigenvalues --  -10.22466 -10.19150 -10.19105 -10.18600  -1.06210
 Alpha  occ. eigenvalues --   -1.03171  -0.85272  -0.76004  -0.70738  -0.66006
 Alpha  occ. eigenvalues --   -0.63546  -0.55177  -0.53709  -0.51295  -0.49091
 Alpha  occ. eigenvalues --   -0.46984  -0.45551  -0.43292  -0.42607  -0.40914
 Alpha  occ. eigenvalues --   -0.39464  -0.37751  -0.36222  -0.35718  -0.30965
 Alpha  occ. eigenvalues --   -0.29448  -0.27573  -0.25038  -0.22244
 Alpha virt. eigenvalues --    0.08222   0.08820   0.10744   0.10968   0.12395
 Alpha virt. eigenvalues --    0.13361   0.14108   0.14953   0.16067   0.16531
 Alpha virt. eigenvalues --    0.17692   0.18621   0.19392   0.19766   0.21915

 Mulliken charges:
               1
     1  C   -0.238469
     2  O   -0.251100
     3  C    0.152917
     4  C   -0.208826
     5  C   -0.183300
     6  C    0.011002
     7  O   -0.328091
     8  C    0.470349
     9  C   -0.505305
    10  H    0.105677
    11  H    0.128453
    12  H    0.108648
    13  H    0.065261
    14  H    0.093030
    15  H    0.099683
    16  H    0.084916
    17  H    0.133053
    18  H    0.133998
    19  H    0.128103
 Sum of Mulliken charges =   0.00000

 Dipole moment (field-independent basis, Debye):
    X=              0.1913    Y=             -0.4715    Z=              0.4088  Tot=              0.6527
 Quadrupole moment (field-independent basis, Debye-Ang):
   XX=            -48.0135   YY=            -54.9154   ZZ=            -52.3382
   XY=              5.6267   XZ=             -1.2360   YZ=              1.5561

  Exact polarizability:  94.355   3.335  66.758   0.326   1.074  65.936
 Approx polarizability: 114.453   0.950 106.031   2.215   0.227 103.378

                      1                      2                      3
                      A                      A                      A
 Frequencies --     96.0609               143.7827               164.8993
 Red. masses --      2.4662                 2.1565                 1.6379
 Frc consts  --      0.0134                 0.0263                 0.0262
 IR Inten    --      2.4917                 1.3929                 1.3583

                      4                      5                      6
                      A                      A                      A
 Frequencies --    196.7415               231.9795               300.8001
 Red. masses --      1.0412                 2.4675                 2.9693
 Frc consts  --      0.0237                 0.0782                 0.1583
 IR Inten    --      0.1105                 0.2838                 3.6304

                      7                      8                      9
                      A                      A                      A
 Frequencies --    310.2983               419.9070               508.9435
 Red. masses --      2.9235                 3.8888                 4.5716
 Frc consts  --      0.1659                 0.4040                 0.6977
 IR Inten    --      5.5516                 0.6826                 1.9943

                     10                     11                     12
                      A                      A                      A
 Frequencies --    552.6680               643.3416               775.9116
 Red. masses --      4.0658                 3.4261                 3.3714
 Frc consts  --      0.7317                 0.8355                 1.1959
 IR Inten    --      3.4454                 5.7047                 8.9138

                     13                     14                     15
                      A                      A                      A
 Frequencies --    803.3037               810.6658               859.0416
 Red. masses --      1.8484                 2.0150                 2.8941
 Frc consts  --      0.7028                 0.7802                 1.2583
 IR Inten    --      5.7773                 6.7333                 9.8460

                     16                     17                     18
                      A                      A                      A
 Frequencies --    892.3761               916.5798               928.7723
 Red. masses --      1.8215                 1.8878                 2.3972
 Frc consts  --      0.8546                 0.9344                 1.2184
 IR Inten    --      4.8655                18.5932                16.8176

                     19                     20                     21
                      A                      A                      A
 Frequencies --    969.6660               982.8903              1000.0492
 Red. masses --      2.8297                 2.3892                 2.5583
 Frc consts  --      1.5676                 1.3599                 1.5075
 IR Inten    --     31.1526                 6.1216                 6.5122

                     22                     23                     24
                      A                      A                      A
 Frequencies --   1056.2471              1078.0656              1104.6758
 Red. masses --      2.7496                 3.0083                 1.8753
 Frc consts  --      1.8074                 2.0599                 1.3483
 IR Inten    --     21.5098                 2.2778                 8.9279

                     25                     26                     27
                      A                      A                      A
 Frequencies --   1136.8667              1146.6822              1148.9243
 Red. masses --      2.0438                 2.1708                 2.3606
 Frc consts  --      1.5563                 1.6818                 1.8360
 IR Inten    --      6.9387                71.1484               105.6700

                     28                     29                     30
                      A                      A                      A
 Frequencies --   1182.9018              1186.4663              1220.7644
 Red. masses --      1.2999                 1.6264                 1.5957
 Frc consts  --      1.0716                 1.3489                 1.4011
 IR Inten    --      3.0931                 4.1297                28.7783

                     31                     32                     33
                      A                      A                      A
 Frequencies --   1255.7221              1278.7133              1286.6442
 Red. masses --      2.2149                 1.5754                 1.7751
 Frc consts  --      2.0578                 1.5177                 1.7314
 IR Inten    --     27.1499                10.4170                 4.1275

                     34                     35                     36
                      A                      A                      A
 Frequencies --   1377.4822              1400.3251              1461.2675
 Red. masses --      1.4492                 1.2958                 3.6418
 Frc consts  --      1.6201                 1.4971                 4.5817
 IR Inten    --     49.8002                 6.7388                19.5013

                     37                     38                     39
                      A                      A                      A
 Frequencies --   1473.5151              1481.1785              1489.0099
 Red. masses --      1.0848                 1.1337                 1.0660
 Frc consts  --      1.3878                 1.4654                 1.3925
 IR Inten    --      3.9173                 2.2353                 3.6448

                     40                     41                     42
                      A                      A                      A
 Frequencies --   1501.1326              1509.2231              2978.0787
 Red. masses --      1.1206                 1.0626                 1.0434
 Frc consts  --      1.4878                 1.4260                 5.4520
 IR Inten    --      5.7932                 6.8752                33.4299

                     43                     44                     45
                      A                      A                      A
 Frequencies --   2990.1358              3026.7647              3036.7477
 Red. masses --      1.0760                 1.1030                 1.0351
 Frc consts  --      5.6683                 5.9536                 5.6240
 IR Inten    --     90.6329                50.6621                24.8032

                     46                     47                     48
                      A                      A                      A
 Frequencies --   3103.4425              3116.0973              3116.9466
 Red. masses --      1.1014                 1.1007                 1.0965
 Frc consts  --      6.2499                 6.2970                 6.2768
 IR Inten    --     15.3185                14.1256                29.2240

                     49                     50                     51
                      A                      A                      A
 Frequencies --   3144.6216              3200.2245              3216.7439
 Red. masses --      1.0923                 1.0912                 1.1005
 Frc consts  --      6.3641                 6.5845                 6.7095
 IR Inten    --     32.4539                10.6798                 7.0333

 - Thermochemistry -
 -------------------
 Temperature   298.150 Kelvin.  Pressure   1.00000 Atm.
 Atom     1 has atomic number  6 and mass  12.00000

 Molecular mass:   126.06808 amu.
 Principal axes and moments of inertia in atomic units:
                           1         2         3
     Eigenvalues --   376.380051643.068611765.64345
           X            0.99965   0.02660  -0.00133
           Y           -0.02654   0.99910   0.03305
           Z            0.00221  -0.03300   0.99945
 This molecule is an asymmetric top.
 Rotational symmetry number  1.
 Rotational temperatures (Kelvin)      0.23012     0.05271     0.04906
 Rotational constants (GHZ):           4.79500     1.09840     1.02214
 Zero-point vibrational energy     413993.4 (Joules/Mol)
                                   98.94679 (Kcal/Mol)
 Warning -- explicit consideration of  10 degrees of freedom as
           vibrations may cause significant error
 Vibrational temperatures:    138.21   206.87   237.25   283.07   333.77
          (Kelvin)            432.78   446.45   604.15   732.26   795.16
                              925.62  1116.36  1155.77  1166.37  1235.97
                             1283.93  1318.75  1336.29  1395.13  1414.16
                             1438.85  1519.70  1551.09  1589.38  1635.70
                             1649.82  1653.04  1701.93  1707.06  1756.41
                             1806.70  1839.78  1851.19  1981.89  2014.75
                             2102.44  2120.06  2131.08  2142.35  2159.79
                             2171.43  4284.79  4302.13  4354.83  4369.20
                             4465.16  4483.36  4484.59  4524.40  4604.40
                             4628.17

 Zero-point correction=                           0.157682 (Hartree/Particle)
 Thermal correction to Energy=                    0.166120
 Thermal correction to Enthalpy=                  0.167064
 Thermal correction to Gibbs Free Energy=         0.124730
 Sum of electronic and zero-point Energies=           -422.947086
 Sum of electronic and thermal Energies=              -422.938648
 Sum of electronic and thermal Enthalpies=            -422.937703
 Sum of electronic and thermal Free Energies=         -422.980038

                     E (Thermal)             CV                S
                      KCal/Mol        Cal/Mol-Kelvin    Cal/Mol-Kelvin
 Total                  104.242             31.996             89.101
 Electronic               0.000              0.000              0.000
 Translational            0.889              2.981             40.409
 Rotational               0.889              2.981             28.481
 Vibrational            102.465             26.035             20.211
 Vibration     1          0.603              1.952              3.533
 Vibration     2          0.616              1.909              2.753
 Vibration     3          0.623              1.886              2.493
 Vibration     4          0.636              1.844              2.163
 Vibration     5          0.653              1.792              1.864
 Vibration     6          0.693              1.672              1.412
 Vibration     7          0.699              1.654              1.361
 Vibration     8          0.783              1.427              0.892
 Vibration     9          0.864              1.230              0.636
 Vibration    10          0.908              1.134              0.539

 Normal termination of Gaussian 09 at Tue Jan 28 14:44:58 2020.
