 Gaussian 09, Revision D.01,
 Gaussian 09:  ES64L-G09RevD.01 24-Apr-2013

 -----------------------------
 # b3lyp 6-31G(2df,p) opt Freq
 -----------------------------

 -----
 titel
 -----
 Symbolic Z-matrix:
 Charge =  0 Multiplicity = 1

 SCF Done:  E(RB3LYP) =  -423.181525822     A.U. after   14 cycles
 Optimization completed.
    -- Stationary point found.
 Normal termination of Gaussian 09 at Mon Jan 27 13:38:20 2020.

 ----------------------------------------------------------------------
 #N Geom=AllCheck Guess=TCheck SCRF=Check GenChk RB3LYP/6-31G(2df,p) Fr
 eq
 ----------------------------------------------------------------------

 Structure from the checkpoint file:  "/scratch/puck/g09_4628867c-e743-4041-95b7-428f5d79f168/Gau-53059.chk"
 -----
 titel
 -----
 Charge =  0 Multiplicity = 1

                         Standard orientation:
 ---------------------------------------------------------------------
 Center     Atomic      Atomic             Coordinates (Angstroms)
 Number     Number       Type             X           Y           Z
 ---------------------------------------------------------------------
      1          8           0       -3.187958   -0.041150   -0.138097
      2          6           0       -2.084711    0.147887    0.304705
      3          6           0       -0.791869   -0.231705   -0.391774
      4          6           0       -0.079127   -1.372825    0.369171
      5          6           0        1.361226   -1.502208   -0.122451
      6          8           0        2.115065   -0.340589    0.192117
      7          6           0        1.600507    0.850291   -0.332588
      8          6           0        0.779816    1.706621    0.592392
      9          6           0        0.114805    0.982898   -0.565865
     10          1           0       -1.937390    0.630003    1.299112
     11          1           0       -1.066190   -0.601380   -1.385887
     12          1           0       -0.063854   -1.177288    1.448663
     13          1           0       -0.624119   -2.309834    0.215791
     14          1           0        1.874137   -2.328757    0.376708
     15          1           0        1.375048   -1.696932   -1.206965
     16          1           0        2.279828    1.329479   -1.033956
     17          1           0        0.651937    1.316265    1.595732
     18          1           0        0.862658    2.786099    0.533493
     19          1           0       -0.172796    1.620507   -1.396394
 ---------------------------------------------------------------------

 SCF Done:  E(RB3LYP) =  -423.181525822     A.U. after    1 cycles

 The electronic state is 1-A.
 Alpha  occ. eigenvalues --  -19.14849 -19.14026 -10.26968 -10.24225 -10.23761
 Alpha  occ. eigenvalues --  -10.20687 -10.20627 -10.19945 -10.19285  -1.04741
 Alpha  occ. eigenvalues --   -1.04526  -0.86402  -0.80774  -0.71230  -0.64860
 Alpha  occ. eigenvalues --   -0.61792  -0.57619  -0.55271  -0.52149  -0.49590
 Alpha  occ. eigenvalues --   -0.47228  -0.45938  -0.44575  -0.43501  -0.41259
 Alpha  occ. eigenvalues --   -0.39605  -0.38964  -0.36814  -0.35972  -0.33346
 Alpha  occ. eigenvalues --   -0.31873  -0.29004  -0.25314  -0.24410
 Alpha virt. eigenvalues --   -0.02310   0.07731   0.08786   0.10484   0.11989
 Alpha virt. eigenvalues --    0.12940   0.13084   0.15243   0.15820   0.15874
 Alpha virt. eigenvalues --    0.17383   0.18474   0.18941   0.20404   0.22061

 Mulliken charges:
               1
     1  O   -0.249080
     2  C    0.156861
     3  C   -0.085592
     4  C   -0.242742
     5  C   -0.073315
     6  O   -0.256199
     7  C    0.094271
     8  C   -0.311920
     9  C   -0.074931
    10  H    0.074052
    11  H    0.094583
    12  H    0.110857
    13  H    0.116013
    14  H    0.113165
    15  H    0.093282
    16  H    0.096946
    17  H    0.123430
    18  H    0.117259
    19  H    0.103061
 Sum of Mulliken charges =   0.00000

 Dipole moment (field-independent basis, Debye):
    X=              1.6193    Y=              0.0363    Z=             -0.1132  Tot=              1.6236
 Quadrupole moment (field-independent basis, Debye-Ang):
   XX=            -69.0698   YY=            -48.4439   ZZ=            -51.4184
   XY=              0.0849   XZ=             -2.9534   YZ=             -0.7596

  Exact polarizability:  83.837   0.733  77.232   0.539   2.344  65.985
 Approx polarizability: 121.543   2.042 106.242   6.341   4.520 104.387

                      1                      2                      3
                      A                      A                      A
 Frequencies --     56.3586                91.9594               194.8571
 Red. masses --      4.8964                 4.3438                 2.9951
 Frc consts  --      0.0092                 0.0216                 0.0670
 IR Inten    --      6.6051                 5.9691                 0.1591

                      4                      5                      6
                      A                      A                      A
 Frequencies --    264.9643               311.1755               347.7090
 Red. masses --      2.0627                 2.1177                 7.0387
 Frc consts  --      0.0853                 0.1208                 0.5014
 IR Inten    --      0.9208                 0.5234                 0.2280

                      7                      8                      9
                      A                      A                      A
 Frequencies --    406.2224               454.8077               493.9762
 Red. masses --      2.6591                 2.9151                 3.0313
 Frc consts  --      0.2585                 0.3553                 0.4358
 IR Inten    --     11.3536                 5.0486                 0.4043

                     10                     11                     12
                      A                      A                      A
 Frequencies --    582.0193               664.8227               753.1000
 Red. masses --      3.6786                 2.1724                 2.3491
 Frc consts  --      0.7342                 0.5657                 0.7850
 IR Inten    --      5.5207                 3.2850                 8.9537

                     13                     14                     15
                      A                      A                      A
 Frequencies --    808.2623               832.0469               875.3178
 Red. masses --      2.9390                 1.5708                 1.9914
 Frc consts  --      1.1312                 0.6407                 0.8990
 IR Inten    --      8.5388                 8.3284                 0.4882

                     16                     17                     18
                      A                      A                      A
 Frequencies --    921.4597               959.8746               994.5742
 Red. masses --      2.0174                 2.4088                 1.9524
 Frc consts  --      1.0093                 1.3076                 1.1379
 IR Inten    --      6.4022                 3.9467                 9.0313

                     19                     20                     21
                      A                      A                      A
 Frequencies --   1012.7085              1037.7544              1051.8119
 Red. masses --      2.5427                 1.8726                 1.8277
 Frc consts  --      1.5364                 1.1882                 1.1914
 IR Inten    --     10.4157                 5.7083                19.4809

                     22                     23                     24
                      A                      A                      A
 Frequencies --   1063.4815              1089.7314              1116.8364
 Red. masses --      1.6135                 2.3077                 1.7493
 Frc consts  --      1.0752                 1.6146                 1.2855
 IR Inten    --      9.9264                27.7501                 7.1540

                     25                     26                     27
                      A                      A                      A
 Frequencies --   1134.6342              1169.7924              1190.4118
 Red. masses --      1.5589                 1.9673                 2.1329
 Frc consts  --      1.1825                 1.5861                 1.7808
 IR Inten    --      8.2560                 7.2305                52.2573

                     28                     29                     30
                      A                      A                      A
 Frequencies --   1224.2392              1241.6663              1272.5359
 Red. masses --      1.5050                 1.7311                 1.3571
 Frc consts  --      1.3290                 1.5725                 1.2948
 IR Inten    --      7.1498                23.8499                10.7548

                     31                     32                     33
                      A                      A                      A
 Frequencies --   1301.7568              1339.3595              1359.2804
 Red. masses --      1.2777                 1.2738                 1.4025
 Frc consts  --      1.2757                 1.3463                 1.5267
 IR Inten    --     11.2309                 3.0979                 0.5537

                     34                     35                     36
                      A                      A                      A
 Frequencies --   1369.6066              1398.4529              1416.6865
 Red. masses --      1.3470                 1.4820                 1.3773
 Frc consts  --      1.4887                 1.7077                 1.6286
 IR Inten    --     10.7092                 4.8554                 8.7715

                     37                     38                     39
                      A                      A                      A
 Frequencies --   1426.8092              1475.5254              1488.3221
 Red. masses --      1.2073                 1.2719                 1.1349
 Frc consts  --      1.4481                 1.6315                 1.4812
 IR Inten    --      5.2667                 3.9586                 9.8021

                     40                     41                     42
                      A                      A                      A
 Frequencies --   1504.3004              1831.8210              2863.9258
 Red. masses --      1.1052                10.3305                 1.0817
 Frc consts  --      1.4736                20.4238                 5.2271
 IR Inten    --      2.0642               203.3262                82.0348

                     43                     44                     45
                      A                      A                      A
 Frequencies --   2978.4910              3032.7586              3050.6698
 Red. masses --      1.0704                 1.0624                 1.0835
 Frc consts  --      5.5946                 5.7575                 5.9410
 IR Inten    --     54.9336                15.2714                13.3664

                     46                     47                     48
                      A                      A                      A
 Frequencies --   3086.8149              3092.0133              3125.6213
 Red. masses --      1.1008                 1.0932                 1.0875
 Frc consts  --      6.1796                 6.1580                 6.2598
 IR Inten    --     30.3288                35.3967                26.5950

                     49                     50                     51
                      A                      A                      A
 Frequencies --   3138.7514              3150.6168              3227.6492
 Red. masses --      1.0557                 1.0893                 1.1164
 Frc consts  --      6.1275                 6.3708                 6.8525
 IR Inten    --      8.6633                15.8723                 8.7042

 - Thermochemistry -
 -------------------
 Temperature   298.150 Kelvin.  Pressure   1.00000 Atm.
 Atom     1 has atomic number  8 and mass  15.99491

 Molecular mass:   126.06808 amu.
 Principal axes and moments of inertia in atomic units:
                           1         2         3
     Eigenvalues --   592.562881427.643121817.89835
           X            0.99997   0.00107  -0.00815
           Y           -0.00103   0.99999   0.00512
           Z            0.00816  -0.00511   0.99995
 This molecule is an asymmetric top.
 Rotational symmetry number  1.
 Warning -- assumption of classical behavior for rotation
           may cause significant error
 Rotational temperatures (Kelvin)      0.14617     0.06067     0.04765
 Rotational constants (GHZ):           3.04565     1.26414     0.99276
 Zero-point vibrational energy     420357.8 (Joules/Mol)
                                  100.46794 (Kcal/Mol)
 Warning -- explicit consideration of  10 degrees of freedom as
           vibrations may cause significant error
 Vibrational temperatures:     81.09   132.31   280.36   381.22   447.71
          (Kelvin)            500.28   584.46   654.37   710.72   837.39
                              956.53  1083.54  1162.91  1197.13  1259.39
                             1325.77  1381.04  1430.97  1457.06  1493.10
                             1513.32  1530.11  1567.88  1606.88  1632.48
                             1683.07  1712.73  1761.40  1786.48  1830.89
                             1872.94  1927.04  1955.70  1970.56  2012.06
                             2038.29  2052.86  2122.95  2141.36  2164.35
                             2635.58  4120.55  4285.38  4363.46  4389.23
                             4441.23  4448.71  4497.07  4515.96  4533.03
                             4643.86

 Zero-point correction=                           0.160106 (Hartree/Particle)
 Thermal correction to Energy=                    0.168184
 Thermal correction to Enthalpy=                  0.169128
 Thermal correction to Gibbs Free Energy=         0.126846
 Sum of electronic and zero-point Energies=           -423.021420
 Sum of electronic and thermal Energies=              -423.013342
 Sum of electronic and thermal Enthalpies=            -423.012398
 Sum of electronic and thermal Free Energies=         -423.054679

                     E (Thermal)             CV                S
                      KCal/Mol        Cal/Mol-Kelvin    Cal/Mol-Kelvin
 Total                  105.537             30.715             88.989
 Electronic               0.000              0.000              0.000
 Translational            0.889              2.981             40.409
 Rotational               0.889              2.981             28.821
 Vibrational            103.759             24.753             19.759
 Vibration     1          0.596              1.975              4.581
 Vibration     2          0.602              1.955              3.618
 Vibration     3          0.636              1.847              2.181
 Vibration     4          0.671              1.737              1.629
 Vibration     5          0.700              1.652              1.356
 Vibration     6          0.725              1.580              1.177
 Vibration     7          0.771              1.457              0.940
 Vibration     8          0.813              1.350              0.781
 Vibration     9          0.850              1.263              0.673
 Vibration    10          0.939              1.070              0.482

 Normal termination of Gaussian 09 at Mon Jan 27 14:19:06 2020.
