 Gaussian 09, Revision D.01,
 Gaussian 09:  ES64L-G09RevD.01 24-Apr-2013

 -----------------------------
 # b3lyp 6-31G(2df,p) opt Freq
 -----------------------------

 -----
 titel
 -----
 Symbolic Z-matrix:
 Charge =  0 Multiplicity = 1

 SCF Done:  E(RB3LYP) =  -423.122978333     A.U. after   13 cycles
 Optimization completed.
    -- Stationary point found.
 Normal termination of Gaussian 09 at Tue Jan 28 02:55:16 2020.

 ----------------------------------------------------------------------
 #N Geom=AllCheck Guess=TCheck SCRF=Check GenChk RB3LYP/6-31G(2df,p) Fr
 eq
 ----------------------------------------------------------------------

 Structure from the checkpoint file:  "/scratch/puck/g09_614f7462-d29f-469a-a2df-a8afaa48c5d3/Gau-11498.chk"
 -----
 titel
 -----
 Charge =  0 Multiplicity = 1

                         Standard orientation:
 ---------------------------------------------------------------------
 Center     Atomic      Atomic             Coordinates (Angstroms)
 Number     Number       Type             X           Y           Z
 ---------------------------------------------------------------------
      1          6           0       -2.979651   -0.033672   -0.159661
      2          6           0       -1.565830    0.278749    0.290706
      3          8           0       -0.888039   -0.914839    0.795703
      4          6           0        0.072914   -0.877743   -0.284843
      5          6           0       -0.509870    0.436194   -0.831679
      6          6           0        0.831702    1.139613   -0.527501
      7          6           0        1.251066    0.980437    0.922680
      8          6           0        1.427727   -0.173430   -0.011577
      9          8           0        2.654524   -0.734154   -0.314659
     10          1           0       -2.981547   -0.794366   -0.946839
     11          1           0       -3.572670   -0.409792    0.679615
     12          1           0       -3.464724    0.869600   -0.546755
     13          1           0       -1.572250    1.072480    1.048283
     14          1           0        0.141532   -1.811024   -0.849291
     15          1           0       -0.872026    0.531795   -1.854580
     16          1           0        1.282615    1.901323   -1.151223
     17          1           0        2.178524    1.494759    1.155243
     18          1           0        0.533760    0.941528    1.735080
     19          1           0        3.026562   -1.105244    0.493357
 ---------------------------------------------------------------------

 SCF Done:  E(RB3LYP) =  -423.122978333     A.U. after    1 cycles

 The electronic state is 1-A.
 Alpha  occ. eigenvalues --  -19.14927 -19.12831 -10.23756 -10.23129 -10.22784
 Alpha  occ. eigenvalues --  -10.19522 -10.18989 -10.18708 -10.17556  -1.04018
 Alpha  occ. eigenvalues --   -1.02711  -0.87523  -0.75520  -0.72146  -0.65347
 Alpha  occ. eigenvalues --   -0.59395  -0.58499  -0.54106  -0.51318  -0.48954
 Alpha  occ. eigenvalues --   -0.46480  -0.46059  -0.42443  -0.41552  -0.39392
 Alpha  occ. eigenvalues --   -0.38181  -0.37082  -0.36021  -0.35063  -0.30357
 Alpha  occ. eigenvalues --   -0.29537  -0.27686  -0.24540  -0.23598
 Alpha virt. eigenvalues --    0.07141   0.08282   0.09320   0.10760   0.12139
 Alpha virt. eigenvalues --    0.13365   0.15097   0.15695   0.16131   0.16746
 Alpha virt. eigenvalues --    0.17987   0.18500   0.19048   0.21769   0.22821

 Mulliken charges:
               1
     1  C   -0.407081
     2  C    0.128830
     3  O   -0.319562
     4  C    0.033297
     5  C   -0.072534
     6  C   -0.141736
     7  C   -0.358573
     8  C    0.378237
     9  O   -0.462506
    10  H    0.119553
    11  H    0.126152
    12  H    0.113874
    13  H    0.076328
    14  H    0.082030
    15  H    0.077417
    16  H    0.096289
    17  H    0.112550
    18  H    0.129432
    19  H    0.288003
 Sum of Mulliken charges =   0.00000

 Dipole moment (field-independent basis, Debye):
    X=              0.0017    Y=              0.8883    Z=              0.0348  Tot=              0.8890
 Quadrupole moment (field-independent basis, Debye-Ang):
   XX=            -51.0773   YY=            -52.8259   ZZ=            -53.0266
   XY=             -1.8965   XZ=              5.3136   YZ=              0.2173

  Exact polarizability:  89.368  -1.015  68.896   2.489   1.241  65.988
 Approx polarizability: 113.030  -5.016 107.717   1.086  -1.220 104.403

                      1                      2                      3
                      A                      A                      A
 Frequencies --    128.3514               196.7595               231.9831
 Red. masses --      3.7110                 3.0908                 2.8290
 Frc consts  --      0.0360                 0.0705                 0.0897
 IR Inten    --      2.5673                 7.9808                 2.7607

                      4                      5                      6
                      A                      A                      A
 Frequencies --    248.4306               269.4205               320.2572
 Red. masses --      1.1313                 1.1429                 3.3997
 Frc consts  --      0.0411                 0.0489                 0.2054
 IR Inten    --     12.0305                62.7728                11.5203

                      7                      8                      9
                      A                      A                      A
 Frequencies --    365.9697               410.8984               513.2890
 Red. masses --      4.6595                 2.9106                 2.5833
 Frc consts  --      0.3677                 0.2895                 0.4010
 IR Inten    --      6.1306                15.0725                 2.7313

                     10                     11                     12
                      A                      A                      A
 Frequencies --    532.2469               633.3691               719.6922
 Red. masses --      3.0400                 3.6082                 3.2820
 Frc consts  --      0.5074                 0.8528                 1.0016
 IR Inten    --      1.9130                 1.1689                 3.0663

                     13                     14                     15
                      A                      A                      A
 Frequencies --    803.6179               812.1656               861.6728
 Red. masses --      2.8650                 2.7290                 2.3835
 Frc consts  --      1.0901                 1.0606                 1.0427
 IR Inten    --      4.0028                 8.9413                15.8518

                     16                     17                     18
                      A                      A                      A
 Frequencies --    867.2387               898.7649               912.1557
 Red. masses --      2.3708                 1.6194                 2.2828
 Frc consts  --      1.0505                 0.7707                 1.1191
 IR Inten    --     27.5684                 1.5578                 3.2300

                     19                     20                     21
                      A                      A                      A
 Frequencies --    969.1606               972.9483               977.5232
 Red. masses --      1.5610                 2.7019                 2.7328
 Frc consts  --      0.8639                 1.5070                 1.5385
 IR Inten    --      5.3941                70.2705                65.8253

                     22                     23                     24
                      A                      A                      A
 Frequencies --   1034.3289              1038.2395              1075.5518
 Red. masses --      1.3998                 2.1125                 1.8924
 Frc consts  --      0.8823                 1.3417                 1.2898
 IR Inten    --      4.2152                 7.7796                20.3647

                     25                     26                     27
                      A                      A                      A
 Frequencies --   1078.0674              1093.0826              1143.8851
 Red. masses --      1.4116                 1.7566                 2.5972
 Frc consts  --      0.9666                 1.2366                 2.0023
 IR Inten    --      1.8636                 3.0119                 2.9871

                     28                     29                     30
                      A                      A                      A
 Frequencies --   1176.3115              1197.2206              1217.3879
 Red. masses --      2.1400                 1.8384                 1.5725
 Frc consts  --      1.7447                 1.5525                 1.3731
 IR Inten    --      2.4012                14.5029                89.6394

                     31                     32                     33
                      A                      A                      A
 Frequencies --   1239.5518              1267.7234              1286.9368
 Red. masses --      1.7822                 1.8292                 1.5337
 Frc consts  --      1.6134                 1.7321                 1.4966
 IR Inten    --      4.1399                17.8195                 1.7120

                     34                     35                     36
                      A                      A                      A
 Frequencies --   1316.3139              1327.3414              1381.7378
 Red. masses --      1.5038                 1.6576                 1.4877
 Frc consts  --      1.5352                 1.7206                 1.6734
 IR Inten    --     33.0639                 8.8058                 1.8470

                     37                     38                     39
                      A                      A                      A
 Frequencies --   1404.2227              1413.0657              1483.9343
 Red. masses --      1.3194                 1.7100                 1.0536
 Frc consts  --      1.5329                 2.0118                 1.3670
 IR Inten    --      1.7427                40.3957                 3.0769

                     40                     41                     42
                      A                      A                      A
 Frequencies --   1494.6053              1495.7327              3023.0960
 Red. masses --      1.3217                 1.1529                 1.0832
 Frc consts  --      1.7395                 1.5197                 5.8327
 IR Inten    --      6.4991                11.3933                38.3731

                     43                     44                     45
                      A                      A                      A
 Frequencies --   3031.4398              3082.1598              3103.3359
 Red. masses --      1.0366                 1.0890                 1.1006
 Frc consts  --      5.6126                 6.0953                 6.2453
 IR Inten    --     20.0611                37.6103                23.3989

                     46                     47                     48
                      A                      A                      A
 Frequencies --   3111.4466              3119.2542              3130.2820
 Red. masses --      1.1019                 1.0899                 1.0531
 Frc consts  --      6.2851                 6.2478                 6.0798
 IR Inten    --     18.4497                30.2557                11.2402

                     49                     50                     51
                      A                      A                      A
 Frequencies --   3190.9579              3216.7383              3788.4427
 Red. masses --      1.0942                 1.1153                 1.0662
 Frc consts  --      6.5646                 6.7993                 9.0161
 IR Inten    --     11.7296                 7.8607                23.6812

 - Thermochemistry -
 -------------------
 Temperature   298.150 Kelvin.  Pressure   1.00000 Atm.
 Atom     1 has atomic number  6 and mass  12.00000

 Molecular mass:   126.06808 amu.
 Principal axes and moments of inertia in atomic units:
                           1         2         3
     Eigenvalues --   446.150231491.125311590.83967
           X            0.99984   0.00231   0.01757
           Y           -0.00376   0.99659   0.08245
           Z           -0.01732  -0.08251   0.99644
 This molecule is an asymmetric top.
 Rotational symmetry number  1.
 Warning -- assumption of classical behavior for rotation
           may cause significant error
 Rotational temperatures (Kelvin)      0.19414     0.05809     0.05445
 Rotational constants (GHZ):           4.04514     1.21032     1.13446
 Zero-point vibrational energy     416350.1 (Joules/Mol)
                                   99.51007 (Kcal/Mol)
 Warning -- explicit consideration of  10 degrees of freedom as
           vibrations may cause significant error
 Vibrational temperatures:    184.67   283.09   333.77   357.44   387.64
          (Kelvin)            460.78   526.55   591.19   738.51   765.78
                              911.28  1035.48  1156.23  1168.52  1239.75
                             1247.76  1293.12  1312.39  1394.40  1399.85
                             1406.44  1488.17  1493.79  1547.48  1551.10
                             1572.70  1645.79  1692.45  1722.53  1751.55
                             1783.44  1823.97  1851.61  1893.88  1909.75
                             1988.01  2020.36  2033.08  2135.05  2150.40
                             2152.02  4349.56  4361.56  4434.54  4465.00
                             4476.67  4487.91  4503.77  4591.07  4628.16
                             5450.72

 Zero-point correction=                           0.158579 (Hartree/Particle)
 Thermal correction to Energy=                    0.166639
 Thermal correction to Enthalpy=                  0.167584
 Thermal correction to Gibbs Free Energy=         0.126485
 Sum of electronic and zero-point Energies=           -422.964399
 Sum of electronic and thermal Energies=              -422.956339
 Sum of electronic and thermal Enthalpies=            -422.955395
 Sum of electronic and thermal Free Energies=         -422.996494

                     E (Thermal)             CV                S
                      KCal/Mol        Cal/Mol-Kelvin    Cal/Mol-Kelvin
 Total                  104.568             32.136             86.500
 Electronic               0.000              0.000              0.000
 Translational            0.889              2.981             40.409
 Rotational               0.889              2.981             28.450
 Vibrational            102.790             26.174             17.641
 Vibration     1          0.611              1.925              2.971
 Vibration     2          0.636              1.844              2.163
 Vibration     3          0.653              1.792              1.864
 Vibration     4          0.662              1.765              1.742
 Vibration     5          0.674              1.729              1.600
 Vibration     6          0.706              1.635              1.309
 Vibration     7          0.739              1.542              1.097
 Vibration     8          0.775              1.447              0.923
 Vibration     9          0.868              1.221              0.626
 Vibration    10          0.887              1.179              0.582

 Optimization completed.
    -- Stationary point found.
 Normal termination of Gaussian 09 at Tue Jan 28 03:44:03 2020.
