 Gaussian 09, Revision D.01,
 Gaussian 09:  ES64L-G09RevD.01 24-Apr-2013

 -----------------------------
 # b3lyp 6-31G(2df,p) opt Freq
 -----------------------------

 -----
 titel
 -----
 Symbolic Z-matrix:
 Charge =  0 Multiplicity = 1

 SCF Done:  E(RB3LYP) =  -423.153430892     A.U. after   14 cycles
 Optimization completed.
    -- Stationary point found.
 Normal termination of Gaussian 09 at Tue Jan 28 14:11:32 2020.

 ----------------------------------------------------------------------
 #N Geom=AllCheck Guess=TCheck SCRF=Check GenChk RB3LYP/6-31G(2df,p) Fr
 eq
 ----------------------------------------------------------------------

 Structure from the checkpoint file:  "/scratch/puck/g09_57a54f93-e1a1-4236-866c-5c17647fc9e0/Gau-121158.chk"
 -----
 titel
 -----
 Charge =  0 Multiplicity = 1

                         Standard orientation:
 ---------------------------------------------------------------------
 Center     Atomic      Atomic             Coordinates (Angstroms)
 Number     Number       Type             X           Y           Z
 ---------------------------------------------------------------------
      1          6           0        2.740463    0.062486    0.457904
      2          8           0        1.828499   -0.557435   -0.433503
      3          6           0        0.607196   -0.852389    0.148175
      4          6           0       -0.494538   -1.075427   -0.807951
      5          6           0       -1.766087   -1.551615   -0.099462
      6          6           0       -1.737882   -0.286134    0.821039
      7          6           0       -0.493545    0.215488    0.088729
      8          6           0       -0.253969    1.587754   -0.354433
      9          8           0       -0.962984    2.526800   -0.061636
     10          1           0        2.928742   -0.568839    1.337831
     11          1           0        3.675009    0.200169   -0.089242
     12          1           0        2.372926    1.039810    0.799772
     13          1           0        0.670939   -1.443287    1.068044
     14          1           0       -0.284495   -1.120568   -1.869815
     15          1           0       -2.632806   -1.561682   -0.762320
     16          1           0       -1.692346   -2.525105    0.395548
     17          1           0       -2.591986    0.376298    0.675220
     18          1           0       -1.613235   -0.468480    1.892993
     19          1           0        0.633307    1.715788   -1.010924
 ---------------------------------------------------------------------

 SCF Done:  E(RB3LYP) =  -423.153430892     A.U. after    1 cycles

 The electronic state is 1-A.
 Alpha  occ. eigenvalues --  -19.16508 -19.12192 -10.25881 -10.25661 -10.23777
 Alpha  occ. eigenvalues --  -10.21199 -10.20500 -10.19934 -10.19292  -1.06119
 Alpha  occ. eigenvalues --   -1.02814  -0.90572  -0.74971  -0.70128  -0.67932
 Alpha  occ. eigenvalues --   -0.63161  -0.58454  -0.53978  -0.50939  -0.49958
 Alpha  occ. eigenvalues --   -0.47356  -0.46294  -0.44072  -0.43454  -0.41541
 Alpha  occ. eigenvalues --   -0.39633  -0.37714  -0.35879  -0.35217  -0.34796
 Alpha  occ. eigenvalues --   -0.31345  -0.28158  -0.25419  -0.23847
 Alpha virt. eigenvalues --   -0.01886   0.08078   0.09823   0.10917   0.11411
 Alpha virt. eigenvalues --    0.11902   0.13631   0.13960   0.15181   0.15926
 Alpha virt. eigenvalues --    0.16095   0.17584   0.19154   0.20118   0.21791

 Mulliken charges:
               1
     1  C   -0.245679
     2  O   -0.241936
     3  C    0.073172
     4  C   -0.144870
     5  C   -0.235824
     6  C   -0.305789
     7  C    0.224882
     8  C    0.045226
     9  O   -0.282688
    10  H    0.116386
    11  H    0.136223
    12  H    0.120643
    13  H    0.088873
    14  H    0.113274
    15  H    0.119002
    16  H    0.105437
    17  H    0.134161
    18  H    0.101924
    19  H    0.077582
 Sum of Mulliken charges =   0.00000

 Dipole moment (field-independent basis, Debye):
    X=              1.1768    Y=             -2.7074    Z=              0.5661  Tot=              3.0059
 Quadrupole moment (field-independent basis, Debye-Ang):
   XX=            -49.9681   YY=            -61.6150   ZZ=            -51.6921
   XY=              5.9831   XZ=              2.6438   YZ=             -1.1593

  Exact polarizability:  86.632   1.174  85.083  -1.747  -0.539  64.278
 Approx polarizability: 114.712  -7.975 134.741  -4.365   4.539  99.991

                      1                      2                      3
                      A                      A                      A
 Frequencies --     89.5950               135.1089               152.6629
 Red. masses --      3.6314                 2.3363                 1.7207
 Frc consts  --      0.0172                 0.0251                 0.0236
 IR Inten    --      4.3349                 2.0674                 1.9220

                      4                      5                      6
                      A                      A                      A
 Frequencies --    170.2587               207.8054               225.7189
 Red. masses --      2.1594                 2.9636                 2.1209
 Frc consts  --      0.0369                 0.0754                 0.0637
 IR Inten    --      1.6269                 8.7562                 0.9975

                      7                      8                      9
                      A                      A                      A
 Frequencies --    284.2714               334.4705               425.4119
 Red. masses --      3.5776                 2.0596                 3.4630
 Frc consts  --      0.1703                 0.1358                 0.3692
 IR Inten    --      0.3078                 2.6608                 2.5264

                     10                     11                     12
                      A                      A                      A
 Frequencies --    473.2417               583.3400               677.1882
 Red. masses --      4.8027                 4.2842                 4.5722
 Frc consts  --      0.6337                 0.8589                 1.2354
 IR Inten    --      6.8659                 4.3873                26.2348

                     13                     14                     15
                      A                      A                      A
 Frequencies --    743.9609               782.6604               798.2562
 Red. masses --      3.3285                 1.3438                 3.0687
 Frc consts  --      1.0854                 0.4850                 1.1521
 IR Inten    --      4.9171                 7.2083                 2.8456

                     16                     17                     18
                      A                      A                      A
 Frequencies --    916.3269               942.9519               960.3693
 Red. masses --      1.5355                 2.7990                 2.4255
 Frc consts  --      0.7596                 1.4663                 1.3180
 IR Inten    --     14.1334                 1.8534                10.9027

                     19                     20                     21
                      A                      A                      A
 Frequencies --    996.9193              1026.1942              1048.0848
 Red. masses --      1.7525                 2.5700                 1.6979
 Frc consts  --      1.0262                 1.5946                 1.0989
 IR Inten    --      3.3594                14.7374                 9.9882

                     22                     23                     24
                      A                      A                      A
 Frequencies --   1071.7321              1101.9564              1128.6843
 Red. masses --      1.5807                 1.7403                 2.1596
 Frc consts  --      1.0697                 1.2451                 1.6209
 IR Inten    --     56.1617                28.3945                13.5809

                     25                     26                     27
                      A                      A                      A
 Frequencies --   1172.6671              1182.0844              1207.0010
 Red. masses --      1.9925                 1.2893                 1.9830
 Frc consts  --      1.6144                 1.0614                 1.7021
 IR Inten    --     26.3205                 2.4340                52.0836

                     28                     29                     30
                      A                      A                      A
 Frequencies --   1219.0029              1233.1044              1247.3650
 Red. masses --      1.2685                 1.6557                 1.4816
 Frc consts  --      1.1106                 1.4833                 1.3582
 IR Inten    --      5.5368                40.0136                 7.8686

                     31                     32                     33
                      A                      A                      A
 Frequencies --   1273.4833              1300.6083              1368.8110
 Red. masses --      1.7613                 1.5145                 2.2289
 Frc consts  --      1.6830                 1.5094                 2.4605
 IR Inten    --     21.4619                17.7777                27.1647

                     34                     35                     36
                      A                      A                      A
 Frequencies --   1420.1337              1437.7990              1480.8484
 Red. masses --      1.6583                 1.7723                 1.0838
 Frc consts  --      1.9705                 2.1587                 1.4003
 IR Inten    --     57.3511                14.4309                 1.2683

                     37                     38                     39
                      A                      A                      A
 Frequencies --   1485.1023              1487.2932              1499.6660
 Red. masses --      1.0901                 1.1748                 1.1245
 Frc consts  --      1.4165                 1.5311                 1.4900
 IR Inten    --      6.9037                 3.8552                 4.7819

                     40                     41                     42
                      A                      A                      A
 Frequencies --   1505.6632              1783.2394              2899.5110
 Red. masses --      1.0953                 9.9026                 1.0820
 Frc consts  --      1.4630                18.5531                 5.3597
 IR Inten    --      2.1404               256.1352                86.9964

                     43                     44                     45
                      A                      A                      A
 Frequencies --   2994.0506              3042.5431              3049.1545
 Red. masses --      1.0354                 1.0868                 1.1039
 Frc consts  --      5.4688                 5.9275                 6.0471
 IR Inten    --     42.8800                37.2185                34.1671

                     46                     47                     48
                      A                      A                      A
 Frequencies --   3050.8782              3058.5700              3113.4852
 Red. masses --      1.0634                 1.0652                 1.1022
 Frc consts  --      5.8315                 5.8709                 6.2951
 IR Inten    --     34.8597                57.3512                 5.1859

                     49                     50                     51
                      A                      A                      A
 Frequencies --   3130.5496              3132.5823              3193.8622
 Red. masses --      1.0984                 1.1013                 1.0920
 Frc consts  --      6.3425                 6.3672                 6.5629
 IR Inten    --     23.5729                19.6247                 6.1007

 - Thermochemistry -
 -------------------
 Temperature   298.150 Kelvin.  Pressure   1.00000 Atm.
 Atom     1 has atomic number  6 and mass  12.00000

 Molecular mass:   126.06808 amu.
 Principal axes and moments of inertia in atomic units:
                           1         2         3
     Eigenvalues --   866.057531174.376351780.63069
           X            0.99310   0.11681   0.00998
           Y           -0.11672   0.99312  -0.00900
           Z           -0.01096   0.00778   0.99991
 This molecule is an asymmetric top.
 Rotational symmetry number  1.
 Warning -- assumption of classical behavior for rotation
           may cause significant error
 Rotational temperatures (Kelvin)      0.10001     0.07375     0.04864
 Rotational constants (GHZ):           2.08386     1.53677     1.01354
 Zero-point vibrational energy     414184.4 (Joules/Mol)
                                   98.99245 (Kcal/Mol)
 Warning -- explicit consideration of  11 degrees of freedom as
           vibrations may cause significant error
 Vibrational temperatures:    128.91   194.39   219.65   244.96   298.99
          (Kelvin)            324.76   409.00   481.23   612.07   680.89
                              839.30   974.32  1070.39  1126.07  1148.51
                             1318.39  1356.70  1381.76  1434.34  1476.46
                             1507.96  1541.98  1585.47  1623.92  1687.20
                             1700.75  1736.60  1753.87  1774.16  1794.68
                             1832.26  1871.28  1969.41  2043.25  2068.67
                             2130.61  2136.73  2139.88  2157.68  2166.31
                             2565.68  4171.74  4307.77  4377.54  4387.05
                             4389.53  4400.59  4479.61  4504.16  4507.08
                             4595.25

 Zero-point correction=                           0.157755 (Hartree/Particle)
 Thermal correction to Energy=                    0.166713
 Thermal correction to Enthalpy=                  0.167657
 Thermal correction to Gibbs Free Energy=         0.123923
 Sum of electronic and zero-point Energies=           -422.995676
 Sum of electronic and thermal Energies=              -422.986718
 Sum of electronic and thermal Enthalpies=            -422.985773
 Sum of electronic and thermal Free Energies=         -423.029508

                     E (Thermal)             CV                S
                      KCal/Mol        Cal/Mol-Kelvin    Cal/Mol-Kelvin
 Total                  104.614             32.770             92.046
 Electronic               0.000              0.000              0.000
 Translational            0.889              2.981             40.409
 Rotational               0.889              2.981             28.984
 Vibrational            102.837             26.808             22.654
 Vibration     1          0.602              1.957              3.669
 Vibration     2          0.613              1.918              2.872
 Vibration     3          0.619              1.900              2.639
 Vibration     4          0.625              1.879              2.433
 Vibration     5          0.641              1.829              2.063
 Vibration     6          0.650              1.802              1.913
 Vibration     7          0.683              1.703              1.508
 Vibration     8          0.716              1.607              1.238
 Vibration     9          0.787              1.415              0.874
 Vibration    10          0.830              1.309              0.729
 Vibration    11          0.940              1.067              0.479

 Optimization completed.
    -- Stationary point found.
 Normal termination of Gaussian 09 at Tue Jan 28 14:51:27 2020.
