 Gaussian 09, Revision D.01,
 Gaussian 09:  ES64L-G09RevD.01 24-Apr-2013

 -----------------------------
 # b3lyp 6-31G(2df,p) opt Freq
 -----------------------------

 -----
 titel
 -----
 Symbolic Z-matrix:
 Charge =  0 Multiplicity = 1

 SCF Done:  E(RB3LYP) =  -423.223385088     A.U. after   14 cycles
 Optimization completed.
    -- Stationary point found.
 Normal termination of Gaussian 09 at Mon Jan 27 22:08:22 2020.

 ----------------------------------------------------------------------
 #N Geom=AllCheck Guess=TCheck SCRF=Check GenChk RB3LYP/6-31G(2df,p) Fr
 eq
 ----------------------------------------------------------------------

 Structure from the checkpoint file:  "/scratch/puck/g09_a5c09e0e-0f4a-4eee-8aa2-c1f4ddaa62e0/Gau-51384.chk"
 -----
 titel
 -----
 Charge =  0 Multiplicity = 1

                         Standard orientation:
 ---------------------------------------------------------------------
 Center     Atomic      Atomic             Coordinates (Angstroms)
 Number     Number       Type             X           Y           Z
 ---------------------------------------------------------------------
      1          6           0        0.538702    1.941469   -0.603208
      2          6           0        0.284356    0.762040    0.351826
      3          6           0        1.439152   -0.239467    0.250026
      4          8           0        2.560534   -0.110326    0.646430
      5          8           0        1.027206   -1.356563   -0.412485
      6          6           0       -0.341454   -1.232411   -0.830933
      7          6           0       -0.919641   -0.102818    0.009593
      8          6           0       -1.998553   -0.390097    1.022379
      9          6           0       -2.308850    0.415190   -0.217832
     10          1           0       -0.260691    2.682988   -0.519837
     11          1           0        1.488460    2.423797   -0.358192
     12          1           0        0.583924    1.610991   -1.645999
     13          1           0        0.249994    1.135383    1.378848
     14          1           0       -0.356170   -1.008032   -1.905227
     15          1           0       -0.835704   -2.193846   -0.668665
     16          1           0       -2.386100   -1.401854    1.086342
     17          1           0       -1.956773    0.132783    1.972304
     18          1           0       -2.907589   -0.050744   -0.994609
     19          1           0       -2.483538    1.480210   -0.107641
 ---------------------------------------------------------------------

 SCF Done:  E(RB3LYP) =  -423.223385088     A.U. after    1 cycles

 The electronic state is 1-A.
 Alpha  occ. eigenvalues --  -19.17902 -19.11896 -10.29889 -10.24965 -10.21471
 Alpha  occ. eigenvalues --  -10.20904 -10.20232 -10.20021 -10.19097  -1.09679
 Alpha  occ. eigenvalues --   -1.01787  -0.88282  -0.78874  -0.72489  -0.67532
 Alpha  occ. eigenvalues --   -0.61832  -0.57802  -0.55714  -0.50644  -0.49702
 Alpha  occ. eigenvalues --   -0.48618  -0.46870  -0.43297  -0.42536  -0.40823
 Alpha  occ. eigenvalues --   -0.40113  -0.38049  -0.37608  -0.35809  -0.34584
 Alpha  occ. eigenvalues --   -0.31271  -0.29971  -0.28577  -0.25954
 Alpha virt. eigenvalues --    0.01402   0.07899   0.08832   0.09057   0.09510
 Alpha virt. eigenvalues --    0.12338   0.13277   0.15077   0.15537   0.17318
 Alpha virt. eigenvalues --    0.17730   0.18758   0.19031   0.20781   0.23004

 Mulliken charges:
               1
     1  C   -0.398134
     2  C   -0.247177
     3  C    0.446446
     4  O   -0.346671
     5  O   -0.222192
     6  C   -0.147300
     7  C    0.345687
     8  C   -0.314691
     9  C   -0.328271
    10  H    0.120635
    11  H    0.143650
    12  H    0.124417
    13  H    0.108664
    14  H    0.115291
    15  H    0.122451
    16  H    0.118218
    17  H    0.120768
    18  H    0.117552
    19  H    0.120656
 Sum of Mulliken charges =   0.00000

 Dipole moment (field-independent basis, Debye):
    X=             -4.1274    Y=              0.9031    Z=             -0.8677  Tot=              4.3132
 Quadrupole moment (field-independent basis, Debye-Ang):
   XX=            -62.8387   YY=            -51.5520   ZZ=            -51.6812
   XY=              3.1932   XZ=             -1.7986   YZ=              0.6946

  Exact polarizability:  84.690   3.786  73.036   2.600   1.146  66.719
 Approx polarizability: 119.896   4.665 104.687   7.895   3.602 102.287

                      1                      2                      3
                      A                      A                      A
 Frequencies --     62.5590               161.8357               206.9858
 Red. masses --      3.9402                 4.4399                 2.4441
 Frc consts  --      0.0091                 0.0685                 0.0617
 IR Inten    --      2.4088                 0.5259                 0.1603

                      4                      5                      6
                      A                      A                      A
 Frequencies --    222.8286               239.4709               271.2302
 Red. masses --      1.6514                 1.4853                 2.6992
 Frc consts  --      0.0483                 0.0502                 0.1170
 IR Inten    --      1.5906                 0.6433                 3.3472

                      7                      8                      9
                      A                      A                      A
 Frequencies --    326.7464               467.5207               473.8436
 Red. masses --      2.1537                 3.5066                 4.4122
 Frc consts  --      0.1355                 0.4516                 0.5837
 IR Inten    --      0.9374                 2.7708                 4.2273

                     10                     11                     12
                      A                      A                      A
 Frequencies --    540.2650               684.1603               722.5725
 Red. masses --      4.0208                 7.2791                 5.4716
 Frc consts  --      0.6915                 2.0074                 1.6832
 IR Inten    --      2.5227                 3.5697                 3.9948

                     13                     14                     15
                      A                      A                      A
 Frequencies --    770.0711               780.7959               815.1629
 Red. masses --      2.0358                 1.2286                 2.7311
 Frc consts  --      0.7113                 0.4413                 1.0692
 IR Inten    --      0.8409                 0.2868                 4.9226

                     16                     17                     18
                      A                      A                      A
 Frequencies --    877.4312               930.7149               940.6092
 Red. masses --      2.2863                 1.6476                 1.5805
 Frc consts  --      1.0371                 0.8409                 0.8239
 IR Inten    --      2.8201                 1.5893                 2.4376

                     19                     20                     21
                      A                      A                      A
 Frequencies --    980.3296              1025.6260              1045.1020
 Red. masses --      2.5471                 1.7901                 2.0902
 Frc consts  --      1.4422                 1.1095                 1.3451
 IR Inten    --      9.0817                18.8027                47.5132

                     22                     23                     24
                      A                      A                      A
 Frequencies --   1059.2953              1068.4010              1084.9620
 Red. masses --      1.6053                 2.5785                 1.7154
 Frc consts  --      1.0613                 1.7342                 1.1897
 IR Inten    --      9.1792                66.9969                 7.0232

                     25                     26                     27
                      A                      A                      A
 Frequencies --   1086.8961              1122.0989              1173.7336
 Red. masses --      1.8540                 2.2283                 2.4877
 Frc consts  --      1.2904                 1.6530                 2.0192
 IR Inten    --      8.2295                 3.7244               135.8449

                     28                     29                     30
                      A                      A                      A
 Frequencies --   1188.4079              1230.3285              1243.8766
 Red. masses --      1.3053                 1.2457                 1.6889
 Frc consts  --      1.0862                 1.1109                 1.5396
 IR Inten    --      0.5708                25.8185                 2.9467

                     31                     32                     33
                      A                      A                      A
 Frequencies --   1301.3390              1322.1498              1363.7489
 Red. masses --      2.1103                 1.6946                 1.7186
 Frc consts  --      2.1056                 1.7454                 1.8832
 IR Inten    --      2.6047                 2.4281                20.1407

                     34                     35                     36
                      A                      A                      A
 Frequencies --   1402.5225              1420.4497              1468.5762
 Red. masses --      1.3005                 1.6855                 1.0862
 Frc consts  --      1.5073                 2.0037                 1.3802
 IR Inten    --      5.3213                11.5387                 2.5317

                     37                     38                     39
                      A                      A                      A
 Frequencies --   1494.8339              1497.0714              1508.2414
 Red. masses --      1.0587                 1.0818                 1.3586
 Frc consts  --      1.3938                 1.4286                 1.8209
 IR Inten    --      1.7694                 4.4982                 3.3721

                     40                     41                     42
                      A                      A                      A
 Frequencies --   1523.0780              1880.2843              3022.9435
 Red. masses --      1.1029                12.6716                 1.0653
 Frc consts  --      1.5074                26.3954                 5.7354
 IR Inten    --      1.8265               363.3948                40.2101

                     43                     44                     45
                      A                      A                      A
 Frequencies --   3041.2702              3073.7598              3092.0196
 Red. masses --      1.0350                 1.0850                 1.1003
 Frc consts  --      5.6405                 6.0400                 6.1977
 IR Inten    --     17.2896                 5.3269                23.2443

                     46                     47                     48
                      A                      A                      A
 Frequencies --   3112.4312              3124.2107              3125.4330
 Red. masses --      1.1011                 1.0584                 1.0937
 Frc consts  --      6.2846                 6.0865                 6.2947
 IR Inten    --     22.4070                12.3353                17.6797

                     49                     50                     51
                      A                      A                      A
 Frequencies --   3128.0594              3202.6934              3217.4623
 Red. masses --      1.0590                 1.1177                 1.1156
 Frc consts  --      6.1053                 6.7547                 6.8041
 IR Inten    --     10.4945                 0.0571                15.0788

 - Thermochemistry -
 -------------------
 Temperature   298.150 Kelvin.  Pressure   1.00000 Atm.
 Atom     1 has atomic number  6 and mass  12.00000

 Molecular mass:   126.06808 amu.
 Principal axes and moments of inertia in atomic units:
                           1         2         3
     Eigenvalues --   657.812471266.189051548.34837
           X            0.99942   0.03195  -0.01211
           Y           -0.03217   0.99931  -0.01833
           Z            0.01151   0.01871   0.99976
 This molecule is an asymmetric top.
 Rotational symmetry number  1.
 Warning -- assumption of classical behavior for rotation
           may cause significant error
 Rotational temperatures (Kelvin)      0.13167     0.06841     0.05594
 Rotational constants (GHZ):           2.74355     1.42533     1.16559
 Zero-point vibrational energy     419449.3 (Joules/Mol)
                                  100.25078 (Kcal/Mol)
 Warning -- explicit consideration of  10 degrees of freedom as
           vibrations may cause significant error
 Vibrational temperatures:     90.01   232.85   297.81   320.60   344.54
          (Kelvin)            390.24   470.11   672.66   681.75   777.32
                              984.35  1039.62  1107.96  1123.39  1172.84
                             1262.43  1339.09  1353.33  1410.47  1475.65
                             1503.67  1524.09  1537.19  1561.02  1563.80
                             1614.45  1688.74  1709.85  1770.17  1789.66
                             1872.33  1902.28  1962.13  2017.91  2043.71
                             2112.95  2150.73  2153.95  2170.02  2191.37
                             2705.31  4349.34  4375.70  4422.45  4448.72
                             4478.09  4495.04  4496.80  4500.57  4607.96
                             4629.20

 Zero-point correction=                           0.159760 (Hartree/Particle)
 Thermal correction to Energy=                    0.168130
 Thermal correction to Enthalpy=                  0.169074
 Thermal correction to Gibbs Free Energy=         0.126668
 Sum of electronic and zero-point Energies=           -423.063625
 Sum of electronic and thermal Energies=              -423.055255
 Sum of electronic and thermal Enthalpies=            -423.054311
 Sum of electronic and thermal Free Energies=         -423.096717

                     E (Thermal)             CV                S
                      KCal/Mol        Cal/Mol-Kelvin    Cal/Mol-Kelvin
 Total                  105.503             31.829             89.251
 Electronic               0.000              0.000              0.000
 Translational            0.889              2.981             40.409
 Rotational               0.889              2.981             28.646
 Vibrational            103.726             25.867             20.196
 Vibration     1          0.597              1.972              4.375
 Vibration     2          0.622              1.889              2.528
 Vibration     3          0.641              1.830              2.070
 Vibration     4          0.649              1.806              1.936
 Vibration     5          0.657              1.780              1.807
 Vibration     6          0.675              1.726              1.588
 Vibration     7          0.710              1.622              1.276
 Vibration     8          0.825              1.322              0.745
 Vibration     9          0.831              1.308              0.727
 Vibration    10          0.895              1.161              0.565

 Optimization completed.
    -- Stationary point found.
 Normal termination of Gaussian 09 at Mon Jan 27 23:50:44 2020.
