 Gaussian 09, Revision D.01,
 Gaussian 09:  ES64L-G09RevD.01 24-Apr-2013

 -----------------------------
 # b3lyp 6-31G(2df,p) opt Freq
 -----------------------------

 -----
 titel
 -----
 Symbolic Z-matrix:
 Charge =  0 Multiplicity = 1

 SCF Done:  E(RB3LYP) =  -423.185923996     A.U. after   14 cycles
 Optimization completed.
    -- Stationary point found.
 Normal termination of Gaussian 09 at Mon Jan 27 16:17:30 2020.

 ----------------------------------------------------------------------
 #N Geom=AllCheck Guess=TCheck SCRF=Check GenChk RB3LYP/6-31G(2df,p) Fr
 eq
 ----------------------------------------------------------------------

 Structure from the checkpoint file:  "/scratch/puck/g09_0b4d038b-2e55-4db1-ad1f-e30ff3a1a00c/Gau-83490.chk"
 -----
 titel
 -----
 Charge =  0 Multiplicity = 1

                         Standard orientation:
 ---------------------------------------------------------------------
 Center     Atomic      Atomic             Coordinates (Angstroms)
 Number     Number       Type             X           Y           Z
 ---------------------------------------------------------------------
      1          6           0        2.478583    0.016951   -0.452416
      2          6           0        1.027726   -0.016433    0.024497
      3          8           0        1.080102   -0.449607    1.388489
      4          6           0        0.201672   -1.027457   -0.808492
      5          6           0       -1.284481   -0.919503   -0.562464
      6          8           0       -1.698999   -0.635332    0.780000
      7          6           0       -1.843874    0.403542   -0.231837
      8          6           0       -0.915214    1.555106   -0.141025
      9          6           0        0.402348    1.367027   -0.038751
     10          1           0        2.915307   -0.984419   -0.404967
     11          1           0        2.548754    0.385259   -1.480179
     12          1           0        3.064484    0.673368    0.197358
     13          1           0        0.158616   -0.504944    1.679852
     14          1           0        0.378505   -0.872207   -1.880424
     15          1           0        0.555870   -2.033624   -0.558651
     16          1           0       -1.917369   -1.643357   -1.076086
     17          1           0       -2.883175    0.615637   -0.470342
     18          1           0       -1.344129    2.552439   -0.149750
     19          1           0        1.073756    2.215956    0.058205
 ---------------------------------------------------------------------

 SCF Done:  E(RB3LYP) =  -423.185923995     A.U. after    1 cycles

 The electronic state is 1-A.
 Alpha  occ. eigenvalues --  -19.16100 -19.11862 -10.24499 -10.24448 -10.24097
 Alpha  occ. eigenvalues --  -10.19142 -10.18858 -10.18840 -10.17272  -1.07544
 Alpha  occ. eigenvalues --   -1.00443  -0.81326  -0.76233  -0.72720  -0.67238
 Alpha  occ. eigenvalues --   -0.61286  -0.59713  -0.53364  -0.52510  -0.48322
 Alpha  occ. eigenvalues --   -0.46560  -0.44667  -0.43995  -0.40146  -0.39854
 Alpha  occ. eigenvalues --   -0.39024  -0.37883  -0.36932  -0.34910  -0.32681
 Alpha  occ. eigenvalues --   -0.31480  -0.27534  -0.26758  -0.24516
 Alpha virt. eigenvalues --   -0.01012   0.08782   0.10348   0.11940   0.12554
 Alpha virt. eigenvalues --    0.13048   0.14322   0.14985   0.16472   0.16970
 Alpha virt. eigenvalues --    0.17927   0.18170   0.19875   0.21234   0.24139

 Mulliken charges:
               1
     1  C   -0.420858
     2  C    0.315243
     3  O   -0.471013
     4  C   -0.276065
     5  C    0.028066
     6  O   -0.267250
     7  C    0.002092
     8  C   -0.073207
     9  C   -0.095638
    10  H    0.121609
    11  H    0.111874
    12  H    0.124551
    13  H    0.285691
    14  H    0.106663
    15  H    0.118098
    16  H    0.097393
    17  H    0.098112
    18  H    0.097708
    19  H    0.096931
 Sum of Mulliken charges =   0.00000

 Dipole moment (field-independent basis, Debye):
    X=             -0.8272    Y=              0.7100    Z=             -2.4692  Tot=              2.6992
 Quadrupole moment (field-independent basis, Debye-Ang):
   XX=            -52.4879   YY=            -50.5274   ZZ=            -55.7419
   XY=             -0.3788   XZ=             -0.0109   YZ=              2.0716

  Exact polarizability:  90.718  -1.835  76.416   1.456   1.951  59.724
 Approx polarizability: 130.794  -3.241 112.737   2.219  -1.525  98.508

                      1                      2                      3
                      A                      A                      A
 Frequencies --    156.3328               206.9507               233.9363
 Red. masses --      3.6414                 3.2956                 1.1275
 Frc consts  --      0.0524                 0.0832                 0.0364
 IR Inten    --      2.6819                 1.1629                 0.3772

                      4                      5                      6
                      A                      A                      A
 Frequencies --    309.2200               330.0096               353.9150
 Red. masses --      2.5616                 3.5043                 2.9648
 Frc consts  --      0.1443                 0.2249                 0.2188
 IR Inten    --      0.9362                 1.3468                 2.9379

                      7                      8                      9
                      A                      A                      A
 Frequencies --    389.4373               426.9437               509.9882
 Red. masses --      2.8415                 2.7141                 4.7105
 Frc consts  --      0.2539                 0.2915                 0.7218
 IR Inten    --     10.0028                 1.8324                 1.6857

                     10                     11                     12
                      A                      A                      A
 Frequencies --    552.6672               576.9705               664.9797
 Red. masses --      3.1594                 1.0853                 4.5537
 Frc consts  --      0.5686                 0.2129                 1.1864
 IR Inten    --      1.1294                69.4960                 9.6787

                     13                     14                     15
                      A                      A                      A
 Frequencies --    703.1627               726.2787               793.6644
 Red. masses --      4.2471                 2.9078                 2.2454
 Frc consts  --      1.2372                 0.9037                 0.8333
 IR Inten    --      3.4354                15.4047                 5.4752

                     16                     17                     18
                      A                      A                      A
 Frequencies --    827.3491               873.6219               917.4720
 Red. masses --      2.6226                 3.0861                 2.7150
 Frc consts  --      1.0577                 1.3877                 1.3465
 IR Inten    --     38.1379                 7.4040                 8.4099

                     19                     20                     21
                      A                      A                      A
 Frequencies --    929.7961               943.5482               988.5279
 Red. masses --      1.9179                 3.0798                 1.3232
 Frc consts  --      0.9769                 1.6155                 0.7618
 IR Inten    --     12.1178                 5.1176                 1.6289

                     22                     23                     24
                      A                      A                      A
 Frequencies --    993.8370              1010.7875              1069.4836
 Red. masses --      2.0301                 1.8208                 1.2211
 Frc consts  --      1.1814                 1.0960                 0.8229
 IR Inten    --     26.3635                 2.8144                 4.9484

                     25                     26                     27
                      A                      A                      A
 Frequencies --   1097.8072              1130.5066              1166.1772
 Red. masses --      2.5748                 1.3540                 1.5762
 Frc consts  --      1.8283                 1.0195                 1.2630
 IR Inten    --     52.4469                 5.0446                11.0010

                     28                     29                     30
                      A                      A                      A
 Frequencies --   1174.1202              1237.8691              1262.9109
 Red. masses --      1.8542                 1.4040                 1.5276
 Frc consts  --      1.5061                 1.2676                 1.4355
 IR Inten    --     21.6273                 3.1491                 4.9923

                     31                     32                     33
                      A                      A                      A
 Frequencies --   1290.4008              1329.8441              1369.2966
 Red. masses --      1.3706                 1.7133                 1.3416
 Frc consts  --      1.3446                 1.7852                 1.4820
 IR Inten    --      7.8029                20.0282                 6.7361

                     34                     35                     36
                      A                      A                      A
 Frequencies --   1391.8192              1416.8079              1434.5839
 Red. masses --      1.3142                 1.4647                 1.6462
 Frc consts  --      1.5000                 1.7322                 1.9961
 IR Inten    --     16.9268                 6.7508                70.3527

                     37                     38                     39
                      A                      A                      A
 Frequencies --   1448.1575              1466.7586              1483.8102
 Red. masses --      1.8264                 1.3681                 1.0751
 Frc consts  --      2.2568                 1.7341                 1.3946
 IR Inten    --     17.8060                 6.4642                 2.2783

                     40                     41                     42
                      A                      A                      A
 Frequencies --   1496.6513              1697.7508              3029.3142
 Red. masses --      1.0590                 6.8734                 1.0595
 Frc consts  --      1.3977                11.6726                 5.7283
 IR Inten    --      0.8020                 0.3449                12.7313

                     43                     44                     45
                      A                      A                      A
 Frequencies --   3042.1184              3077.6682              3109.6950
 Red. masses --      1.0356                 1.1013                 1.0881
 Frc consts  --      5.6467                 6.1462                 6.1996
 IR Inten    --     19.5507                11.4290                32.0575

                     46                     47                     48
                      A                      A                      A
 Frequencies --   3118.4394              3120.2981              3143.4893
 Red. masses --      1.1021                 1.1021                 1.0889
 Frc consts  --      6.3147                 6.3224                 6.3398
 IR Inten    --     19.8132                19.5873                27.8906

                     49                     50                     51
                      A                      A                      A
 Frequencies --   3159.5698              3183.6519              3731.7217
 Red. masses --      1.0860                 1.0978                 1.0655
 Frc consts  --      6.3873                 6.5557                 8.7423
 IR Inten    --     12.1187                22.3400                58.4151

 - Thermochemistry -
 -------------------
 Temperature   298.150 Kelvin.  Pressure   1.00000 Atm.
 Atom     1 has atomic number  6 and mass  12.00000

 Molecular mass:   126.06808 amu.
 Principal axes and moments of inertia in atomic units:
                           1         2         3
     Eigenvalues --   618.786421178.593951327.75741
           X            0.99995  -0.00573  -0.00818
           Y            0.00632   0.99724   0.07394
           Z            0.00774  -0.07398   0.99723
 This molecule is an asymmetric top.
 Rotational symmetry number  1.
 Warning -- assumption of classical behavior for rotation
           may cause significant error
 Rotational temperatures (Kelvin)      0.13997     0.07349     0.06523
 Rotational constants (GHZ):           2.91658     1.53127     1.35924
 Zero-point vibrational energy     419291.8 (Joules/Mol)
                                  100.21315 (Kcal/Mol)
 Warning -- explicit consideration of  11 degrees of freedom as
           vibrations may cause significant error
 Vibrational temperatures:    224.93   297.76   336.58   444.90   474.81
          (Kelvin)            509.20   560.31   614.28   733.76   795.16
                              830.13   956.76  1011.69  1044.95  1141.90
                             1190.37  1256.95  1320.04  1337.77  1357.55
                             1422.27  1429.91  1454.30  1538.75  1579.50
                             1626.54  1677.87  1689.29  1781.02  1817.04
                             1856.60  1913.35  1970.11  2002.51  2038.47
                             2064.04  2083.57  2110.34  2134.87  2153.34
                             2442.68  4358.50  4376.92  4428.07  4474.15
                             4486.73  4489.41  4522.77  4545.91  4580.56
                             5369.11

 Zero-point correction=                           0.159700 (Hartree/Particle)
 Thermal correction to Energy=                    0.167580
 Thermal correction to Enthalpy=                  0.168524
 Thermal correction to Gibbs Free Energy=         0.128013
 Sum of electronic and zero-point Energies=           -423.026224
 Sum of electronic and thermal Energies=              -423.018344
 Sum of electronic and thermal Enthalpies=            -423.017400
 Sum of electronic and thermal Free Energies=         -423.057911

                     E (Thermal)             CV                S
                      KCal/Mol        Cal/Mol-Kelvin    Cal/Mol-Kelvin
 Total                  105.158             32.205             85.261
 Electronic               0.000              0.000              0.000
 Translational            0.889              2.981             40.409
 Rotational               0.889              2.981             28.362
 Vibrational            103.380             26.243             16.491
 Vibration     1          0.620              1.896              2.594
 Vibration     2          0.641              1.830              2.070
 Vibration     3          0.654              1.789              1.849
 Vibration     4          0.699              1.656              1.367
 Vibration     5          0.713              1.616              1.260
 Vibration     6          0.730              1.567              1.149
 Vibration     7          0.757              1.493              1.002
 Vibration     8          0.789              1.412              0.869
 Vibration     9          0.865              1.228              0.634
 Vibration    10          0.908              1.134              0.539
 Vibration    11          0.933              1.081              0.491

 Optimization completed.
    -- Stationary point found.
 Normal termination of Gaussian 09 at Mon Jan 27 17:03:09 2020.
