 Gaussian 09, Revision D.01,
 Gaussian 09:  ES64L-G09RevD.01 24-Apr-2013

 -----------------------------
 # b3lyp 6-31G(2df,p) opt Freq
 -----------------------------

 -----
 titel
 -----
 Symbolic Z-matrix:
 Charge =  0 Multiplicity = 1

 SCF Done:  E(RB3LYP) =  -423.261655841     A.U. after   14 cycles
 Optimization completed.
    -- Stationary point found.
 Normal termination of Gaussian 09 at Tue Jan 28 00:42:36 2020.

 ----------------------------------------------------------------------
 #N Geom=AllCheck Guess=TCheck SCRF=Check GenChk RB3LYP/6-31G(2df,p) Fr
 eq
 ----------------------------------------------------------------------

 Structure from the checkpoint file:  "/scratch/puck/g09_c907e938-1d6e-4f64-ac69-ce2d47e99fc9/Gau-37419.chk"
 -----
 titel
 -----
 Charge =  0 Multiplicity = 1

                         Standard orientation:
 ---------------------------------------------------------------------
 Center     Atomic      Atomic             Coordinates (Angstroms)
 Number     Number       Type             X           Y           Z
 ---------------------------------------------------------------------
      1          6           0       -2.243301   -0.978884    0.616610
      2          6           0       -1.167046   -0.593621   -0.396473
      3          8           0       -0.084565   -1.528279   -0.320809
      4          6           0        1.084736   -0.859750   -0.068911
      5          8           0        2.141009   -1.419364    0.042111
      6          6           0        0.783592    0.591089    0.023295
      7          6           0        1.880781    1.567279    0.288642
      8          6           0       -0.530996    0.760075   -0.171670
      9          6           0       -1.339066    2.014883   -0.195992
     10          1           0       -3.108476   -0.314639    0.530693
     11          1           0       -2.576800   -2.003380    0.434603
     12          1           0       -1.848897   -0.915175    1.634811
     13          1           0       -1.584283   -0.654544   -1.412376
     14          1           0        2.668204    1.471325   -0.466373
     15          1           0        1.524180    2.599756    0.292431
     16          1           0        2.353816    1.360253    1.254759
     17          1           0       -1.901955    2.100879   -1.133531
     18          1           0       -2.077022    2.026938    0.615264
     19          1           0       -0.712522    2.903304   -0.093690
 ---------------------------------------------------------------------

 SCF Done:  E(RB3LYP) =  -423.261655841     A.U. after    1 cycles

 The electronic state is 1-A.
 Alpha  occ. eigenvalues --  -19.17060 -19.11073 -10.29062 -10.25492 -10.21385
 Alpha  occ. eigenvalues --  -10.20479 -10.20078 -10.19324 -10.19029  -1.09038
 Alpha  occ. eigenvalues --   -1.01072  -0.83733  -0.77829  -0.73956  -0.69637
 Alpha  occ. eigenvalues --   -0.64955  -0.56289  -0.55535  -0.50231  -0.46741
 Alpha  occ. eigenvalues --   -0.45183  -0.43697  -0.42846  -0.42238  -0.41138
 Alpha  occ. eigenvalues --   -0.40670  -0.39930  -0.38940  -0.38043  -0.36364
 Alpha  occ. eigenvalues --   -0.34010  -0.28978  -0.26042  -0.25955
 Alpha virt. eigenvalues --   -0.02807   0.07406   0.08224   0.10379   0.12320
 Alpha virt. eigenvalues --    0.12868   0.13530   0.14189   0.15394   0.16331
 Alpha virt. eigenvalues --    0.17420   0.18459   0.19494   0.20897   0.22013

 Mulliken charges:
               1
     1  C   -0.398169
     2  C    0.026934
     3  O   -0.240252
     4  C    0.394536
     5  O   -0.353440
     6  C    0.035388
     7  C   -0.494321
     8  C    0.200514
     9  C   -0.503014
    10  H    0.121362
    11  H    0.139798
    12  H    0.130619
    13  H    0.103851
    14  H    0.148557
    15  H    0.121105
    16  H    0.147468
    17  H    0.138382
    18  H    0.142574
    19  H    0.138107
 Sum of Mulliken charges =   0.00000

 Dipole moment (field-independent basis, Debye):
    X=             -3.5151    Y=              3.5261    Z=             -0.0457  Tot=              4.9791
 Quadrupole moment (field-independent basis, Debye-Ang):
   XX=            -54.8556   YY=            -55.9234   ZZ=            -51.9783
   XY=              5.5839   XZ=              0.4566   YZ=             -0.2799

  Exact polarizability: 104.210  -3.046  78.907   4.140  -0.100  56.037
 Approx polarizability: 161.634 -14.487 110.798  10.498  -0.113  86.505

                      1                      2                      3
                      A                      A                      A
 Frequencies --     79.5225               111.1942               135.0889
 Red. masses --      1.0287                 2.6492                 1.5084
 Frc consts  --      0.0038                 0.0193                 0.0162
 IR Inten    --      0.6126                 0.8092                 0.0733

                      4                      5                      6
                      A                      A                      A
 Frequencies --    141.0863               208.8689               246.6038
 Red. masses --      2.1855                 1.8832                 1.2563
 Frc consts  --      0.0256                 0.0484                 0.0450
 IR Inten    --      0.8925                 0.1638                 0.4708

                      7                      8                      9
                      A                      A                      A
 Frequencies --    258.8251               292.4711               341.3345
 Red. masses --      2.5142                 3.1832                 3.7643
 Frc consts  --      0.0992                 0.1604                 0.2584
 IR Inten    --      1.2385                 1.9625                 1.1979

                     10                     11                     12
                      A                      A                      A
 Frequencies --    414.9317               541.5299               557.0711
 Red. masses --      3.4758                 4.2695                 3.9089
 Frc consts  --      0.3526                 0.7377                 0.7147
 IR Inten    --      0.7048                 3.0567                 3.2278

                     13                     14                     15
                      A                      A                      A
 Frequencies --    598.8114               659.2487               722.9060
 Red. masses --      3.6714                 5.9051                 3.5345
 Frc consts  --      0.7756                 1.5121                 1.0883
 IR Inten    --      8.8942                 1.7337                 2.9097

                     16                     17                     18
                      A                      A                      A
 Frequencies --    777.8262               851.1264               928.1466
 Red. masses --      5.8930                 2.2806                 2.3702
 Frc consts  --      2.1006                 0.9734                 1.2030
 IR Inten    --      9.7339                 5.7558                 3.9313

                     19                     20                     21
                      A                      A                      A
 Frequencies --    976.2742              1014.3200              1059.1183
 Red. masses --      1.7059                 1.3128                 1.6877
 Frc consts  --      0.9579                 0.7958                 1.1154
 IR Inten    --     15.2926                 2.4412                14.3705

                     22                     23                     24
                      A                      A                      A
 Frequencies --   1070.9765              1077.1732              1113.9824
 Red. masses --      1.7967                 4.9149                 2.2912
 Frc consts  --      1.2142                 3.3600                 1.6752
 IR Inten    --     11.7224               114.6332                12.6753

                     25                     26                     27
                      A                      A                      A
 Frequencies --   1126.5639              1149.6130              1203.5455
 Red. masses --      2.2342                 2.8208                 2.2118
 Frc consts  --      1.6706                 2.1965                 1.8877
 IR Inten    --     17.9398                14.7917                10.1784

                     28                     29                     30
                      A                      A                      A
 Frequencies --   1328.8598              1347.4757              1355.5515
 Red. masses --      2.5754                 2.3083                 1.3477
 Frc consts  --      2.6795                 2.4694                 1.4591
 IR Inten    --     49.9218                 7.2397                10.7201

                     31                     32                     33
                      A                      A                      A
 Frequencies --   1402.6013              1415.1916              1419.8205
 Red. masses --      1.2444                 1.4904                 1.2370
 Frc consts  --      1.4423                 1.7586                 1.4693
 IR Inten    --      3.5577                 4.4044                 2.9711

                     34                     35                     36
                      A                      A                      A
 Frequencies --   1472.7516              1477.9523              1481.7407
 Red. masses --      1.0426                 1.0465                 1.0455
 Frc consts  --      1.3324                 1.3469                 1.3525
 IR Inten    --      2.6416                11.6636                 6.1095

                     37                     38                     39
                      A                      A                      A
 Frequencies --   1485.8011              1490.0490              1495.7806
 Red. masses --      1.0611                 1.0589                 1.0493
 Frc consts  --      1.3801                 1.3852                 1.3832
 IR Inten    --      5.8625                 0.0774                 3.1250

                     40                     41                     42
                      A                      A                      A
 Frequencies --   1739.0281              1859.2855              3002.4960
 Red. masses --      8.5798                12.8761                 1.0825
 Frc consts  --     15.2876                26.2258                 5.7495
 IR Inten    --     26.1870               428.5181                24.9313

                     43                     44                     45
                      A                      A                      A
 Frequencies --   3026.1801              3039.8540              3045.3307
 Red. masses --      1.0394                 1.0365                 1.0345
 Frc consts  --      5.6080                 5.6430                 5.6524
 IR Inten    --     18.2386                15.3672                14.0351

                     46                     47                     48
                      A                      A                      A
 Frequencies --   3073.7001              3093.3723              3120.7000
 Red. masses --      1.0983                 1.0988                 1.1016
 Frc consts  --      6.1135                 6.1950                 6.3209
 IR Inten    --     12.7459                 8.2004                14.4375

                     49                     50                     51
                      A                      A                      A
 Frequencies --   3123.8100              3127.3769              3130.2854
 Red. masses --      1.1007                 1.0986                 1.1028
 Frc consts  --      6.3285                 6.3307                 6.3665
 IR Inten    --     12.9454                21.6698                12.8412

 - Thermochemistry -
 -------------------
 Temperature   298.150 Kelvin.  Pressure   1.00000 Atm.
 Atom     1 has atomic number  6 and mass  12.00000

 Molecular mass:   126.06808 amu.
 Principal axes and moments of inertia in atomic units:
                           1         2         3
     Eigenvalues --   835.018101087.478031788.74005
           X            0.99152   0.12991  -0.00224
           Y           -0.12992   0.99151  -0.00573
           Z            0.00148   0.00598   0.99998
 This molecule is an asymmetric top.
 Rotational symmetry number  1.
 Warning -- assumption of classical behavior for rotation
           may cause significant error
 Rotational temperatures (Kelvin)      0.10373     0.07965     0.04842
 Rotational constants (GHZ):           2.16132     1.65957     1.00895
 Zero-point vibrational energy     413986.6 (Joules/Mol)
                                   98.94517 (Kcal/Mol)
 Warning -- explicit consideration of  13 degrees of freedom as
           vibrations may cause significant error
 Vibrational temperatures:    114.42   159.98   194.36   202.99   300.52
          (Kelvin)            354.81   372.39   420.80   491.10   596.99
                              779.14   801.50   861.55   948.51  1040.10
                             1119.12  1224.58  1335.39  1404.64  1459.38
                             1523.83  1540.89  1549.81  1602.77  1620.87
                             1654.03  1731.63  1911.93  1938.71  1950.33
                             2018.03  2036.14  2042.80  2118.96  2126.44
                             2131.89  2137.73  2143.85  2152.09  2502.07
                             2675.09  4319.92  4353.99  4373.67  4381.55
                             4422.36  4450.67  4489.99  4494.46  4499.59
                             4503.78

 Zero-point correction=                           0.157679 (Hartree/Particle)
 Thermal correction to Energy=                    0.167236
 Thermal correction to Enthalpy=                  0.168181
 Thermal correction to Gibbs Free Energy=         0.123203
 Sum of electronic and zero-point Energies=           -423.103977
 Sum of electronic and thermal Energies=              -423.094419
 Sum of electronic and thermal Enthalpies=            -423.093475
 Sum of electronic and thermal Free Energies=         -423.138453

                     E (Thermal)             CV                S
                      KCal/Mol        Cal/Mol-Kelvin    Cal/Mol-Kelvin
 Total                  104.942             34.365             94.663
 Electronic               0.000              0.000              0.000
 Translational            0.889              2.981             40.409
 Rotational               0.889              2.981             28.876
 Vibrational            103.165             28.403             25.379
 Vibration     1          0.600              1.963              3.903
 Vibration     2          0.607              1.940              3.248
 Vibration     3          0.613              1.918              2.872
 Vibration     4          0.615              1.912              2.789
 Vibration     5          0.642              1.827              2.054
 Vibration     6          0.661              1.768              1.755
 Vibration     7          0.668              1.748              1.670
 Vibration     8          0.688              1.688              1.460
 Vibration     9          0.721              1.593              1.206
 Vibration    10          0.778              1.438              0.909
 Vibration    11          0.897              1.158              0.562
 Vibration    12          0.913              1.124              0.530
 Vibration    13          0.957              1.034              0.452

 Optimization completed.
    -- Stationary point found.
 Normal termination of Gaussian 09 at Tue Jan 28 02:39:50 2020.
