 Gaussian 09, Revision D.01,
 Gaussian 09:  ES64L-G09RevD.01 24-Apr-2013

 -----------------------------
 # b3lyp 6-31G(2df,p) opt Freq
 -----------------------------

 -----
 titel
 -----
 Symbolic Z-matrix:
 Charge =  0 Multiplicity = 1

 SCF Done:  E(RB3LYP) =  -423.204227754     A.U. after   14 cycles
 Optimization completed.
    -- Stationary point found.
 Normal termination of Gaussian 09 at Mon Jan 27 13:14:12 2020.

 ----------------------------------------------------------------------
 #N Geom=AllCheck Guess=TCheck SCRF=Check GenChk RB3LYP/6-31G(2df,p) Fr
 eq
 ----------------------------------------------------------------------

 Structure from the checkpoint file:  "/scratch/puck/g09_6b044747-1bfe-43bb-8d1b-65deaeeae113/Gau-28154.chk"
 -----
 titel
 -----
 Charge =  0 Multiplicity = 1

                         Standard orientation:
 ---------------------------------------------------------------------
 Center     Atomic      Atomic             Coordinates (Angstroms)
 Number     Number       Type             X           Y           Z
 ---------------------------------------------------------------------
      1          8           0       -2.415707    0.036872   -0.726546
      2          6           0       -1.401961    0.013017   -0.062672
      3          6           0       -0.857224    1.238706    0.642793
      4          6           0        0.387446    1.833791   -0.048390
      5          6           0        1.668119    0.997544    0.070176
      6          6           0        1.704519   -0.309993   -0.733843
      7          6           0        0.783821   -1.422667   -0.271603
      8          8           0        0.339370   -1.434214    1.080717
      9          6           0       -0.654600   -1.285648    0.058376
     10          1           0       -1.664154    1.975582    0.649871
     11          1           0       -0.604462    0.977274    1.676342
     12          1           0        0.158514    2.022911   -1.105368
     13          1           0        0.574211    2.814237    0.403254
     14          1           0        2.509311    1.611275   -0.271385
     15          1           0        1.856877    0.769838    1.125194
     16          1           0        1.497625   -0.113854   -1.794951
     17          1           0        2.727417   -0.704462   -0.697339
     18          1           0        1.067522   -2.409115   -0.644482
     19          1           0       -1.292874   -2.153449   -0.103529
 ---------------------------------------------------------------------

 SCF Done:  E(RB3LYP) =  -423.204227754     A.U. after    1 cycles

 The electronic state is 1-A.
 Alpha  occ. eigenvalues --  -19.16659 -19.13049 -10.26931 -10.25418 -10.24364
 Alpha  occ. eigenvalues --  -10.19933 -10.19601 -10.19198 -10.18930  -1.08693
 Alpha  occ. eigenvalues --   -1.03978  -0.81700  -0.76669  -0.71668  -0.67199
 Alpha  occ. eigenvalues --   -0.63864  -0.56965  -0.53887  -0.51047  -0.49764
 Alpha  occ. eigenvalues --   -0.45529  -0.44827  -0.43016  -0.42258  -0.41685
 Alpha  occ. eigenvalues --   -0.40784  -0.37874  -0.36019  -0.34330  -0.34148
 Alpha  occ. eigenvalues --   -0.33358  -0.30706  -0.28566  -0.24386
 Alpha virt. eigenvalues --   -0.02626   0.07842   0.10154   0.10789   0.12319
 Alpha virt. eigenvalues --    0.13328   0.13952   0.14768   0.16083   0.16692
 Alpha virt. eigenvalues --    0.17349   0.17563   0.18063   0.19591   0.21158

 Mulliken charges:
               1
     1  O   -0.311179
     2  C    0.357897
     3  C   -0.292196
     4  C   -0.205832
     5  C   -0.192617
     6  C   -0.246138
     7  C    0.068648
     8  O   -0.243122
     9  C   -0.051459
    10  H    0.118517
    11  H    0.124619
    12  H    0.108029
    13  H    0.107784
    14  H    0.099454
    15  H    0.116427
    16  H    0.114755
    17  H    0.112092
    18  H    0.102480
    19  H    0.111838
 Sum of Mulliken charges =   0.00000

 Dipole moment (field-independent basis, Debye):
    X=              2.5881    Y=              0.4424    Z=             -0.2631  Tot=              2.6388
 Quadrupole moment (field-independent basis, Debye-Ang):
   XX=            -58.2173   YY=            -50.2120   ZZ=            -54.9946
   XY=              0.5334   XZ=             -4.7861   YZ=              2.9815

  Exact polarizability:  85.567  -1.030  77.765   0.276   2.672  62.081
 Approx polarizability: 126.871  -3.202 103.720   8.156   0.514 104.458

                      1                      2                      3
                      A                      A                      A
 Frequencies --     85.5531               153.5225               214.3396
 Red. masses --      4.4503                 2.5545                 3.6185
 Frc consts  --      0.0192                 0.0355                 0.0979
 IR Inten    --      4.4793                 0.1208                 5.7367

                      4                      5                      6
                      A                      A                      A
 Frequencies --    268.6321               321.8856               363.1033
 Red. masses --      4.3170                 1.9120                 4.2490
 Frc consts  --      0.1835                 0.1167                 0.3301
 IR Inten    --      3.3842                 2.7300                 0.9132

                      7                      8                      9
                      A                      A                      A
 Frequencies --    423.7525               475.6723               521.8766
 Red. masses --      2.0457                 5.0877                 3.1947
 Frc consts  --      0.2164                 0.6783                 0.5127
 IR Inten    --      5.1865                 9.6867                 9.1438

                     10                     11                     12
                      A                      A                      A
 Frequencies --    579.5337               674.5456               741.6280
 Red. masses --      2.4208                 4.4801                 3.2372
 Frc consts  --      0.4790                 1.2011                 1.0490
 IR Inten    --      0.6892                 5.0128                 0.4397

                     13                     14                     15
                      A                      A                      A
 Frequencies --    782.0628               826.5001               869.3841
 Red. masses --      1.9795                 2.4378                 2.4613
 Frc consts  --      0.7133                 0.9811                 1.0961
 IR Inten    --      6.6573                 3.2308                16.9065

                     16                     17                     18
                      A                      A                      A
 Frequencies --    893.2579               929.7082               935.3463
 Red. masses --      3.8167                 1.8691                 2.1178
 Frc consts  --      1.7943                 0.9519                 1.0916
 IR Inten    --      3.4930                 6.3261                 4.3100

                     19                     20                     21
                      A                      A                      A
 Frequencies --    954.5262              1033.2192              1071.0267
 Red. masses --      3.4916                 2.2232                 1.6431
 Frc consts  --      1.8744                 1.3984                 1.1105
 IR Inten    --     20.7847                 0.9068                 6.3735

                     22                     23                     24
                      A                      A                      A
 Frequencies --   1090.8723              1105.6405              1123.0906
 Red. masses --      1.7940                 1.3893                 1.6509
 Frc consts  --      1.2578                 1.0007                 1.2269
 IR Inten    --     14.8715                 3.4342                 7.3678

                     25                     26                     27
                      A                      A                      A
 Frequencies --   1181.2205              1199.1609              1249.3263
 Red. masses --      1.3476                 1.5188                 1.4006
 Frc consts  --      1.1078                 1.2867                 1.2880
 IR Inten    --      0.5223                17.8881                 3.5360

                     28                     29                     30
                      A                      A                      A
 Frequencies --   1279.6589              1292.8938              1302.4326
 Red. masses --      1.3410                 1.4179                 1.2130
 Frc consts  --      1.2938                 1.3965                 1.2123
 IR Inten    --     20.3240                 3.6796                 3.8197

                     31                     32                     33
                      A                      A                      A
 Frequencies --   1353.4628              1375.7065              1383.4151
 Red. masses --      1.4054                 1.5755                 1.3706
 Frc consts  --      1.5169                 1.7568                 1.5455
 IR Inten    --      5.1387                16.4211                 4.8333

                     34                     35                     36
                      A                      A                      A
 Frequencies --   1391.5003              1397.7964              1452.6753
 Red. masses --      1.6593                 1.4192                 2.1329
 Frc consts  --      1.8930                 1.6338                 2.6519
 IR Inten    --      2.3459                 1.3886                21.8617

                     37                     38                     39
                      A                      A                      A
 Frequencies --   1467.5157              1479.6527              1485.1834
 Red. masses --      1.1135                 1.1006                 1.1631
 Frc consts  --      1.4129                 1.4197                 1.5116
 IR Inten    --      8.6993                 1.3322                 5.7263

                     40                     41                     42
                      A                      A                      A
 Frequencies --   1492.5087              1795.2260              3018.0587
 Red. masses --      1.0918                11.2024                 1.0614
 Frc consts  --      1.4329                21.2715                 5.6964
 IR Inten    --      4.0971               168.1123                16.6682

                     43                     44                     45
                      A                      A                      A
 Frequencies --   3023.6559              3034.8868              3047.1153
 Red. masses --      1.0631                 1.0659                 1.0624
 Frc consts  --      5.7265                 5.7845                 5.8118
 IR Inten    --     19.4179                11.8776                 6.6547

                     46                     47                     48
                      A                      A                      A
 Frequencies --   3054.6230              3069.5623              3081.0621
 Red. masses --      1.0958                 1.0957                 1.1016
 Frc consts  --      6.0243                 6.0827                 6.1612
 IR Inten    --     26.6990                33.3702                35.1671

                     49                     50                     51
                      A                      A                      A
 Frequencies --   3088.0308              3111.6587              3127.8528
 Red. masses --      1.0864                 1.1031                 1.0892
 Frc consts  --      6.1041                 6.2929                 6.2781
 IR Inten    --     36.3222                13.8441                19.9795

 - Thermochemistry -
 -------------------
 Temperature   298.150 Kelvin.  Pressure   1.00000 Atm.
 Atom     1 has atomic number  8 and mass  15.99491

 Molecular mass:   126.06808 amu.
 Principal axes and moments of inertia in atomic units:
                           1         2         3
     Eigenvalues --   819.558121019.208131485.72164
           X            0.99883   0.03743  -0.03052
           Y           -0.03636   0.99872   0.03512
           Z            0.03180  -0.03397   0.99892
 This molecule is an asymmetric top.
 Rotational symmetry number  1.
 Warning -- assumption of classical behavior for rotation
           may cause significant error
 Rotational temperatures (Kelvin)      0.10568     0.08498     0.05830
 Rotational constants (GHZ):           2.20209     1.77073     1.21472
 Zero-point vibrational energy     422727.5 (Joules/Mol)
                                  101.03430 (Kcal/Mol)
 Warning -- explicit consideration of  10 degrees of freedom as
           vibrations may cause significant error
 Vibrational temperatures:    123.09   220.88   308.39   386.50   463.12
          (Kelvin)            522.42   609.68   684.39   750.86   833.82
                              970.52  1067.04  1125.21  1189.15  1250.85
                             1285.20  1337.64  1345.75  1373.35  1486.57
                             1540.97  1569.52  1590.77  1615.87  1699.51
                             1725.32  1797.50  1841.14  1860.18  1873.91
                             1947.33  1979.33  1990.42  2002.06  2011.11
                             2090.07  2111.43  2128.89  2136.84  2147.38
                             2582.93  4342.31  4350.36  4366.52  4384.11
                             4394.92  4416.41  4432.96  4442.98  4476.98
                             4500.28

 Zero-point correction=                           0.161008 (Hartree/Particle)
 Thermal correction to Energy=                    0.168807
 Thermal correction to Enthalpy=                  0.169751
 Thermal correction to Gibbs Free Energy=         0.128657
 Sum of electronic and zero-point Energies=           -423.043219
 Sum of electronic and thermal Energies=              -423.035421
 Sum of electronic and thermal Enthalpies=            -423.034477
 Sum of electronic and thermal Free Energies=         -423.075571

                     E (Thermal)             CV                S
                      KCal/Mol        Cal/Mol-Kelvin    Cal/Mol-Kelvin
 Total                  105.928             30.393             86.490
 Electronic               0.000              0.000              0.000
 Translational            0.889              2.981             40.409
 Rotational               0.889              2.981             28.608
 Vibrational            104.150             24.432             17.473
 Vibration     1          0.601              1.959              3.759
 Vibration     2          0.619              1.899              2.628
 Vibration     3          0.644              1.819              2.006
 Vibration     4          0.673              1.731              1.605
 Vibration     5          0.707              1.632              1.301
 Vibration     6          0.737              1.548              1.109
 Vibration     7          0.786              1.419              0.879
 Vibration     8          0.832              1.304              0.722
 Vibration     9          0.877              1.202              0.606
 Vibration    10          0.936              1.076              0.486

 Optimization completed.
    -- Stationary point found.
 Normal termination of Gaussian 09 at Mon Jan 27 14:34:38 2020.
