 Gaussian 09, Revision D.01,
 Gaussian 09:  ES64L-G09RevD.01 24-Apr-2013

 -----------------------------
 # b3lyp 6-31G(2df,p) opt Freq
 -----------------------------

 -----
 titel
 -----
 Symbolic Z-matrix:
 Charge =  0 Multiplicity = 1

 SCF Done:  E(RB3LYP) =  -423.199295700     A.U. after   13 cycles
 Optimization completed.
    -- Stationary point found.
 Normal termination of Gaussian 09 at Mon Jan 27 11:28:34 2020.

 ----------------------------------------------------------------------
 #N Geom=AllCheck Guess=TCheck SCRF=Check GenChk RB3LYP/6-31G(2df,p) Fr
 eq
 ----------------------------------------------------------------------

 Structure from the checkpoint file:  "/scratch/puck/g09_46479152-fb89-4118-b3e9-4ac6fd392fff/Gau-61268.chk"
 -----
 titel
 -----
 Charge =  0 Multiplicity = 1

                         Standard orientation:
 ---------------------------------------------------------------------
 Center     Atomic      Atomic             Coordinates (Angstroms)
 Number     Number       Type             X           Y           Z
 ---------------------------------------------------------------------
      1          6           0        1.265935    1.213574   -0.465866
      2          6           0        2.262792    0.079902   -0.433596
      3          6           0        1.787672   -0.986853    0.208559
      4          6           0        0.370064   -0.750353    0.667618
      5          8           0       -0.496507   -1.380498   -0.291883
      6          6           0       -1.800927   -0.873845   -0.252159
      7          8           0       -1.856611    0.492202   -0.566062
      8          6           0       -1.193829    1.255157    0.432698
      9          6           0        0.252202    0.795905    0.624141
     10          1           0        1.713633    2.193038   -0.265152
     11          1           0        0.785363    1.276102   -1.451658
     12          1           0        3.233723    0.138878   -0.913576
     13          1           0        2.285946   -1.941631    0.323376
     14          1           0        0.138966   -1.154751    1.664813
     15          1           0       -2.371442   -1.404701   -1.017082
     16          1           0       -2.251302   -1.043438    0.746417
     17          1           0       -1.244812    2.300834    0.115120
     18          1           0       -1.741967    1.164601    1.385995
     19          1           0        0.613393    1.176525    1.586938
 ---------------------------------------------------------------------

 SCF Done:  E(RB3LYP) =  -423.199295700     A.U. after    1 cycles

 The electronic state is 1-A.
 Alpha  occ. eigenvalues --  -19.14231 -19.13726 -10.26775 -10.23372 -10.23034
 Alpha  occ. eigenvalues --  -10.18989 -10.18668 -10.18501 -10.17851  -1.06833
 Alpha  occ. eigenvalues --   -1.00081  -0.84686  -0.74898  -0.71399  -0.66445
 Alpha  occ. eigenvalues --   -0.63992  -0.55334  -0.54555  -0.50266  -0.49542
 Alpha  occ. eigenvalues --   -0.49031  -0.46654  -0.45237  -0.41484  -0.39629
 Alpha  occ. eigenvalues --   -0.37959  -0.37475  -0.35658  -0.34528  -0.31923
 Alpha  occ. eigenvalues --   -0.30714  -0.26621  -0.25858  -0.25065
 Alpha virt. eigenvalues --    0.01260   0.08757   0.11215   0.13022   0.13268
 Alpha virt. eigenvalues --    0.13494   0.14944   0.15723   0.16325   0.16666
 Alpha virt. eigenvalues --    0.17765   0.19623   0.19782   0.20161   0.22586

 Mulliken charges:
               1
     1  C   -0.270927
     2  C   -0.052093
     3  C   -0.083900
     4  C    0.064996
     5  O   -0.260947
     6  C    0.019659
     7  O   -0.229447
     8  C   -0.120844
     9  C   -0.016888
    10  H    0.100902
    11  H    0.127748
    12  H    0.097524
    13  H    0.098439
    14  H    0.063775
    15  H    0.115489
    16  H    0.068479
    17  H    0.110432
    18  H    0.087272
    19  H    0.080331
 Sum of Mulliken charges =   0.00000

 Dipole moment (field-independent basis, Debye):
    X=              0.6910    Y=              0.7799    Z=              1.4110  Tot=              1.7541
 Quadrupole moment (field-independent basis, Debye-Ang):
   XX=            -51.9574   YY=            -52.3186   ZZ=            -53.2411
   XY=              1.5779   XZ=             -2.2067   YZ=             -0.2920

  Exact polarizability:  83.949   2.715  78.761  -4.431  -4.053  63.782
 Approx polarizability: 110.306   6.186 120.443  -5.065 -10.203 102.791

                      1                      2                      3
                      A                      A                      A
 Frequencies --    139.0938               160.2093               283.9099
 Red. masses --      2.9962                 4.1012                 2.8268
 Frc consts  --      0.0342                 0.0620                 0.1342
 IR Inten    --      0.8780                 2.0359                 0.9578

                      4                      5                      6
                      A                      A                      A
 Frequencies --    308.0428               413.4682               434.4592
 Red. masses --      2.4207                 2.0008                 4.8448
 Frc consts  --      0.1353                 0.2015                 0.5388
 IR Inten    --      1.2826                 5.9713                 2.6257

                      7                      8                      9
                      A                      A                      A
 Frequencies --    469.5627               575.6029               653.1316
 Red. masses --      2.4095                 5.6302                 3.8477
 Frc consts  --      0.3130                 1.0991                 0.9671
 IR Inten    --      7.4196                 0.7738                 3.5871

                     10                     11                     12
                      A                      A                      A
 Frequencies --    713.5003               771.4036               793.5141
 Red. masses --      1.7820                 2.6896                 3.1332
 Frc consts  --      0.5345                 0.9430                 1.1624
 IR Inten    --      5.7795                21.0937                 8.1478

                     13                     14                     15
                      A                      A                      A
 Frequencies --    826.0129               897.4624               934.8605
 Red. masses --      3.4097                 2.4636                 2.2464
 Frc consts  --      1.3707                 1.1691                 1.1567
 IR Inten    --      3.7987                 3.3919                20.4395

                     16                     17                     18
                      A                      A                      A
 Frequencies --    935.6516               971.9566               979.0712
 Red. masses --      2.5823                 1.4876                 1.9202
 Frc consts  --      1.3319                 0.8280                 1.0845
 IR Inten    --      2.8074                14.4252                 6.5769

                     19                     20                     21
                      A                      A                      A
 Frequencies --   1009.4039              1020.5372              1048.6638
 Red. masses --      1.8537                 2.6608                 3.6330
 Frc consts  --      1.1128                 1.6327                 2.3539
 IR Inten    --      3.1083                36.5480                92.3132

                     22                     23                     24
                      A                      A                      A
 Frequencies --   1074.9231              1111.5971              1131.5428
 Red. masses --      3.5266                 2.2740                 1.1500
 Frc consts  --      2.4009                 1.6555                 0.8676
 IR Inten    --     49.2915                42.8672                 0.5369

                     25                     26                     27
                      A                      A                      A
 Frequencies --   1164.8332              1182.9051              1198.6237
 Red. masses --      2.1292                 1.4786                 2.1308
 Frc consts  --      1.7021                 1.2190                 1.8037
 IR Inten    --     30.5959                31.8952                92.4899

                     28                     29                     30
                      A                      A                      A
 Frequencies --   1271.7859              1277.9610              1296.6499
 Red. masses --      1.2535                 1.3644                 1.4057
 Frc consts  --      1.1945                 1.3129                 1.3925
 IR Inten    --     13.2323                 2.2384                 5.2939

                     31                     32                     33
                      A                      A                      A
 Frequencies --   1317.6920              1336.5102              1355.9229
 Red. masses --      1.3099                 1.2476                 1.7579
 Frc consts  --      1.3400                 1.3130                 1.9043
 IR Inten    --      0.6341                 3.1390                 3.9159

                     34                     35                     36
                      A                      A                      A
 Frequencies --   1367.1559              1384.0157              1404.1795
 Red. masses --      1.2739                 1.7531                 1.2569
 Frc consts  --      1.4029                 1.9785                 1.4602
 IR Inten    --     10.0092                 6.6120                16.1350

                     37                     38                     39
                      A                      A                      A
 Frequencies --   1443.9256              1480.1393              1494.5332
 Red. masses --      1.2255                 1.0970                 1.0839
 Frc consts  --      1.5054                 1.4160                 1.4264
 IR Inten    --     15.8643                 2.2517                 2.0922

                     40                     41                     42
                      A                      A                      A
 Frequencies --   1509.3915              1679.6326              2903.8976
 Red. masses --      1.1107                 6.1794                 1.0703
 Frc consts  --      1.4909                10.2712                 5.3175
 IR Inten    --      3.9327                 2.9655                83.7887

                     43                     44                     45
                      A                      A                      A
 Frequencies --   2962.4244              2986.3839              3022.3764
 Red. masses --      1.0709                 1.0838                 1.0637
 Frc consts  --      5.5372                 5.6951                 5.7247
 IR Inten    --     57.6956                64.5588                14.6160

                     46                     47                     48
                      A                      A                      A
 Frequencies --   3038.3858              3067.5993              3080.8418
 Red. masses --      1.0841                 1.0982                 1.0920
 Frc consts  --      5.8965                 6.0887                 6.1069
 IR Inten    --     30.9383                34.6873                29.5217

                     49                     50                     51
                      A                      A                      A
 Frequencies --   3109.6316              3186.5165              3216.5559
 Red. masses --      1.0926                 1.0864                 1.1030
 Frc consts  --      6.2250                 6.4993                 6.7237
 IR Inten    --     35.8604                 9.2628                18.7592

 - Thermochemistry -
 -------------------
 Temperature   298.150 Kelvin.  Pressure   1.00000 Atm.
 Atom     1 has atomic number  6 and mass  12.00000

 Molecular mass:   126.06808 amu.
 Principal axes and moments of inertia in atomic units:
                           1         2         3
     Eigenvalues --   592.000821102.097691431.22731
           X            0.99972   0.01465  -0.01867
           Y           -0.01480   0.99986  -0.00762
           Z            0.01856   0.00790   0.99980
 This molecule is an asymmetric top.
 Rotational symmetry number  1.
 Warning -- assumption of classical behavior for rotation
           may cause significant error
 Rotational temperatures (Kelvin)      0.14631     0.07859     0.06052
 Rotational constants (GHZ):           3.04855     1.63755     1.26097
 Zero-point vibrational energy     427055.2 (Joules/Mol)
                                  102.06864 (Kcal/Mol)
 Warning -- explicit consideration of   8 degrees of freedom as
           vibrations may cause significant error
 Vibrational temperatures:    200.12   230.51   408.48   443.20   594.89
          (Kelvin)            625.09   675.60   828.16   939.71  1026.57
                             1109.88  1141.69  1188.45  1291.25  1345.05
                             1346.19  1398.43  1408.66  1452.31  1468.32
                             1508.79  1546.57  1599.34  1628.04  1675.93
                             1701.93  1724.55  1829.81  1838.70  1865.59
                             1895.86  1922.94  1950.87  1967.03  1991.29
                             2020.30  2077.48  2129.59  2150.30  2171.67
                             2416.61  4178.06  4262.26  4296.73  4348.52
                             4371.55  4413.59  4432.64  4474.06  4584.68
                             4627.90

 Zero-point correction=                           0.162657 (Hartree/Particle)
 Thermal correction to Energy=                    0.169673
 Thermal correction to Enthalpy=                  0.170617
 Thermal correction to Gibbs Free Energy=         0.131326
 Sum of electronic and zero-point Energies=           -423.036639
 Sum of electronic and thermal Energies=              -423.029623
 Sum of electronic and thermal Enthalpies=            -423.028679
 Sum of electronic and thermal Free Energies=         -423.067969

                     E (Thermal)             CV                S
                      KCal/Mol        Cal/Mol-Kelvin    Cal/Mol-Kelvin
 Total                  106.471             28.369             82.694
 Electronic               0.000              0.000              0.000
 Translational            0.889              2.981             40.409
 Rotational               0.889              2.981             28.326
 Vibrational            104.694             22.407             13.960
 Vibration     1          0.615              1.914              2.816
 Vibration     2          0.622              1.891              2.547
 Vibration     3          0.682              1.703              1.510
 Vibration     4          0.698              1.658              1.373
 Vibration     5          0.777              1.441              0.914
 Vibration     6          0.795              1.395              0.844
 Vibration     7          0.827              1.318              0.739
 Vibration     8          0.932              1.084              0.494

 Optimization completed.
    -- Stationary point found.
 Normal termination of Gaussian 09 at Mon Jan 27 13:46:46 2020.
