 Gaussian 09, Revision D.01,
 Gaussian 09:  ES64L-G09RevD.01 24-Apr-2013

 -----------------------------
 # b3lyp 6-31G(2df,p) opt Freq
 -----------------------------

 -----
 titel
 -----
 Symbolic Z-matrix:
 Charge =  0 Multiplicity = 1

 SCF Done:  E(RB3LYP) =  -423.131166415     A.U. after   14 cycles
 Optimization completed.
    -- Stationary point found.
 Normal termination of Gaussian 09 at Tue Jan 28 09:04:22 2020.

 ----------------------------------------------------------------------
 #N Geom=AllCheck Guess=TCheck SCRF=Check GenChk RB3LYP/6-31G(2df,p) Fr
 eq
 ----------------------------------------------------------------------

 Structure from the checkpoint file:  "/scratch/puck/g09_e1ed8409-d09d-4221-bffd-da147e12bac7/Gau-17083.chk"
 -----
 titel
 -----
 Charge =  0 Multiplicity = 1

                         Standard orientation:
 ---------------------------------------------------------------------
 Center     Atomic      Atomic             Coordinates (Angstroms)
 Number     Number       Type             X           Y           Z
 ---------------------------------------------------------------------
      1          6           0       -3.586767   -0.517804    0.061615
      2          6           0       -2.141568   -0.353439   -0.010815
      3          6           0       -0.941836   -0.245109   -0.070766
      4          6           0        0.496674   -0.060558   -0.139090
      5          6           0        0.839825    1.367281   -0.599625
      6          8           0        0.344280    2.348017    0.285625
      7          6           0        1.350731   -1.133331   -0.872388
      8          8           0        2.240734   -1.246077    0.251785
      9          6           0        1.341706   -0.495321    1.092500
     10          1           0       -3.968912   -0.242440    1.050686
     11          1           0       -4.097736    0.107554   -0.678497
     12          1           0       -3.874980   -1.557695   -0.126874
     13          1           0        1.928376    1.483202   -0.616095
     14          1           0        0.465549    1.512513   -1.625338
     15          1           0       -0.608214    2.208410    0.353330
     16          1           0        0.812399   -2.067581   -1.074247
     17          1           0        1.865689   -0.802479   -1.782532
     18          1           0        0.802578   -1.140172    1.796860
     19          1           0        1.842550    0.312845    1.634837
 ---------------------------------------------------------------------

 SCF Done:  E(RB3LYP) =  -423.131166415     A.U. after    1 cycles

 The electronic state is 1-A.
 Alpha  occ. eigenvalues --  -19.13741 -19.13554 -10.23615 -10.23353 -10.23171
 Alpha  occ. eigenvalues --  -10.21908 -10.21314 -10.18794 -10.17911  -1.04308
 Alpha  occ. eigenvalues --   -1.02031  -0.80659  -0.77284  -0.70084  -0.69443
 Alpha  occ. eigenvalues --   -0.65989  -0.58115  -0.52115  -0.51188  -0.48548
 Alpha  occ. eigenvalues --   -0.46580  -0.44787  -0.43589  -0.43459  -0.42097
 Alpha  occ. eigenvalues --   -0.41729  -0.39883  -0.35787  -0.32718  -0.32555
 Alpha  occ. eigenvalues --   -0.28002  -0.25933  -0.25609  -0.24909
 Alpha virt. eigenvalues --    0.03746   0.04364   0.08545   0.09140   0.10422
 Alpha virt. eigenvalues --    0.11083   0.13394   0.14821   0.15514   0.16249
 Alpha virt. eigenvalues --    0.16464   0.18372   0.19215   0.20024   0.20701

 Mulliken charges:
               1
     1  C   -0.502038
     2  C    0.093658
     3  C   -0.021579
     4  C    0.067485
     5  C   -0.109497
     6  O   -0.421160
     7  C   -0.117483
     8  O   -0.272019
     9  C   -0.107382
    10  H    0.152811
    11  H    0.151353
    12  H    0.154551
    13  H    0.118652
    14  H    0.092156
    15  H    0.285420
    16  H    0.103916
    17  H    0.106606
    18  H    0.102836
    19  H    0.121713
 Sum of Mulliken charges =   0.00000

 Dipole moment (field-independent basis, Debye):
    X=             -2.8877    Y=             -0.3928    Z=             -0.7522  Tot=              3.0098
 Quadrupole moment (field-independent basis, Debye-Ang):
   XX=            -49.5665   YY=            -58.4260   ZZ=            -51.2985
   XY=              1.6667   XZ=             -2.0715   YZ=             -0.3219

  Exact polarizability: 106.586   3.066  68.605  -2.524   1.327  66.606
 Approx polarizability: 154.330   4.138  95.650  -3.566   3.270  96.919

                      1                      2                      3
                      A                      A                      A
 Frequencies --     25.2546                76.4261                92.1197
 Red. masses --      1.0198                 4.4584                 4.2541
 Frc consts  --      0.0004                 0.0153                 0.0213
 IR Inten    --      0.0081                 0.4590                 1.8611

                      4                      5                      6
                      A                      A                      A
 Frequencies --    113.0292               146.3414               224.8667
 Red. masses --      3.6047                 2.7275                 3.1628
 Frc consts  --      0.0271                 0.0344                 0.0942
 IR Inten    --      0.4601                 5.0482                 5.7038

                      7                      8                      9
                      A                      A                      A
 Frequencies --    289.0433               309.6868               341.5298
 Red. masses --      3.0135                 3.3499                 2.0494
 Frc consts  --      0.1483                 0.1893                 0.1408
 IR Inten    --      6.6445                 6.1284                 5.8971

                     10                     11                     12
                      A                      A                      A
 Frequencies --    400.1695               439.4247               486.0759
 Red. masses --      1.3668                 2.9270                 5.2880
 Frc consts  --      0.1290                 0.3330                 0.7361
 IR Inten    --     76.1016                34.6388                 3.2015

                     13                     14                     15
                      A                      A                      A
 Frequencies --    528.9356               618.8734               829.3196
 Red. masses --      5.1153                 3.7076                 3.6373
 Frc consts  --      0.8432                 0.8367                 1.4739
 IR Inten    --      2.8418                 8.9700                13.4864

                     16                     17                     18
                      A                      A                      A
 Frequencies --    866.2985               909.0230               973.3164
 Red. masses --      2.4489                 1.9811                 1.4304
 Frc consts  --      1.0828                 0.9645                 0.7984
 IR Inten    --      0.5704                11.9362                 0.2372

                     19                     20                     21
                      A                      A                      A
 Frequencies --    990.6784              1030.9670              1040.3980
 Red. masses --      3.0047                 8.6122                 4.6214
 Frc consts  --      1.7374                 5.3933                 2.9473
 IR Inten    --     13.9835                53.9815                26.4793

                     22                     23                     24
                      A                      A                      A
 Frequencies --   1051.9278              1054.1225              1071.2536
 Red. masses --      1.4194                 1.4055                 3.5544
 Frc consts  --      0.9254                 0.9202                 2.4033
 IR Inten    --      3.7788                 1.8671                63.8752

                     25                     26                     27
                      A                      A                      A
 Frequencies --   1106.4113              1152.7051              1159.6983
 Red. masses --      3.8585                 1.0957                 1.4905
 Frc consts  --      2.7830                 0.8578                 1.1810
 IR Inten    --     41.2819                 1.5584                 5.4143

                     28                     29                     30
                      A                      A                      A
 Frequencies --   1182.7732              1225.9344              1298.0404
 Red. masses --      1.5289                 1.9182                 1.2719
 Frc consts  --      1.2602                 1.6986                 1.2626
 IR Inten    --     12.5815                 4.1262                 0.7534

                     31                     32                     33
                      A                      A                      A
 Frequencies --   1318.8317              1367.9264              1379.8492
 Red. masses --      2.1599                 1.5616                 1.3092
 Frc consts  --      2.2134                 1.7217                 1.4687
 IR Inten    --     23.3505                 1.8995                 1.4631

                     34                     35                     36
                      A                      A                      A
 Frequencies --   1414.5067              1428.6607              1477.2395
 Red. masses --      1.2611                 1.2315                 1.0394
 Frc consts  --      1.4866                 1.4810                 1.3364
 IR Inten    --      9.4800                57.0260                 6.1232

                     37                     38                     39
                      A                      A                      A
 Frequencies --   1478.0080              1502.3356              1511.6438
 Red. masses --      1.0395                 1.0808                 1.0771
 Frc consts  --      1.3379                 1.4373                 1.4501
 IR Inten    --      5.9197                 1.3716                 0.7651

                     40                     41                     42
                      A                      A                      A
 Frequencies --   1534.0086              2358.2667              2980.7665
 Red. masses --      1.1080                11.8693                 1.0685
 Frc consts  --      1.5361                38.8919                 5.5937
 IR Inten    --      1.5318                 2.1372                48.9333

                     43                     44                     45
                      A                      A                      A
 Frequencies --   3011.5296              3026.0894              3029.1696
 Red. masses --      1.0532                 1.0587                 1.0350
 Frc consts  --      5.6278                 5.7120                 5.5954
 IR Inten    --     93.7081                18.2507                29.1375

                     46                     47                     48
                      A                      A                      A
 Frequencies --   3062.3428              3078.7838              3085.8508
 Red. masses --      1.1117                 1.0962                 1.1073
 Frc consts  --      6.1426                 6.1223                 6.2126
 IR Inten    --     35.7373                14.3148                42.8625

                     49                     50                     51
                      A                      A                      A
 Frequencies --   3090.7949              3091.7248              3780.0128
 Red. masses --      1.1003                 1.1002                 1.0655
 Frc consts  --      6.1930                 6.1963                 8.9696
 IR Inten    --      8.7849                 8.1068                25.7185

 - Thermochemistry -
 -------------------
 Temperature   298.150 Kelvin.  Pressure   1.00000 Atm.
 Atom     1 has atomic number  6 and mass  12.00000

 Molecular mass:   126.06808 amu.
 Principal axes and moments of inertia in atomic units:
                           1         2         3
     Eigenvalues --   796.251301653.838912125.31987
           X            0.99974   0.02168  -0.00742
           Y           -0.02172   0.99975  -0.00483
           Z            0.00732   0.00499   0.99996
 This molecule is an asymmetric top.
 Rotational symmetry number  1.
 Warning -- assumption of classical behavior for rotation
           may cause significant error
 Rotational temperatures (Kelvin)      0.10878     0.05237     0.04075
 Rotational constants (GHZ):           2.26655     1.09124     0.84916
 Zero-point vibrational energy     412968.8 (Joules/Mol)
                                   98.70190 (Kcal/Mol)
 Warning -- explicit consideration of  14 degrees of freedom as
           vibrations may cause significant error
 Vibrational temperatures:     36.34   109.96   132.54   162.62   210.55
          (Kelvin)            323.53   415.87   445.57   491.38   575.75
                              632.23   699.35   761.02   890.42  1193.20
                             1246.41  1307.88  1400.38  1425.36  1483.33
                             1496.90  1513.49  1516.65  1541.29  1591.88
                             1658.48  1668.55  1701.74  1763.84  1867.59
                             1897.50  1968.14  1985.29  2035.16  2055.52
                             2125.42  2126.52  2161.52  2174.92  2207.09
                             3393.02  4288.65  4332.91  4353.86  4358.29
                             4406.02  4429.68  4439.85  4446.96  4448.30
                             5438.59

 Zero-point correction=                           0.157291 (Hartree/Particle)
 Thermal correction to Energy=                    0.167397
 Thermal correction to Enthalpy=                  0.168341
 Thermal correction to Gibbs Free Energy=         0.120601
 Sum of electronic and zero-point Energies=           -422.973875
 Sum of electronic and thermal Energies=              -422.963770
 Sum of electronic and thermal Enthalpies=            -422.962825
 Sum of electronic and thermal Free Energies=         -423.010565

                     E (Thermal)             CV                S
                      KCal/Mol        Cal/Mol-Kelvin    Cal/Mol-Kelvin
 Total                  105.043             35.079            100.477
 Electronic               0.000              0.000              0.000
 Translational            0.889              2.981             40.409
 Rotational               0.889              2.981             29.416
 Vibrational            103.266             29.117             30.652
 Vibration     1          0.593              1.985              6.171
 Vibration     2          0.599              1.965              3.981
 Vibration     3          0.602              1.955              3.615
 Vibration     4          0.607              1.939              3.216
 Vibration     5          0.617              1.907              2.719
 Vibration     6          0.650              1.803              1.920
 Vibration     7          0.686              1.694              1.480
 Vibration     8          0.699              1.655              1.364
 Vibration     9          0.721              1.592              1.205
 Vibration    10          0.766              1.470              0.962
 Vibration    11          0.799              1.384              0.828
 Vibration    12          0.842              1.281              0.694
 Vibration    13          0.884              1.186              0.590
 Vibration    14          0.979              0.992              0.418

 Optimization completed on the basis of negligible forces.
    -- Stationary point found.
 Normal termination of Gaussian 09 at Tue Jan 28 09:41:45 2020.
