 Gaussian 09, Revision D.01,
 Gaussian 09:  ES64L-G09RevD.01 24-Apr-2013

 -----------------------------
 # b3lyp 6-31G(2df,p) opt Freq
 -----------------------------

 -----
 titel
 -----
 Symbolic Z-matrix:
 Charge =  0 Multiplicity = 1

 SCF Done:  E(RB3LYP) =  -423.257146462     A.U. after   14 cycles
 Optimization completed.
    -- Stationary point found.
 Normal termination of Gaussian 09 at Mon Jan 27 18:27:46 2020.

 ----------------------------------------------------------------------
 #N Geom=AllCheck Guess=TCheck SCRF=Check GenChk RB3LYP/6-31G(2df,p) Fr
 eq
 ----------------------------------------------------------------------

 Structure from the checkpoint file:  "/scratch/puck/g09_9385cbf3-5bbe-4132-b68d-0aac64fccb79/Gau-42339.chk"
 -----
 titel
 -----
 Charge =  0 Multiplicity = 1

                         Standard orientation:
 ---------------------------------------------------------------------
 Center     Atomic      Atomic             Coordinates (Angstroms)
 Number     Number       Type             X           Y           Z
 ---------------------------------------------------------------------
      1          6           0       -2.284895   -0.948766   -0.007102
      2          6           0       -0.973689   -0.201327    0.005558
      3          6           0       -0.861211    1.056513   -0.886216
      4          6           0        0.464705    1.705856   -0.386178
      5          6           0        0.939875    0.707054    0.712556
      6          6           0       -0.397854    0.288322    1.347382
      7          6           0        1.281717   -0.577321   -0.035342
      8          8           0        2.339640   -1.076130   -0.285084
      9          8           0        0.088556   -1.103928   -0.450947
     10          1           0       -2.223731   -1.846751    0.613737
     11          1           0       -3.085169   -0.310887    0.380296
     12          1           0       -2.549525   -1.253521   -1.023812
     13          1           0       -0.827671    0.771914   -1.940114
     14          1           0       -1.722364    1.714584   -0.740428
     15          1           0        1.207379    1.830443   -1.177133
     16          1           0        0.288301    2.687752    0.061156
     17          1           0        1.746217    1.059002    1.351637
     18          1           0       -0.309133   -0.515431    2.082924
     19          1           0       -0.961759    1.121372    1.776041
 ---------------------------------------------------------------------

 SCF Done:  E(RB3LYP) =  -423.257146462     A.U. after    1 cycles

 The electronic state is 1-A.
 Alpha  occ. eigenvalues --  -19.17073 -19.11742 -10.29458 -10.25640 -10.20642
 Alpha  occ. eigenvalues --  -10.20117 -10.19982 -10.19528 -10.18963  -1.09247
 Alpha  occ. eigenvalues --   -1.01555  -0.85225  -0.77644  -0.73450  -0.67794
 Alpha  occ. eigenvalues --   -0.61332  -0.59846  -0.54140  -0.50911  -0.48361
 Alpha  occ. eigenvalues --   -0.47547  -0.43687  -0.42544  -0.41727  -0.40187
 Alpha  occ. eigenvalues --   -0.39424  -0.38477  -0.36938  -0.36425  -0.34659
 Alpha  occ. eigenvalues --   -0.34143  -0.33135  -0.28484  -0.25600
 Alpha virt. eigenvalues --    0.01980   0.07007   0.09349   0.10773   0.13152
 Alpha virt. eigenvalues --    0.13729   0.14496   0.15624   0.16379   0.16939
 Alpha virt. eigenvalues --    0.17352   0.17625   0.18364   0.20405   0.21681

 Mulliken charges:
               1
     1  C   -0.474213
     2  C    0.404870
     3  C   -0.240540
     4  C   -0.233337
     5  C   -0.164186
     6  C   -0.266229
     7  C    0.442292
     8  O   -0.354037
     9  O   -0.271694
    10  H    0.132315
    11  H    0.121351
    12  H    0.133643
    13  H    0.119013
    14  H    0.104768
    15  H    0.124441
    16  H    0.109235
    17  H    0.092709
    18  H    0.114911
    19  H    0.104689
 Sum of Mulliken charges =   0.00000

 Dipole moment (field-independent basis, Debye):
    X=             -3.3030    Y=              2.7350    Z=              1.2403  Tot=              4.4641
 Quadrupole moment (field-independent basis, Debye-Ang):
   XX=            -58.2331   YY=            -54.5716   ZZ=            -51.4629
   XY=              4.5916   XZ=              1.4628   YZ=             -1.5639

  Exact polarizability:  84.693  -0.589  72.023   0.012  -0.011  66.034
 Approx polarizability: 123.172  -6.660 105.830  -1.719   2.820  98.885

                      1                      2                      3
                      A                      A                      A
 Frequencies --    147.5259               206.2427               234.4917
 Red. masses --      4.5093                 1.0554                 1.9313
 Frc consts  --      0.0578                 0.0265                 0.0626
 IR Inten    --      0.9663                 0.0393                 0.4622

                      4                      5                      6
                      A                      A                      A
 Frequencies --    282.1290               285.9554               416.8522
 Red. masses --      2.6264                 2.8578                 2.4469
 Frc consts  --      0.1232                 0.1377                 0.2505
 IR Inten    --      1.1834                 1.4408                 0.9617

                      7                      8                      9
                      A                      A                      A
 Frequencies --    457.6855               497.3431               574.3265
 Red. masses --      3.0827                 3.3815                 4.3710
 Frc consts  --      0.3805                 0.4928                 0.8495
 IR Inten    --      3.3199                 2.7719                 3.7350

                     10                     11                     12
                      A                      A                      A
 Frequencies --    600.5565               708.4894               763.0051
 Red. masses --      4.2125                 3.6180                 6.9111
 Frc consts  --      0.8952                 1.0700                 2.3706
 IR Inten    --      0.5050                 3.1832                 4.6318

                     13                     14                     15
                      A                      A                      A
 Frequencies --    814.7393               829.3868               858.9613
 Red. masses --      2.7901                 1.5851                 2.7936
 Frc consts  --      1.0912                 0.6424                 1.2144
 IR Inten    --      2.7484                 1.4320                 1.2554

                     16                     17                     18
                      A                      A                      A
 Frequencies --    891.6678               905.7419               928.0125
 Red. masses --      2.7514                 1.9580                 5.3699
 Frc consts  --      1.2889                 0.9464                 2.7247
 IR Inten    --      3.1641                 2.3013                85.8459

                     19                     20                     21
                      A                      A                      A
 Frequencies --    954.4043               973.0849              1005.9857
 Red. masses --      2.0822                 1.9951                 1.6544
 Frc consts  --      1.1175                 1.1130                 0.9864
 IR Inten    --      7.7461                 0.7177                15.9966

                     22                     23                     24
                      A                      A                      A
 Frequencies --   1026.6794              1076.5286              1089.3222
 Red. masses --      1.6873                 1.6762                 1.3182
 Frc consts  --      1.0479                 1.1445                 0.9216
 IR Inten    --      3.6666                47.4733                30.1186

                     25                     26                     27
                      A                      A                      A
 Frequencies --   1150.0582              1175.2275              1204.3588
 Red. masses --      1.7857                 1.4835                 2.1110
 Frc consts  --      1.3915                 1.2072                 1.8040
 IR Inten    --      4.3360                35.5751                17.7596

                     28                     29                     30
                      A                      A                      A
 Frequencies --   1240.2510              1253.4218              1262.1192
 Red. masses --      1.7648                 1.8426                 1.4122
 Frc consts  --      1.5994                 1.7056                 1.3254
 IR Inten    --      9.0004                26.5806                 1.4041

                     31                     32                     33
                      A                      A                      A
 Frequencies --   1279.7482              1307.1555              1333.3631
 Red. masses --      1.7762                 1.6769                 1.6081
 Frc consts  --      1.7139                 1.6882                 1.6845
 IR Inten    --     18.8198                 5.7720                13.6684

                     34                     35                     36
                      A                      A                      A
 Frequencies --   1356.2700              1416.5418              1478.4468
 Red. masses --      2.0706                 1.3981                 1.0777
 Frc consts  --      2.2441                 1.6529                 1.3879
 IR Inten    --     19.8244                15.0171                 0.0796

                     37                     38                     39
                      A                      A                      A
 Frequencies --   1483.6807              1490.3265              1496.1059
 Red. masses --      1.0588                 1.1024                 1.0508
 Frc consts  --      1.3732                 1.4426                 1.3858
 IR Inten    --      4.2185                 2.7142                 3.3373

                     40                     41                     42
                      A                      A                      A
 Frequencies --   1510.9165              1890.5438              3043.3143
 Red. masses --      1.1073                12.5825                 1.0355
 Frc consts  --      1.4894                26.4966                 5.6507
 IR Inten    --      2.7595               402.8673                11.2891

                     43                     44                     45
                      A                      A                      A
 Frequencies --   3059.0297              3061.5340              3069.9160
 Red. masses --      1.0602                 1.0587                 1.0613
 Frc consts  --      5.8452                 5.8464                 5.8932
 IR Inten    --     21.0502                28.4114                25.5045

                     46                     47                     48
                      A                      A                      A
 Frequencies --   3104.5468              3115.8041              3116.5625
 Red. masses --      1.1049                 1.1035                 1.1058
 Frc consts  --      6.2742                 6.3118                 6.3283
 IR Inten    --      1.1144                 4.0050                 7.5750

                     49                     50                     51
                      A                      A                      A
 Frequencies --   3121.0977              3123.7444              3151.2646
 Red. masses --      1.1025                 1.1053                 1.0898
 Frc consts  --      6.3275                 6.3543                 6.3761
 IR Inten    --     21.3272                39.2350                14.3392

 - Thermochemistry -
 -------------------
 Temperature   298.150 Kelvin.  Pressure   1.00000 Atm.
 Atom     1 has atomic number  6 and mass  12.00000

 Molecular mass:   126.06808 amu.
 Principal axes and moments of inertia in atomic units:
                           1         2         3
     Eigenvalues --   678.944711057.920841306.31386
           X            0.99697   0.07751   0.00680
           Y           -0.07726   0.99650  -0.03195
           Z           -0.00925   0.03133   0.99947
 This molecule is an asymmetric top.
 Rotational symmetry number  1.
 Warning -- assumption of classical behavior for rotation
           may cause significant error
 Rotational temperatures (Kelvin)      0.12757     0.08187     0.06630
 Rotational constants (GHZ):           2.65816     1.70593     1.38155
 Zero-point vibrational energy     423624.4 (Joules/Mol)
                                  101.24866 (Kcal/Mol)
 Warning -- explicit consideration of  10 degrees of freedom as
           vibrations may cause significant error
 Vibrational temperatures:    212.26   296.74   337.38   405.92   411.43
          (Kelvin)            599.76   658.51   715.56   826.33   864.07
                             1019.36  1097.79  1172.23  1193.30  1235.85
                             1282.91  1303.16  1335.20  1373.17  1400.05
                             1447.39  1477.16  1548.88  1567.29  1654.68
                             1690.89  1732.80  1784.44  1803.39  1815.91
                             1841.27  1880.70  1918.41  1951.37  2038.09
                             2127.15  2134.68  2144.24  2152.56  2173.87
                             2720.07  4378.65  4401.26  4404.86  4416.92
                             4466.74  4482.94  4484.03  4490.56  4494.37
                             4533.96

 Zero-point correction=                           0.161350 (Hartree/Particle)
 Thermal correction to Energy=                    0.168824
 Thermal correction to Enthalpy=                  0.169768
 Thermal correction to Gibbs Free Energy=         0.129811
 Sum of electronic and zero-point Energies=           -423.095796
 Sum of electronic and thermal Energies=              -423.088322
 Sum of electronic and thermal Enthalpies=            -423.087378
 Sum of electronic and thermal Free Energies=         -423.127336

                     E (Thermal)             CV                S
                      KCal/Mol        Cal/Mol-Kelvin    Cal/Mol-Kelvin
 Total                  105.939             30.219             84.098
 Electronic               0.000              0.000              0.000
 Translational            0.889              2.981             40.409
 Rotational               0.889              2.981             28.330
 Vibrational            104.161             24.258             15.359
 Vibration     1          0.617              1.905              2.704
 Vibration     2          0.641              1.831              2.077
 Vibration     3          0.654              1.788              1.844
 Vibration     4          0.681              1.707              1.521
 Vibration     5          0.684              1.700              1.498
 Vibration     6          0.780              1.434              0.903
 Vibration     7          0.816              1.344              0.773
 Vibration     8          0.853              1.256              0.665
 Vibration     9          0.931              1.087              0.496
 Vibration    10          0.959              1.031              0.449

 Normal termination of Gaussian 09 at Mon Jan 27 19:15:38 2020.
