 Gaussian 09, Revision D.01,
 Gaussian 09:  ES64L-G09RevD.01 24-Apr-2013

 -----------------------------
 # b3lyp 6-31G(2df,p) opt Freq
 -----------------------------

 -----
 titel
 -----
 Symbolic Z-matrix:
 Charge =  0 Multiplicity = 1

 SCF Done:  E(RB3LYP) =  -423.249805080     A.U. after   14 cycles
 Optimization completed.
    -- Stationary point found.
 Normal termination of Gaussian 09 at Tue Jan 28 03:54:57 2020.

 ----------------------------------------------------------------------
 #N Geom=AllCheck Guess=TCheck SCRF=Check GenChk RB3LYP/6-31G(2df,p) Fr
 eq
 ----------------------------------------------------------------------

 Structure from the checkpoint file:  "/scratch/puck/g09_8f222927-233b-4dcc-bc86-4369c5f59430/Gau-196260.chk"
 -----
 titel
 -----
 Charge =  0 Multiplicity = 1

                         Standard orientation:
 ---------------------------------------------------------------------
 Center     Atomic      Atomic             Coordinates (Angstroms)
 Number     Number       Type             X           Y           Z
 ---------------------------------------------------------------------
      1          6           0        2.923290   -0.320010    0.063183
      2          6           0        1.486161    0.065610    0.369493
      3          6           0        1.036178    1.369335   -0.281493
      4          6           0       -0.446874    1.530778   -0.117846
      5          6           0       -1.253353    0.474462    0.036772
      6          6           0       -2.743501    0.555837    0.202308
      7          6           0       -0.687900   -0.903207   -0.063420
      8          8           0       -1.377175   -1.883589   -0.192691
      9          8           0        0.663221   -1.036061   -0.070071
     10          1           0        3.069459   -0.432457   -1.015249
     11          1           0        3.608481    0.449936    0.430672
     12          1           0        3.173888   -1.268274    0.544820
     13          1           0        1.351389    0.159463    1.456744
     14          1           0        1.570953    2.206448    0.181258
     15          1           0        1.309087    1.378746   -1.347280
     16          1           0       -0.864144    2.534780   -0.143660
     17          1           0       -3.250703    0.013783   -0.601241
     18          1           0       -3.059376    0.082812    1.138204
     19          1           0       -3.081414    1.595140    0.203857
 ---------------------------------------------------------------------

 SCF Done:  E(RB3LYP) =  -423.249805080     A.U. after    1 cycles

 The electronic state is 1-A.
 Alpha  occ. eigenvalues --  -19.17062 -19.11310 -10.29732 -10.25390 -10.20735
 Alpha  occ. eigenvalues --  -10.20468 -10.20436 -10.18743 -10.18330  -1.08815
 Alpha  occ. eigenvalues --   -1.00809  -0.83248  -0.79419  -0.73309  -0.66781
 Alpha  occ. eigenvalues --   -0.62572  -0.62042  -0.54126  -0.49542  -0.48141
 Alpha  occ. eigenvalues --   -0.45220  -0.43285  -0.42969  -0.41903  -0.40761
 Alpha  occ. eigenvalues --   -0.39942  -0.39708  -0.38915  -0.36485  -0.36204
 Alpha  occ. eigenvalues --   -0.32449  -0.28641  -0.26429  -0.25989
 Alpha virt. eigenvalues --   -0.03724   0.07501   0.08444   0.10529   0.11693
 Alpha virt. eigenvalues --    0.12869   0.13947   0.14853   0.16514   0.16979
 Alpha virt. eigenvalues --    0.17583   0.18511   0.18884   0.20373   0.22420

 Mulliken charges:
               1
     1  C   -0.401462
     2  C    0.131554
     3  C   -0.273909
     4  C   -0.159406
     5  C    0.156704
     6  C   -0.473369
     7  C    0.379365
     8  O   -0.334095
     9  O   -0.247170
    10  H    0.129802
    11  H    0.119090
    12  H    0.135867
    13  H    0.089676
    14  H    0.117071
    15  H    0.124633
    16  H    0.102744
    17  H    0.149266
    18  H    0.139267
    19  H    0.114373
 Sum of Mulliken charges =   0.00000

 Dipole moment (field-independent basis, Debye):
    X=              1.7827    Y=              3.9940    Z=              0.5863  Tot=              4.4129
 Quadrupole moment (field-independent basis, Debye-Ang):
   XX=            -50.2460   YY=            -57.9332   ZZ=            -52.2835
   XY=             -3.0365   XZ=             -0.1032   YZ=             -1.1496

  Exact polarizability:  98.908   8.233  83.422  -1.207  -0.900  55.488
 Approx polarizability: 129.135  26.047 138.677  -1.931  -0.910  86.892

                      1                      2                      3
                      A                      A                      A
 Frequencies --     90.8312               132.6793               162.2263
 Red. masses --      3.1287                 4.6175                 1.0447
 Frc consts  --      0.0152                 0.0479                 0.0162
 IR Inten    --      1.1212                 0.0971                 0.3954

                      4                      5                      6
                      A                      A                      A
 Frequencies --    227.6881               269.6510               271.0930
 Red. masses --      1.0697                 2.2332                 2.4821
 Frc consts  --      0.0327                 0.0957                 0.1075
 IR Inten    --      0.0322                 1.2815                 0.5587

                      7                      8                      9
                      A                      A                      A
 Frequencies --    306.5407               357.0722               420.2950
 Red. masses --      3.5178                 3.2721                 4.3398
 Frc consts  --      0.1948                 0.2458                 0.4517
 IR Inten    --      5.4378                 0.4959                 0.8590

                     10                     11                     12
                      A                      A                      A
 Frequencies --    446.7381               527.3370               561.4548
 Red. masses --      2.4853                 7.3327                 3.8049
 Frc consts  --      0.2922                 1.2014                 0.7067
 IR Inten    --      2.9315                 3.2868                 6.9476

                     13                     14                     15
                      A                      A                      A
 Frequencies --    686.5148               709.7940               769.3690
 Red. masses --      3.4248                 4.5675                 3.6530
 Frc consts  --      0.9510                 1.3558                 1.2740
 IR Inten    --      3.1140                 0.0719                 4.1198

                     16                     17                     18
                      A                      A                      A
 Frequencies --    866.4760               885.2949               925.1445
 Red. masses --      1.6171                 2.1033                 1.4398
 Frc consts  --      0.7153                 0.9713                 0.7261
 IR Inten    --     15.6351                 4.1633                 8.3262

                     19                     20                     21
                      A                      A                      A
 Frequencies --    965.4771               997.0921              1072.2734
 Red. masses --      2.7418                 1.6533                 1.5991
 Frc consts  --      1.5058                 0.9685                 1.0832
 IR Inten    --     17.1491                10.8613                 5.3794

                     22                     23                     24
                      A                      A                      A
 Frequencies --   1075.0706              1076.6131              1115.1991
 Red. masses --      2.7169                 1.5233                 2.2767
 Frc consts  --      1.8501                 1.0403                 1.6682
 IR Inten    --      2.4991                23.8949                29.3254

                     25                     26                     27
                      A                      A                      A
 Frequencies --   1144.8139              1172.0822              1223.4076
 Red. masses --      3.5453                 2.5369                 1.4493
 Frc consts  --      2.7376                 2.0534                 1.2781
 IR Inten    --    136.6901                58.0500                11.4608

                     28                     29                     30
                      A                      A                      A
 Frequencies --   1261.8004              1324.8086              1371.0928
 Red. masses --      1.9128                 1.4247                 1.6563
 Frc consts  --      1.7943                 1.4733                 1.8345
 IR Inten    --     61.8301                 2.6071                44.8285

                     31                     32                     33
                      A                      A                      A
 Frequencies --   1390.6714              1402.7081              1414.3117
 Red. masses --      1.5311                 1.5294                 1.3627
 Frc consts  --      1.7446                 1.7730                 1.6060
 IR Inten    --      6.8980                31.2989                15.5292

                     34                     35                     36
                      A                      A                      A
 Frequencies --   1416.5266              1467.0554              1470.7739
 Red. masses --      1.2855                 1.0982                 1.0450
 Frc consts  --      1.5197                 1.3926                 1.3318
 IR Inten    --      0.8165                 1.2488                 6.1692

                     37                     38                     39
                      A                      A                      A
 Frequencies --   1484.8561              1488.2490              1499.0198
 Red. masses --      1.0546                 1.0569                 1.0531
 Frc consts  --      1.3699                 1.3792                 1.3943
 IR Inten    --      3.7816                 9.6688                 2.6273

                     40                     41                     42
                      A                      A                      A
 Frequencies --   1719.5409              1813.6312              2996.9949
 Red. masses --      7.3246                12.6340                 1.0767
 Frc consts  --     12.7603                24.4845                 5.6981
 IR Inten    --      1.4598               330.4023                 8.7137

                     43                     44                     45
                      A                      A                      A
 Frequencies --   3009.5832              3041.6442              3045.2156
 Red. masses --      1.0742                 1.0358                 1.0355
 Frc consts  --      5.7324                 5.6460                 5.6579
 IR Inten    --     36.1167                17.7910                13.8343

                     46                     47                     48
                      A                      A                      A
 Frequencies --   3065.3730              3100.4506              3118.5623
 Red. masses --      1.0926                 1.0984                 1.1018
 Frc consts  --      6.0489                 6.2210                 6.3135
 IR Inten    --     18.4079                 9.3483                22.5198

                     49                     50                     51
                      A                      A                      A
 Frequencies --   3125.6655              3128.9615              3156.2788
 Red. masses --      1.1031                 1.1020                 1.0904
 Frc consts  --      6.3496                 6.3565                 6.4003
 IR Inten    --     12.7152                14.5294                18.5963

 - Thermochemistry -
 -------------------
 Temperature   298.150 Kelvin.  Pressure   1.00000 Atm.
 Atom     1 has atomic number  6 and mass  12.00000

 Molecular mass:   126.06808 amu.
 Principal axes and moments of inertia in atomic units:
                           1         2         3
     Eigenvalues --   609.626431346.604091875.73332
           X            0.99965  -0.02619  -0.00366
           Y            0.02616   0.99963  -0.00783
           Z            0.00386   0.00773   0.99996
 This molecule is an asymmetric top.
 Rotational symmetry number  1.
 Warning -- assumption of classical behavior for rotation
           may cause significant error
 Rotational temperatures (Kelvin)      0.14208     0.06432     0.04618
 Rotational constants (GHZ):           2.96041     1.34022     0.96215
 Zero-point vibrational energy     417329.3 (Joules/Mol)
                                   99.74409 (Kcal/Mol)
 Warning -- explicit consideration of  12 degrees of freedom as
           vibrations may cause significant error
 Vibrational temperatures:    130.69   190.90   233.41   327.59   387.97
          (Kelvin)            390.04   441.04   513.75   604.71   642.76
                              758.72   807.81   987.74  1021.23  1106.95
                             1246.66  1273.74  1331.07  1389.10  1434.59
                             1542.76  1546.78  1549.00  1604.52  1647.13
                             1686.36  1760.21  1815.45  1906.10  1972.69
                             2000.86  2018.18  2034.88  2038.06  2110.76
                             2116.11  2136.37  2141.26  2156.75  2474.03
                             2609.41  4312.00  4330.11  4376.24  4381.38
                             4410.38  4460.85  4486.91  4497.13  4501.87
                             4541.18

 Zero-point correction=                           0.158952 (Hartree/Particle)
 Thermal correction to Energy=                    0.167791
 Thermal correction to Enthalpy=                  0.168736
 Thermal correction to Gibbs Free Energy=         0.125583
 Sum of electronic and zero-point Energies=           -423.090853
 Sum of electronic and thermal Energies=              -423.082014
 Sum of electronic and thermal Enthalpies=            -423.081069
 Sum of electronic and thermal Free Energies=         -423.124222

                     E (Thermal)             CV                S
                      KCal/Mol        Cal/Mol-Kelvin    Cal/Mol-Kelvin
 Total                  105.291             33.128             90.822
 Electronic               0.000              0.000              0.000
 Translational            0.889              2.981             40.409
 Rotational               0.889              2.981             28.823
 Vibrational            103.513             27.166             21.591
 Vibration     1          0.602              1.956              3.642
 Vibration     2          0.613              1.921              2.907
 Vibration     3          0.622              1.889              2.524
 Vibration     4          0.651              1.799              1.897
 Vibration     5          0.674              1.729              1.598
 Vibration     6          0.675              1.726              1.589
 Vibration     7          0.697              1.661              1.381
 Vibration     8          0.732              1.561              1.135
 Vibration     9          0.783              1.426              0.891
 Vibration    10          0.806              1.368              0.806
 Vibration    11          0.882              1.189              0.593
 Vibration    12          0.917              1.115              0.521

 Optimization completed.
    -- Stationary point found.
 Normal termination of Gaussian 09 at Tue Jan 28 04:37:46 2020.
