 Gaussian 09, Revision D.01,
 Gaussian 09:  ES64L-G09RevD.01 24-Apr-2013

 -----------------------------
 # b3lyp 6-31G(2df,p) opt Freq
 -----------------------------

 -----
 titel
 -----
 Symbolic Z-matrix:
 Charge =  0 Multiplicity = 1

 SCF Done:  E(RB3LYP) =  -423.181641953     A.U. after   13 cycles
 Optimization completed.
    -- Stationary point found.
 Normal termination of Gaussian 09 at Mon Jan 27 11:16:43 2020.

 ----------------------------------------------------------------------
 #N Geom=AllCheck Guess=TCheck SCRF=Check GenChk RB3LYP/6-31G(2df,p) Fr
 eq
 ----------------------------------------------------------------------

 Structure from the checkpoint file:  "/scratch/puck/g09_f8b4be40-64cc-46df-96c3-39dfdcf21872/Gau-149615.chk"
 -----
 titel
 -----
 Charge =  0 Multiplicity = 1

                         Standard orientation:
 ---------------------------------------------------------------------
 Center     Atomic      Atomic             Coordinates (Angstroms)
 Number     Number       Type             X           Y           Z
 ---------------------------------------------------------------------
      1          6           0       -2.110028    0.044774   -0.260704
      2          6           0       -1.131805    0.404754    0.882244
      3          8           0       -0.424515   -0.839966    1.066853
      4          6           0       -0.023407   -1.146014   -0.279990
      5          8           0        1.369827   -1.081082   -0.425909
      6          6           0        1.946895    0.032647    0.257080
      7          6           0        1.224965    1.353460   -0.053335
      8          6           0       -0.283942    1.169545   -0.181007
      9          6           0       -0.771273   -0.038079   -1.046701
     10          1           0       -2.695655   -0.867251   -0.125483
     11          1           0       -2.740330    0.873386   -0.590283
     12          1           0       -1.424023    0.809961    1.849762
     13          1           0       -0.310171   -2.169838   -0.534340
     14          1           0        1.934076   -0.159614    1.335039
     15          1           0        2.988050    0.068891   -0.073409
     16          1           0        1.470309    2.091276    0.719935
     17          1           0        1.589681    1.759111   -1.005215
     18          1           0       -0.781582    2.096700   -0.476090
     19          1           0       -0.701280   -0.060754   -2.132988
 ---------------------------------------------------------------------

 SCF Done:  E(RB3LYP) =  -423.181641953     A.U. after    1 cycles

 The electronic state is 1-A.
 Alpha  occ. eigenvalues --  -19.13721 -19.13578 -10.26904 -10.23783 -10.22149
 Alpha  occ. eigenvalues --  -10.19552 -10.19351 -10.18768 -10.18434  -1.06979
 Alpha  occ. eigenvalues --   -1.00394  -0.84395  -0.76726  -0.71103  -0.66222
 Alpha  occ. eigenvalues --   -0.61306  -0.57125  -0.55363  -0.52049  -0.49578
 Alpha  occ. eigenvalues --   -0.46469  -0.44945  -0.43742  -0.40383  -0.39869
 Alpha  occ. eigenvalues --   -0.38071  -0.37116  -0.35528  -0.34567  -0.31744
 Alpha  occ. eigenvalues --   -0.30869  -0.30453  -0.25218  -0.24614
 Alpha virt. eigenvalues --    0.08581   0.11231   0.12214   0.12855   0.13366
 Alpha virt. eigenvalues --    0.14222   0.14670   0.15110   0.15766   0.16956
 Alpha virt. eigenvalues --    0.18049   0.19384   0.19761   0.20709   0.21543

 Mulliken charges:
               1
     1  C   -0.240583
     2  C    0.079947
     3  O   -0.290899
     4  C    0.230383
     5  O   -0.272394
     6  C   -0.070330
     7  C   -0.264722
     8  C   -0.002173
     9  C   -0.109089
    10  H    0.102241
    11  H    0.101847
    12  H    0.079335
    13  H    0.085843
    14  H    0.111493
    15  H    0.103209
    16  H    0.100872
    17  H    0.105381
    18  H    0.075122
    19  H    0.074515
 Sum of Mulliken charges =   0.00000

 Dipole moment (field-independent basis, Debye):
    X=             -0.8609    Y=              1.9802    Z=             -0.5742  Tot=              2.2343
 Quadrupole moment (field-independent basis, Debye-Ang):
   XX=            -51.5837   YY=            -53.2357   ZZ=            -53.7717
   XY=              1.8604   XZ=              1.3328   YZ=              1.5364

  Exact polarizability:  82.839   2.013  71.614   0.773   1.759  65.769
 Approx polarizability: 110.975   0.496 107.777  -1.122   2.559 104.738

                      1                      2                      3
                      A                      A                      A
 Frequencies --    213.7440               265.2771               345.9027
 Red. masses --      2.1509                 2.9684                 3.2784
 Frc consts  --      0.0579                 0.1231                 0.2311
 IR Inten    --      0.1652                 6.1373                 1.3281

                      4                      5                      6
                      A                      A                      A
 Frequencies --    414.2728               478.3766               482.0083
 Red. masses --      3.8686                 4.0634                 2.5284
 Frc consts  --      0.3912                 0.5479                 0.3461
 IR Inten    --      3.3615                 0.1361                 4.1405

                      7                      8                      9
                      A                      A                      A
 Frequencies --    600.4712               679.8748               713.9108
 Red. masses --      5.4258                 2.5081                 3.9962
 Frc consts  --      1.1527                 0.6831                 1.2000
 IR Inten    --      3.7042                 2.4364                 3.0349

                     10                     11                     12
                      A                      A                      A
 Frequencies --    806.6465               827.0007               853.0031
 Red. masses --      2.4773                 2.8692                 2.8408
 Frc consts  --      0.9497                 1.1562                 1.2179
 IR Inten    --      0.6317                 1.8865                 9.0028

                     13                     14                     15
                      A                      A                      A
 Frequencies --    862.1912               883.3782               916.3792
 Red. masses --      2.4748                 2.3673                 2.6861
 Frc consts  --      1.0839                 1.0884                 1.3290
 IR Inten    --      1.3137                 9.2773                18.3763

                     16                     17                     18
                      A                      A                      A
 Frequencies --    927.8998               963.6075               981.1320
 Red. masses --      2.4761                 2.6853                 2.0609
 Frc consts  --      1.2561                 1.4691                 1.1688
 IR Inten    --     37.6262                29.5733                43.6381

                     19                     20                     21
                      A                      A                      A
 Frequencies --   1021.4700              1035.0726              1048.5446
 Red. masses --      2.2248                 2.3995                 1.9069
 Frc consts  --      1.3677                 1.5146                 1.2352
 IR Inten    --      2.6431                 2.3804                18.3687

                     22                     23                     24
                      A                      A                      A
 Frequencies --   1075.5893              1101.9204              1112.5261
 Red. masses --      1.7105                 1.7335                 1.4763
 Frc consts  --      1.1659                 1.2401                 1.0766
 IR Inten    --     26.9678                35.4391                 6.3994

                     25                     26                     27
                      A                      A                      A
 Frequencies --   1117.8196              1136.4601              1182.4229
 Red. masses --      2.0057                 3.1923                 1.6969
 Frc consts  --      1.4766                 2.4292                 1.3979
 IR Inten    --      2.0540               112.0614                10.0148

                     28                     29                     30
                      A                      A                      A
 Frequencies --   1224.5067              1249.4006              1262.2635
 Red. masses --      1.4836                 1.6165                 1.3239
 Frc consts  --      1.3106                 1.4867                 1.2428
 IR Inten    --      4.8051                 3.8103                 2.3640

                     31                     32                     33
                      A                      A                      A
 Frequencies --   1273.4089              1285.0316              1295.5420
 Red. masses --      1.3397                 1.4688                 1.5793
 Frc consts  --      1.2800                 1.4290                 1.5618
 IR Inten    --      9.1708                14.9866                 7.1627

                     34                     35                     36
                      A                      A                      A
 Frequencies --   1345.8854              1353.9115              1375.8331
 Red. masses --      1.4248                 1.5137                 1.2702
 Frc consts  --      1.5206                 1.6349                 1.4166
 IR Inten    --      4.6660                 3.1836                 3.0066

                     37                     38                     39
                      A                      A                      A
 Frequencies --   1402.4153              1425.7638              1478.7344
 Red. masses --      1.3833                 1.3305                 1.0863
 Frc consts  --      1.6029                 1.5935                 1.3995
 IR Inten    --     14.2441                10.0664                 1.8032

                     40                     41                     42
                      A                      A                      A
 Frequencies --   1493.4714              1504.1056              3024.3832
 Red. masses --      1.1326                 1.0905                 1.0604
 Frc consts  --      1.4885                 1.4536                 5.7148
 IR Inten    --      3.4043                 3.3840                27.8263

                     43                     44                     45
                      A                      A                      A
 Frequencies --   3043.2435              3065.1709              3066.4248
 Red. masses --      1.0681                 1.0940                 1.0586
 Frc consts  --      5.8283                 6.0560                 5.8647
 IR Inten    --     28.1599                48.6805                21.1535

                     46                     47                     48
                      A                      A                      A
 Frequencies --   3077.6043              3080.7672              3101.0590
 Red. masses --      1.0868                 1.0852                 1.1050
 Frc consts  --      6.0650                 6.0683                 6.2607
 IR Inten    --     62.5210                17.3954                32.9212

                     49                     50                     51
                      A                      A                      A
 Frequencies --   3131.9338              3133.1336              3137.6015
 Red. masses --      1.1077                 1.0914                 1.0935
 Frc consts  --      6.4015                 6.3122                 6.3427
 IR Inten    --     26.1114                56.9320                14.8142

 - Thermochemistry -
 -------------------
 Temperature   298.150 Kelvin.  Pressure   1.00000 Atm.
 Atom     1 has atomic number  6 and mass  12.00000

 Molecular mass:   126.06808 amu.
 Principal axes and moments of inertia in atomic units:
                           1         2         3
     Eigenvalues --   584.08259 956.531201121.11093
           X            0.99920   0.03372   0.02147
           Y           -0.03415   0.99921   0.02020
           Z           -0.02077  -0.02092   0.99957
 This molecule is an asymmetric top.
 Rotational symmetry number  1.
 Warning -- assumption of classical behavior for rotation
           may cause significant error
 Rotational temperatures (Kelvin)      0.14829     0.09055     0.07726
 Rotational constants (GHZ):           3.08987     1.88676     1.60978
 Zero-point vibrational energy     429928.9 (Joules/Mol)
                                  102.75547 (Kcal/Mol)
 Warning -- explicit consideration of   7 degrees of freedom as
           vibrations may cause significant error
 Vibrational temperatures:    307.53   381.67   497.68   596.05   688.28
          (Kelvin)            693.50   863.94   978.19  1027.16  1160.58
                             1189.87  1227.28  1240.50  1270.98  1318.46
                             1335.04  1386.41  1411.63  1469.67  1489.24
                             1508.62  1547.53  1585.42  1600.67  1608.29
                             1635.11  1701.24  1761.79  1797.61  1816.11
                             1832.15  1848.87  1863.99  1936.43  1947.97
                             1979.51  2017.76  2051.35  2127.57  2148.77
                             2164.07  4351.41  4378.54  4410.09  4411.90
                             4427.98  4432.53  4461.73  4506.15  4507.87
                             4514.30

 Zero-point correction=                           0.163751 (Hartree/Particle)
 Thermal correction to Energy=                    0.169998
 Thermal correction to Enthalpy=                  0.170943
 Thermal correction to Gibbs Free Energy=         0.133498
 Sum of electronic and zero-point Energies=           -423.017891
 Sum of electronic and thermal Energies=              -423.011644
 Sum of electronic and thermal Enthalpies=            -423.010699
 Sum of electronic and thermal Free Energies=         -423.048144

                     E (Thermal)             CV                S
                      KCal/Mol        Cal/Mol-Kelvin    Cal/Mol-Kelvin
 Total                  106.676             26.883             78.809
 Electronic               0.000              0.000              0.000
 Translational            0.889              2.981             40.409
 Rotational               0.889              2.981             27.929
 Vibrational            104.898             20.921             10.472
 Vibration     1          0.644              1.820              2.011
 Vibration     2          0.671              1.737              1.627
 Vibration     3          0.724              1.584              1.185
 Vibration     4          0.778              1.439              0.912
 Vibration     5          0.835              1.298              0.714
 Vibration     6          0.838              1.290              0.705
 Vibration     7          0.959              1.031              0.449

 Normal termination of Gaussian 09 at Mon Jan 27 12:10:54 2020.
