 Gaussian 09, Revision D.01,
 Gaussian 09:  ES64L-G09RevD.01 24-Apr-2013

 -----------------------------
 # b3lyp 6-31G(2df,p) opt Freq
 -----------------------------

 -----
 titel
 -----
 Symbolic Z-matrix:
 Charge =  0 Multiplicity = 1

 SCF Done:  E(RB3LYP) =  -423.219756702     A.U. after   14 cycles
 Optimization completed.
    -- Stationary point found.
 Normal termination of Gaussian 09 at Tue Jan 28 03:16:09 2020.

 ----------------------------------------------------------------------
 #N Geom=AllCheck Guess=TCheck SCRF=Check GenChk RB3LYP/6-31G(2df,p) Fr
 eq
 ----------------------------------------------------------------------

 Structure from the checkpoint file:  "/scratch/puck/g09_c52d06e7-ddde-417e-b204-7e87dd82f5de/Gau-7471.chk"
 -----
 titel
 -----
 Charge =  0 Multiplicity = 1

                         Standard orientation:
 ---------------------------------------------------------------------
 Center     Atomic      Atomic             Coordinates (Angstroms)
 Number     Number       Type             X           Y           Z
 ---------------------------------------------------------------------
      1          6           0       -2.188928   -1.129083   -0.089451
      2          6           0       -1.439180    0.190624   -0.163488
      3          8           0       -0.517116    0.166894   -1.283908
      4          6           0        0.736144    0.712458   -0.820275
      5          6           0        0.325126    1.670162    0.300578
      6          6           0       -0.531239    0.593120    1.016526
      7          6           0        0.517006   -0.513774    1.262074
      8          6           0        1.368407   -0.444003   -0.024554
      9          8           0        2.290537   -1.148284   -0.332643
     10          1           0       -2.743705   -1.289333   -1.018229
     11          1           0       -1.513567   -1.977605    0.043706
     12          1           0       -2.907258   -1.115044    0.737059
     13          1           0       -2.169008    0.995932   -0.337394
     14          1           0        1.311723    1.078500   -1.668242
     15          1           0        1.169078    2.027085    0.898048
     16          1           0       -0.253919    2.522596   -0.062281
     17          1           0       -1.076536    0.919550    1.902565
     18          1           0        1.153412   -0.271305    2.120623
     19          1           0        0.118409   -1.516274    1.428091
 ---------------------------------------------------------------------

 SCF Done:  E(RB3LYP) =  -423.219756702     A.U. after    1 cycles

 The electronic state is 1-A.
 Alpha  occ. eigenvalues --  -19.14730 -19.13183 -10.26543 -10.24064 -10.23753
 Alpha  occ. eigenvalues --  -10.20589 -10.19774 -10.19514 -10.18224  -1.05117
 Alpha  occ. eigenvalues --   -1.03323  -0.83790  -0.77900  -0.71485  -0.68933
 Alpha  occ. eigenvalues --   -0.60553  -0.58351  -0.54150  -0.50741  -0.48474
 Alpha  occ. eigenvalues --   -0.47430  -0.43969  -0.41991  -0.41317  -0.39940
 Alpha  occ. eigenvalues --   -0.39373  -0.38114  -0.37478  -0.36171  -0.35645
 Alpha  occ. eigenvalues --   -0.34514  -0.31273  -0.27733  -0.22587
 Alpha virt. eigenvalues --   -0.01676   0.07857   0.10979   0.11637   0.12145
 Alpha virt. eigenvalues --    0.13865   0.14421   0.15136   0.15602   0.16838
 Alpha virt. eigenvalues --    0.17979   0.18319   0.18890   0.19987   0.21721

 Mulliken charges:
               1
     1  C   -0.415323
     2  C    0.160899
     3  O   -0.301514
     4  C    0.006918
     5  C   -0.257835
     6  C   -0.065510
     7  C   -0.343484
     8  C    0.441046
     9  O   -0.326583
    10  H    0.132748
    11  H    0.128258
    12  H    0.115147
    13  H    0.075347
    14  H    0.091491
    15  H    0.109136
    16  H    0.113296
    17  H    0.075545
    18  H    0.129125
    19  H    0.131294
 Sum of Mulliken charges =   0.00000

 Dipole moment (field-independent basis, Debye):
    X=             -2.1316    Y=              1.9872    Z=              2.1336  Tot=              3.6118
 Quadrupole moment (field-independent basis, Debye-Ang):
   XX=            -57.0030   YY=            -52.9795   ZZ=            -53.6618
   XY=              4.9002   XZ=              0.4680   YZ=             -1.1102

  Exact polarizability:  82.634  -0.709  72.377  -1.779  -0.962  68.500
 Approx polarizability: 119.170  -7.158 106.206  -3.571   0.790 105.834

                      1                      2                      3
                      A                      A                      A
 Frequencies --     94.2326               182.3374               236.5049
 Red. masses --      4.6669                 2.0127                 1.5739
 Frc consts  --      0.0244                 0.0394                 0.0519
 IR Inten    --      2.0958                 3.2400                 2.3545

                      4                      5                      6
                      A                      A                      A
 Frequencies --    291.7040               369.4184               420.1105
 Red. masses --      2.2987                 2.7255                 3.0127
 Frc consts  --      0.1152                 0.2191                 0.3133
 IR Inten    --      0.6011                 3.3394                 2.5552

                      7                      8                      9
                      A                      A                      A
 Frequencies --    466.9319               498.7975               525.2052
 Red. masses --      2.4794                 2.6991                 5.3247
 Frc consts  --      0.3185                 0.3957                 0.8654
 IR Inten    --      8.4583                 2.5967                 0.5195

                     10                     11                     12
                      A                      A                      A
 Frequencies --    597.3700               698.3996               755.4528
 Red. masses --      2.5982                 3.8574                 3.5189
 Frc consts  --      0.5463                 1.1085                 1.1833
 IR Inten    --      3.4792                 0.1359                 2.6408

                     13                     14                     15
                      A                      A                      A
 Frequencies --    805.0795               812.7535               856.7814
 Red. masses --      3.2767                 2.9273                 2.5129
 Frc consts  --      1.2513                 1.1393                 1.0869
 IR Inten    --      4.2776                 3.0837                19.4627

                     16                     17                     18
                      A                      A                      A
 Frequencies --    919.1057               936.3603               947.8616
 Red. masses --      2.3971                 2.4890                 2.0540
 Frc consts  --      1.1931                 1.2858                 1.0873
 IR Inten    --      9.6721                 5.7751                 4.9614

                     19                     20                     21
                      A                      A                      A
 Frequencies --    963.6167               979.6936              1008.8461
 Red. masses --      2.3111                 1.6277                 1.8703
 Frc consts  --      1.2644                 0.9205                 1.1215
 IR Inten    --     36.4007                 0.1202                16.1155

                     22                     23                     24
                      A                      A                      A
 Frequencies --   1063.4838              1088.3276              1117.7671
 Red. masses --      1.8950                 1.9407                 1.2869
 Frc consts  --      1.2628                 1.3543                 0.9473
 IR Inten    --     32.6235                12.0830                 4.9204

                     25                     26                     27
                      A                      A                      A
 Frequencies --   1138.3775              1153.9400              1163.6093
 Red. masses --      2.0030                 1.2773                 2.7494
 Frc consts  --      1.5293                 1.0021                 2.1933
 IR Inten    --      6.3604                10.5605                28.2164

                     28                     29                     30
                      A                      A                      A
 Frequencies --   1199.1408              1244.1678              1285.1495
 Red. masses --      1.9120                 1.8219                 1.3184
 Frc consts  --      1.6199                 1.6616                 1.2829
 IR Inten    --      4.5885                 3.9885                 0.0606

                     31                     32                     33
                      A                      A                      A
 Frequencies --   1295.2713              1308.8792              1327.6700
 Red. masses --      1.6188                 1.4874                 1.6386
 Frc consts  --      1.6001                 1.5013                 1.7018
 IR Inten    --      2.7063                 1.6089                 0.9019

                     34                     35                     36
                      A                      A                      A
 Frequencies --   1356.0516              1396.4104              1415.2774
 Red. masses --      1.3841                 1.2822                 1.3790
 Frc consts  --      1.4996                 1.4731                 1.6274
 IR Inten    --      3.2932                 5.7219                16.6146

                     37                     38                     39
                      A                      A                      A
 Frequencies --   1453.1225              1483.6697              1496.0463
 Red. masses --      1.0879                 1.0574                 1.1092
 Frc consts  --      1.3535                 1.3714                 1.4627
 IR Inten    --     10.5314                 2.3682                 7.9216

                     40                     41                     42
                      A                      A                      A
 Frequencies --   1505.1402              1866.3467              2981.1241
 Red. masses --      1.0552                12.5007                 1.0842
 Frc consts  --      1.4085                25.6549                 5.6771
 IR Inten    --      1.9105               235.4686                54.3755

                     43                     44                     45
                      A                      A                      A
 Frequencies --   3043.5428              3055.7361              3063.4231
 Red. masses --      1.0365                 1.0662                 1.0593
 Frc consts  --      5.6569                 5.8657                 5.8571
 IR Inten    --     14.7416                 8.3938                17.2729

                     46                     47                     48
                      A                      A                      A
 Frequencies --   3111.4605              3113.5157              3117.6280
 Red. masses --      1.0921                 1.0970                 1.0989
 Frc consts  --      6.2295                 6.2658                 6.2927
 IR Inten    --      5.4269                35.1674                 5.8932

                     49                     50                     51
                      A                      A                      A
 Frequencies --   3118.8074              3129.0250              3147.1837
 Red. masses --      1.1061                 1.0994                 1.0912
 Frc consts  --      6.3389                 6.3418                 6.3678
 IR Inten    --     22.2710                25.9156                20.5188

 - Thermochemistry -
 -------------------
 Temperature   298.150 Kelvin.  Pressure   1.00000 Atm.
 Atom     1 has atomic number  6 and mass  12.00000

 Molecular mass:   126.06808 amu.
 Principal axes and moments of inertia in atomic units:
                           1         2         3
     Eigenvalues --   690.750081146.855581233.16357
           X            0.99743   0.07165   0.00113
           Y           -0.07155   0.99663  -0.04016
           Z           -0.00400   0.03997   0.99919
 This molecule is an asymmetric top.
 Rotational symmetry number  1.
 Warning -- assumption of classical behavior for rotation
           may cause significant error
 Rotational temperatures (Kelvin)      0.12539     0.07552     0.07024
 Rotational constants (GHZ):           2.61273     1.57364     1.46351
 Zero-point vibrational energy     422316.8 (Joules/Mol)
                                  100.93614 (Kcal/Mol)
 Warning -- explicit consideration of  10 degrees of freedom as
           vibrations may cause significant error
 Vibrational temperatures:    135.58   262.34   340.28   419.70   531.51
          (Kelvin)            604.44   671.81   717.66   755.65   859.48
                             1004.84  1086.93  1158.33  1169.37  1232.72
                             1322.39  1347.21  1363.76  1386.43  1409.56
                             1451.50  1530.11  1565.86  1608.22  1637.87
                             1660.26  1674.17  1725.29  1790.08  1849.04
                             1863.60  1883.18  1910.22  1951.05  2009.12
                             2036.27  2090.72  2134.67  2152.47  2165.56
                             2685.25  4289.17  4378.97  4396.52  4407.58
                             4476.69  4479.65  4485.57  4487.26  4501.96
                             4528.09

 Zero-point correction=                           0.160852 (Hartree/Particle)
 Thermal correction to Energy=                    0.168369
 Thermal correction to Enthalpy=                  0.169313
 Thermal correction to Gibbs Free Energy=         0.129019
 Sum of electronic and zero-point Energies=           -423.058905
 Sum of electronic and thermal Energies=              -423.051388
 Sum of electronic and thermal Enthalpies=            -423.050444
 Sum of electronic and thermal Free Energies=         -423.090738

                     E (Thermal)             CV                S
                      KCal/Mol        Cal/Mol-Kelvin    Cal/Mol-Kelvin
 Total                  105.653             30.186             84.807
 Electronic               0.000              0.000              0.000
 Translational            0.889              2.981             40.409
 Rotational               0.889              2.981             28.370
 Vibrational            103.876             24.225             16.028
 Vibration     1          0.603              1.953              3.570
 Vibration     2          0.630              1.864              2.304
 Vibration     3          0.655              1.785              1.829
 Vibration     4          0.687              1.689              1.464
 Vibration     5          0.742              1.535              1.082
 Vibration     6          0.783              1.427              0.892
 Vibration     7          0.824              1.323              0.746
 Vibration     8          0.854              1.253              0.661
 Vibration     9          0.880              1.194              0.598
 Vibration    10          0.955              1.037              0.454

 Optimization completed.
    -- Stationary point found.
 Normal termination of Gaussian 09 at Tue Jan 28 04:02:13 2020.
