 Gaussian 09, Revision D.01,
 Gaussian 09:  ES64L-G09RevD.01 24-Apr-2013

 -----------------------------
 # b3lyp 6-31G(2df,p) opt Freq
 -----------------------------

 -----
 titel
 -----
 Symbolic Z-matrix:
 Charge =  0 Multiplicity = 1

 SCF Done:  E(RB3LYP) =  -423.254012449     A.U. after   14 cycles
 Optimization completed.
    -- Stationary point found.
 Normal termination of Gaussian 09 at Tue Jan 28 12:35:37 2020.

 ----------------------------------------------------------------------
 #N Geom=AllCheck Guess=TCheck SCRF=Check GenChk RB3LYP/6-31G(2df,p) Fr
 eq
 ----------------------------------------------------------------------

 Structure from the checkpoint file:  "/scratch/puck/g09_6ebd0fd6-06a0-40d8-9218-8f047c1a3422/Gau-141949.chk"
 -----
 titel
 -----
 Charge =  0 Multiplicity = 1

                         Standard orientation:
 ---------------------------------------------------------------------
 Center     Atomic      Atomic             Coordinates (Angstroms)
 Number     Number       Type             X           Y           Z
 ---------------------------------------------------------------------
      1          6           0        2.718505   -0.624210    0.835311
      2          6           0        1.998245   -0.712352   -0.522284
      3          6           0        0.548383   -0.356443   -0.428902
      4          6           0       -0.552380   -1.095165   -0.577907
      5          6           0       -1.776745   -0.250189   -0.363970
      6          6           0       -2.679701   -0.704417    0.780442
      7          8           0       -1.257065    1.058988   -0.085347
      8          6           0        0.111125    1.035372   -0.118091
      9          8           0        0.782476    2.011761    0.076564
     10          1           0        2.637760    0.385825    1.243930
     11          1           0        2.284917   -1.324651    1.556070
     12          1           0        3.779150   -0.866076    0.721443
     13          1           0        2.480402   -0.017946   -1.220881
     14          1           0        2.101400   -1.718393   -0.942264
     15          1           0       -0.608677   -2.150756   -0.814991
     16          1           0       -2.367155   -0.175905   -1.288187
     17          1           0       -2.110562   -0.773589    1.711444
     18          1           0       -3.497786    0.006576    0.919718
     19          1           0       -3.107329   -1.686654    0.556395
 ---------------------------------------------------------------------

 SCF Done:  E(RB3LYP) =  -423.254012449     A.U. after    1 cycles

 The electronic state is 1-A.
 Alpha  occ. eigenvalues --  -19.17564 -19.11690 -10.29679 -10.25907 -10.20938
 Alpha  occ. eigenvalues --  -10.20657 -10.19682 -10.19458 -10.17809  -1.09500
 Alpha  occ. eigenvalues --   -1.01587  -0.83131  -0.78425  -0.74601  -0.66310
 Alpha  occ. eigenvalues --   -0.63227  -0.59478  -0.55015  -0.50214  -0.48025
 Alpha  occ. eigenvalues --   -0.46200  -0.44141  -0.43065  -0.41494  -0.40705
 Alpha  occ. eigenvalues --   -0.40009  -0.38111  -0.37811  -0.36208  -0.35249
 Alpha  occ. eigenvalues --   -0.34142  -0.29670  -0.27063  -0.26399
 Alpha virt. eigenvalues --   -0.03520   0.07343   0.09579   0.10997   0.11853
 Alpha virt. eigenvalues --    0.13392   0.13764   0.14710   0.15765   0.16546
 Alpha virt. eigenvalues --    0.16988   0.17105   0.18407   0.20963   0.21636

 Mulliken charges:
               1
     1  C   -0.382246
     2  C   -0.290738
     3  C    0.183837
     4  C   -0.227833
     5  C    0.073269
     6  C   -0.393726
     7  O   -0.234440
     8  C    0.388904
     9  O   -0.354305
    10  H    0.152477
    11  H    0.114552
    12  H    0.116508
    13  H    0.126880
    14  H    0.103393
    15  H    0.119238
    16  H    0.109967
    17  H    0.132392
    18  H    0.139292
    19  H    0.122576
 Sum of Mulliken charges =   0.00000

 Dipole moment (field-independent basis, Debye):
    X=             -1.2291    Y=             -4.1435    Z=             -0.6607  Tot=              4.3722
 Quadrupole moment (field-independent basis, Debye-Ang):
   XX=            -48.7765   YY=            -58.9664   ZZ=            -52.2610
   XY=             -0.2290   XZ=             -0.0282   YZ=              0.0887

  Exact polarizability: 101.725   9.299  76.495   1.410   3.178  59.049
 Approx polarizability: 140.356  25.297 125.571   5.205   8.180  87.245

                      1                      2                      3
                      A                      A                      A
 Frequencies --     62.2312               116.0893               141.4295
 Red. masses --      2.5115                 2.7487                 4.8083
 Frc consts  --      0.0057                 0.0218                 0.0567
 IR Inten    --      1.4714                 0.2742                 0.3259

                      4                      5                      6
                      A                      A                      A
 Frequencies --    192.2144               233.1625               241.7012
 Red. masses --      1.9733                 1.3805                 1.2597
 Frc consts  --      0.0430                 0.0442                 0.0434
 IR Inten    --      2.5639                 0.1701                 0.1706

                      7                      8                      9
                      A                      A                      A
 Frequencies --    300.2648               334.7844               442.6636
 Red. masses --      2.0011                 3.1788                 4.2892
 Frc consts  --      0.1063                 0.2099                 0.4952
 IR Inten    --      1.3975                 1.7453                 0.6147

                     10                     11                     12
                      A                      A                      A
 Frequencies --    508.1711               537.8511               620.2503
 Red. masses --      3.0377                 3.6990                 4.7782
 Frc consts  --      0.4622                 0.6305                 1.0831
 IR Inten    --      3.3131                 3.3537                 3.6391

                     13                     14                     15
                      A                      A                      A
 Frequencies --    716.9037               771.5325               795.3358
 Red. masses --      3.2231                 2.3000                 3.7378
 Frc consts  --      0.9760                 0.8066                 1.3931
 IR Inten    --      0.7539                 1.1089                 6.3089

                     16                     17                     18
                      A                      A                      A
 Frequencies --    812.9582               878.4668               887.7210
 Red. masses --      2.4532                 1.7427                 1.8728
 Frc consts  --      0.9552                 0.7923                 0.8696
 IR Inten    --      5.0644                12.8611                 8.0591

                     19                     20                     21
                      A                      A                      A
 Frequencies --    948.9487               970.9662              1047.8185
 Red. masses --      1.8833                 2.1939                 2.4124
 Frc consts  --      0.9992                 1.2186                 1.5605
 IR Inten    --     16.4752                19.4589                52.1260

                     22                     23                     24
                      A                      A                      A
 Frequencies --   1058.9296              1093.7898              1102.6458
 Red. masses --      1.9202                 1.7302                 2.3304
 Frc consts  --      1.2686                 1.2196                 1.6693
 IR Inten    --     37.8711                 4.9918                34.2204

                     25                     26                     27
                      A                      A                      A
 Frequencies --   1116.0964              1146.6480              1217.9794
 Red. masses --      2.7629                 1.8167                 1.8574
 Frc consts  --      2.0278                 1.4073                 1.6235
 IR Inten    --     41.9164                20.6007                 8.5755

                     28                     29                     30
                      A                      A                      A
 Frequencies --   1272.3441              1337.4251              1341.2688
 Red. masses --      1.4093                 1.9755                 1.4155
 Frc consts  --      1.3442                 2.0819                 1.5003
 IR Inten    --      4.4444                49.6657                 1.3242

                     31                     32                     33
                      A                      A                      A
 Frequencies --   1351.4915              1367.3302              1404.5241
 Red. masses --      1.5506                 1.6641                 1.2265
 Frc consts  --      1.6686                 1.8331                 1.4255
 IR Inten    --      2.5741                10.6617                 1.0261

                     34                     35                     36
                      A                      A                      A
 Frequencies --   1405.6667              1476.9320              1486.7432
 Red. masses --      1.2370                 1.0819                 1.0512
 Frc consts  --      1.4401                 1.3904                 1.3690
 IR Inten    --      4.5288                 1.9262                 2.3266

                     37                     38                     39
                      A                      A                      A
 Frequencies --   1495.2163              1497.1078              1512.1248
 Red. masses --      1.0497                 1.0455                 1.0571
 Frc consts  --      1.3827                 1.3807                 1.4241
 IR Inten    --      4.2010                 6.4352                 3.5815

                     40                     41                     42
                      A                      A                      A
 Frequencies --   1713.7518              1854.6366              3010.9499
 Red. masses --      8.2139                12.7864                 1.0829
 Frc consts  --     14.2133                25.9128                 5.7841
 IR Inten    --      4.0510               372.4478                24.4546

                     43                     44                     45
                      A                      A                      A
 Frequencies --   3034.2599              3042.8621              3045.1940
 Red. masses --      1.0593                 1.0358                 1.0344
 Frc consts  --      5.7461                 5.6503                 5.6518
 IR Inten    --     17.5951                27.3700                16.5839

                     46                     47                     48
                      A                      A                      A
 Frequencies --   3076.2372              3111.7886              3120.6393
 Red. masses --      1.1016                 1.1022                 1.1015
 Frc consts  --      6.1420                 6.2883                 6.3198
 IR Inten    --     11.6175                30.6909                15.6083

                     49                     50                     51
                      A                      A                      A
 Frequencies --   3131.8280              3133.0325              3209.3520
 Red. masses --      1.1034                 1.1019                 1.0959
 Frc consts  --      6.3762                 6.3726                 6.6507
 IR Inten    --     15.9310                15.6306                 4.2948

 - Thermochemistry -
 -------------------
 Temperature   298.150 Kelvin.  Pressure   1.00000 Atm.
 Atom     1 has atomic number  6 and mass  12.00000

 Molecular mass:   126.06808 amu.
 Principal axes and moments of inertia in atomic units:
                           1         2         3
     Eigenvalues --   652.321241476.527121839.87280
           X            1.00000  -0.00201  -0.00126
           Y            0.00200   0.99995  -0.00976
           Z            0.00128   0.00976   0.99995
 This molecule is an asymmetric top.
 Rotational symmetry number  1.
 Warning -- assumption of classical behavior for rotation
           may cause significant error
 Rotational temperatures (Kelvin)      0.13278     0.05866     0.04708
 Rotational constants (GHZ):           2.76664     1.22229     0.98091
 Zero-point vibrational energy     417079.6 (Joules/Mol)
                                   99.68441 (Kcal/Mol)
 Warning -- explicit consideration of  12 degrees of freedom as
           vibrations may cause significant error
 Vibrational temperatures:     89.54   167.03   203.49   276.55   335.47
          (Kelvin)            347.75   432.01   481.68   636.89   731.14
                              773.85   892.40  1031.46  1110.06  1144.31
                             1169.66  1263.92  1277.23  1365.32  1397.00
                             1507.58  1523.56  1573.72  1586.46  1605.81
                             1649.77  1752.40  1830.62  1924.25  1929.78
                             1944.49  1967.28  2020.79  2022.44  2124.97
                             2139.09  2151.28  2154.00  2175.61  2465.70
                             2668.41  4332.08  4365.62  4377.99  4381.35
                             4426.01  4477.16  4489.90  4506.00  4507.73
                             4617.54

 Zero-point correction=                           0.158857 (Hartree/Particle)
 Thermal correction to Energy=                    0.167888
 Thermal correction to Enthalpy=                  0.168832
 Thermal correction to Gibbs Free Energy=         0.124767
 Sum of electronic and zero-point Energies=           -423.095155
 Sum of electronic and thermal Energies=              -423.086125
 Sum of electronic and thermal Enthalpies=            -423.085181
 Sum of electronic and thermal Free Energies=         -423.129246

                     E (Thermal)             CV                S
                      KCal/Mol        Cal/Mol-Kelvin    Cal/Mol-Kelvin
 Total                  105.351             33.144             92.743
 Electronic               0.000              0.000              0.000
 Translational            0.889              2.981             40.409
 Rotational               0.889              2.981             28.962
 Vibrational            103.574             27.182             23.373
 Vibration     1          0.597              1.972              4.385
 Vibration     2          0.608              1.936              3.164
 Vibration     3          0.615              1.912              2.784
 Vibration     4          0.634              1.851              2.206
 Vibration     5          0.654              1.790              1.854
 Vibration     6          0.658              1.776              1.790
 Vibration     7          0.693              1.673              1.415
 Vibration     8          0.716              1.606              1.237
 Vibration     9          0.802              1.377              0.818
 Vibration    10          0.863              1.232              0.638
 Vibration    11          0.893              1.166              0.570
 Vibration    12          0.980              0.989              0.416

 Optimization completed.
    -- Stationary point found.
 Normal termination of Gaussian 09 at Tue Jan 28 13:14:51 2020.
