 Gaussian 09, Revision D.01,
 Gaussian 09:  ES64L-G09RevD.01 24-Apr-2013

 -----------------------------
 # b3lyp 6-31G(2df,p) opt Freq
 -----------------------------

 -----
 titel
 -----
 Symbolic Z-matrix:
 Charge =  0 Multiplicity = 1

 SCF Done:  E(RB3LYP) =  -423.150875823     A.U. after   13 cycles
 Optimization completed.
    -- Stationary point found.
 Normal termination of Gaussian 09 at Tue Jan 28 00:02:22 2020.

 ----------------------------------------------------------------------
 #N Geom=AllCheck Guess=TCheck SCRF=Check GenChk RB3LYP/6-31G(2df,p) Fr
 eq
 ----------------------------------------------------------------------

 Structure from the checkpoint file:  "/scratch/puck/g09_cc464b81-645c-4afa-911f-7e4e4d503bac/Gau-31934.chk"
 -----
 titel
 -----
 Charge =  0 Multiplicity = 1

                         Standard orientation:
 ---------------------------------------------------------------------
 Center     Atomic      Atomic             Coordinates (Angstroms)
 Number     Number       Type             X           Y           Z
 ---------------------------------------------------------------------
      1          8           0        2.871174   -0.410417   -0.228370
      2          6           0        1.522379   -0.088801   -0.411546
      3          6           0        0.774586    0.603899    0.699241
      4          6           0       -0.346118    1.585299    0.409579
      5          8           0       -1.165723    1.199154   -0.679809
      6          6           0       -1.640125   -0.120586   -0.662680
      7          6           0       -2.047419   -0.863796    0.580464
      8          6           0       -0.777726   -1.252401   -0.177790
      9          6           0        0.540488   -0.871379    0.417617
     10          1           0        3.386972    0.394766   -0.342522
     11          1           0        1.228250    0.143490   -1.434942
     12          1           0        1.362199    0.835053    1.583434
     13          1           0       -0.956071    1.727032    1.316305
     14          1           0        0.054085    2.566568    0.131665
     15          1           0       -2.240373   -0.275626   -1.552401
     16          1           0       -1.911709   -0.395531    1.548319
     17          1           0       -2.916682   -1.509243    0.516227
     18          1           0       -0.793535   -2.177582   -0.747445
     19          1           0        0.986870   -1.572240    1.117477
 ---------------------------------------------------------------------

 SCF Done:  E(RB3LYP) =  -423.150875823     A.U. after    1 cycles

 The electronic state is 1-A.
 Alpha  occ. eigenvalues --  -19.14436 -19.14067 -10.23371 -10.23232 -10.22969
 Alpha  occ. eigenvalues --  -10.19008 -10.18889 -10.18849 -10.18167  -1.03949
 Alpha  occ. eigenvalues --   -1.02471  -0.86470  -0.83249  -0.70914  -0.63941
 Alpha  occ. eigenvalues --   -0.60278  -0.58395  -0.53840  -0.51663  -0.50292
 Alpha  occ. eigenvalues --   -0.49955  -0.44355  -0.44247  -0.42309  -0.38836
 Alpha  occ. eigenvalues --   -0.38722  -0.37026  -0.35246  -0.35172  -0.31378
 Alpha  occ. eigenvalues --   -0.29967  -0.25836  -0.24739  -0.23101
 Alpha virt. eigenvalues --    0.08077   0.09303   0.09656   0.11556   0.12694
 Alpha virt. eigenvalues --    0.13633   0.14724   0.15308   0.16761   0.18517
 Alpha virt. eigenvalues --    0.18795   0.19097   0.19321   0.22247   0.23826

 Mulliken charges:
               1
     1  O   -0.430967
     2  C    0.083565
     3  C   -0.104153
     4  C   -0.117547
     5  O   -0.257095
     6  C    0.133381
     7  C   -0.345270
     8  C   -0.082266
     9  C   -0.069307
    10  H    0.284858
    11  H    0.096897
    12  H    0.088756
    13  H    0.095810
    14  H    0.108112
    15  H    0.101118
    16  H    0.119703
    17  H    0.111663
    18  H    0.088248
    19  H    0.094493
 Sum of Mulliken charges =   0.00000

 Dipole moment (field-independent basis, Debye):
    X=              0.1397    Y=              0.6309    Z=              0.6077  Tot=              0.8870
 Quadrupole moment (field-independent basis, Debye-Ang):
   XX=            -52.4066   YY=            -52.8506   ZZ=            -52.1980
   XY=              7.5673   XZ=             -0.3882   YZ=              1.8977

  Exact polarizability:  84.266   4.775  73.713  -0.763   1.804  64.851
 Approx polarizability: 111.587   3.435 110.416  -1.654   0.555 101.909

                      1                      2                      3
                      A                      A                      A
 Frequencies --    151.9618               190.7395               267.4035
 Red. masses --      4.3651                 2.9776                 2.5552
 Frc consts  --      0.0594                 0.0638                 0.1076
 IR Inten    --      1.3462                12.0183                12.7133

                      4                      5                      6
                      A                      A                      A
 Frequencies --    298.6808               310.6694               368.8000
 Red. masses --      2.3249                 1.4036                 2.7082
 Frc consts  --      0.1222                 0.0798                 0.2170
 IR Inten    --      4.2338                68.8930                 9.7181

                      7                      8                      9
                      A                      A                      A
 Frequencies --    388.2849               428.7418               561.1098
 Red. masses --      4.6642                 3.2483                 3.1598
 Frc consts  --      0.4143                 0.3518                 0.5861
 IR Inten    --      6.8338                15.8820                 2.6226

                     10                     11                     12
                      A                      A                      A
 Frequencies --    596.9915               724.6809               753.5243
 Red. masses --      4.2876                 2.2478                 3.1860
 Frc consts  --      0.9003                 0.6955                 1.0659
 IR Inten    --      3.7914                 6.3385                13.9346

                     13                     14                     15
                      A                      A                      A
 Frequencies --    787.9447               818.1231               849.2437
 Red. masses --      3.2819                 1.5410                 2.2230
 Frc consts  --      1.2005                 0.6077                 0.9446
 IR Inten    --      2.9554                10.5829                 1.5633

                     16                     17                     18
                      A                      A                      A
 Frequencies --    873.3257               933.2090               964.3626
 Red. masses --      2.6289                 2.0731                 2.3589
 Frc consts  --      1.1813                 1.0637                 1.2925
 IR Inten    --      1.6561                 8.0487                27.5076

                     19                     20                     21
                      A                      A                      A
 Frequencies --   1010.8236              1028.3195              1054.1807
 Red. masses --      2.2735                 1.4631                 1.5637
 Frc consts  --      1.3687                 0.9115                 1.0238
 IR Inten    --     17.5895                25.9169                 5.3420

                     22                     23                     24
                      A                      A                      A
 Frequencies --   1077.9643              1095.4865              1102.3799
 Red. masses --      1.7282                 1.2677                 1.9189
 Frc consts  --      1.1832                 0.8964                 1.3739
 IR Inten    --      5.5531                 0.8100                 5.4981

                     25                     26                     27
                      A                      A                      A
 Frequencies --   1115.4545              1120.4158              1139.3808
 Red. masses --      1.8530                 1.4462                 1.5384
 Frc consts  --      1.3584                 1.0697                 1.1767
 IR Inten    --      6.2852                 3.3310                 1.1203

                     28                     29                     30
                      A                      A                      A
 Frequencies --   1165.5182              1179.1620              1196.7541
 Red. masses --      2.7620                 1.7827                 1.7380
 Frc consts  --      2.2106                 1.4604                 1.4666
 IR Inten    --     75.8449                17.2744                27.8764

                     31                     32                     33
                      A                      A                      A
 Frequencies --   1244.1900              1289.0159              1291.1211
 Red. masses --      2.1032                 1.1560                 1.1899
 Frc consts  --      1.9182                 1.1317                 1.1687
 IR Inten    --     54.2835                 8.4318                59.1535

                     34                     35                     36
                      A                      A                      A
 Frequencies --   1328.4586              1335.6625              1385.4672
 Red. masses --      1.6635                 1.3187                 1.5257
 Frc consts  --      1.7297                 1.3861                 1.7255
 IR Inten    --     15.4661                 7.6940                 0.5513

                     37                     38                     39
                      A                      A                      A
 Frequencies --   1395.3547              1425.8194              1479.4411
 Red. masses --      1.6714                 1.3920                 2.0432
 Frc consts  --      1.9173                 1.6674                 2.6349
 IR Inten    --      9.9870                13.1969                17.1755

                     40                     41                     42
                      A                      A                      A
 Frequencies --   1490.9976              1511.0615              2973.0357
 Red. masses --      1.6269                 1.0871                 1.0705
 Frc consts  --      2.1309                 1.4624                 5.5752
 IR Inten    --     10.9083                 2.0324                64.6410

                     43                     44                     45
                      A                      A                      A
 Frequencies --   3059.0241              3106.8169              3135.9190
 Red. masses --      1.0913                 1.0878                 1.0792
 Frc consts  --      6.0168                 6.1861                 6.2528
 IR Inten    --     38.3850                17.4093                12.5779

                     46                     47                     48
                      A                      A                      A
 Frequencies --   3139.3080              3144.6833              3154.2744
 Red. masses --      1.0632                 1.0874                 1.0889
 Frc consts  --      6.1735                 6.3358                 6.3831
 IR Inten    --      8.2533                16.3514                20.4333

                     49                     50                     51
                      A                      A                      A
 Frequencies --   3171.9919              3225.7046              3803.3065
 Red. masses --      1.0913                 1.1151                 1.0662
 Frc consts  --      6.4692                 6.8365                 9.0865
 IR Inten    --     18.6381                11.0147                18.8898

 - Thermochemistry -
 -------------------
 Temperature   298.150 Kelvin.  Pressure   1.00000 Atm.
 Atom     1 has atomic number  8 and mass  15.99491

 Molecular mass:   126.06808 amu.
 Principal axes and moments of inertia in atomic units:
                           1         2         3
     Eigenvalues --   574.101161291.457221556.86753
           X            0.99937   0.03519  -0.00399
           Y           -0.03504   0.99885   0.03279
           Z            0.00514  -0.03263   0.99945
 This molecule is an asymmetric top.
 Rotational symmetry number  1.
 Warning -- assumption of classical behavior for rotation
           may cause significant error
 Rotational temperatures (Kelvin)      0.15087     0.06707     0.05563
 Rotational constants (GHZ):           3.14359     1.39745     1.15921
 Zero-point vibrational energy     422546.7 (Joules/Mol)
                                  100.99108 (Kcal/Mol)
 Warning -- explicit consideration of  10 degrees of freedom as
           vibrations may cause significant error
 Vibrational temperatures:    218.64   274.43   384.73   429.73   446.98
          (Kelvin)            530.62   558.65   616.86   807.31   858.94
                             1042.65  1084.15  1133.68  1177.10  1221.87
                             1256.52  1342.68  1387.50  1454.35  1479.52
                             1516.73  1550.95  1576.16  1586.08  1604.89
                             1612.03  1639.31  1676.92  1696.55  1721.86
                             1790.11  1854.60  1857.63  1911.35  1921.72
                             1993.38  2007.60  2051.43  2128.58  2145.21
                             2174.08  4277.53  4401.25  4470.01  4511.88
                             4516.76  4524.49  4538.29  4563.78  4641.06
                             5472.10

 Zero-point correction=                           0.160940 (Hartree/Particle)
 Thermal correction to Energy=                    0.168526
 Thermal correction to Enthalpy=                  0.169470
 Thermal correction to Gibbs Free Energy=         0.129270
 Sum of electronic and zero-point Energies=           -422.989936
 Sum of electronic and thermal Energies=              -422.982350
 Sum of electronic and thermal Enthalpies=            -422.981406
 Sum of electronic and thermal Free Energies=         -423.021606

                     E (Thermal)             CV                S
                      KCal/Mol        Cal/Mol-Kelvin    Cal/Mol-Kelvin
 Total                  105.751             30.784             84.607
 Electronic               0.000              0.000              0.000
 Translational            0.889              2.981             40.409
 Rotational               0.889              2.981             28.536
 Vibrational            103.974             24.823             15.663
 Vibration     1          0.619              1.900              2.648
 Vibration     2          0.634              1.853              2.221
 Vibration     3          0.673              1.733              1.613
 Vibration     4          0.692              1.676              1.424
 Vibration     5          0.700              1.653              1.359
 Vibration     6          0.741              1.536              1.085
 Vibration     7          0.756              1.495              1.007
 Vibration     8          0.790              1.408              0.863
 Vibration     9          0.917              1.115              0.522
 Vibration    10          0.955              1.038              0.455

 Optimization completed.
    -- Stationary point found.
 Normal termination of Gaussian 09 at Tue Jan 28 00:50:41 2020.
