 Gaussian 09, Revision D.01,
 Gaussian 09:  ES64L-G09RevD.01 24-Apr-2013

 -----------------------------
 # b3lyp 6-31G(2df,p) opt Freq
 -----------------------------

 -----
 titel
 -----
 Symbolic Z-matrix:
 Charge =  0 Multiplicity = 1

 SCF Done:  E(RB3LYP) =  -423.219151651     A.U. after   14 cycles
 Optimization completed.
    -- Stationary point found.
 Normal termination of Gaussian 09 at Mon Jan 27 15:36:15 2020.

 ----------------------------------------------------------------------
 #N Geom=AllCheck Guess=TCheck SCRF=Check GenChk RB3LYP/6-31G(2df,p) Fr
 eq
 ----------------------------------------------------------------------

 Structure from the checkpoint file:  "/scratch/puck/g09_55882f12-739e-4652-98d3-c1f94e3d44ee/Gau-45495.chk"
 -----
 titel
 -----
 Charge =  0 Multiplicity = 1

                         Standard orientation:
 ---------------------------------------------------------------------
 Center     Atomic      Atomic             Coordinates (Angstroms)
 Number     Number       Type             X           Y           Z
 ---------------------------------------------------------------------
      1          6           0       -1.466028   -0.915089    1.274646
      2          6           0       -1.429483   -0.603553   -0.224622
      3          8           0       -2.312381    0.448050   -0.566345
      4          6           0       -0.004657   -0.281415   -0.756634
      5          6           0        1.063686   -1.325984   -0.566716
      6          6           0        2.154407   -0.850851    0.038612
      7          6           0        2.033716    0.611378    0.378573
      8          6           0        0.601689    0.942920   -0.054919
      9          8           0        0.019504    1.981584    0.158311
     10          1           0       -2.491958   -1.145150    1.572620
     11          1           0       -0.828705   -1.770451    1.520997
     12          1           0       -1.130247   -0.055138    1.864126
     13          1           0       -1.790377   -1.483086   -0.772709
     14          1           0       -1.897329    1.268178   -0.260815
     15          1           0       -0.140545   -0.030587   -1.818910
     16          1           0        0.938481   -2.348112   -0.906657
     17          1           0        3.044376   -1.428081    0.260289
     18          1           0        2.175309    0.844931    1.440874
     19          1           0        2.744033    1.245992   -0.169183
 ---------------------------------------------------------------------

 SCF Done:  E(RB3LYP) =  -423.219151651     A.U. after    1 cycles

 The electronic state is 1-A.
 Alpha  occ. eigenvalues --  -19.14801 -19.12082 -10.28190 -10.23724 -10.20463
 Alpha  occ. eigenvalues --  -10.20020 -10.19998 -10.19750 -10.17317  -1.05743
 Alpha  occ. eigenvalues --   -1.00720  -0.85708  -0.76440  -0.71607  -0.69401
 Alpha  occ. eigenvalues --   -0.61427  -0.56227  -0.54180  -0.49603  -0.49413
 Alpha  occ. eigenvalues --   -0.45579  -0.45032  -0.42431  -0.41569  -0.40813
 Alpha  occ. eigenvalues --   -0.40604  -0.38404  -0.37680  -0.36432  -0.35799
 Alpha  occ. eigenvalues --   -0.32003  -0.27170  -0.25361  -0.24962
 Alpha virt. eigenvalues --   -0.03126   0.00299   0.09642   0.11562   0.11815
 Alpha virt. eigenvalues --    0.13143   0.14249   0.15078   0.16284   0.16874
 Alpha virt. eigenvalues --    0.17118   0.18191   0.18586   0.22058   0.22727

 Mulliken charges:
               1
     1  C   -0.408848
     2  C    0.130753
     3  O   -0.440950
     4  C   -0.171181
     5  C   -0.081670
     6  C   -0.083399
     7  C   -0.364407
     8  C    0.397873
     9  O   -0.332197
    10  H    0.127799
    11  H    0.113673
    12  H    0.121189
    13  H    0.084230
    14  H    0.293068
    15  H    0.119079
    16  H    0.105550
    17  H    0.106438
    18  H    0.141010
    19  H    0.141990
 Sum of Mulliken charges =   0.00000

 Dipole moment (field-independent basis, Debye):
    X=              2.7967    Y=             -1.9300    Z=              0.2630  Tot=              3.4082
 Quadrupole moment (field-independent basis, Debye-Ang):
   XX=            -54.7031   YY=            -55.0558   ZZ=            -52.7971
   XY=              1.6287   XZ=             -1.2966   YZ=              0.3860

  Exact polarizability:  89.515   1.053  76.658   6.045   3.960  62.180
 Approx polarizability: 128.121   1.088 118.902  14.520   9.852  96.247

                      1                      2                      3
                      A                      A                      A
 Frequencies --     71.7715               102.1947               186.7430
 Red. masses --      3.4976                 3.1755                 3.9465
 Frc consts  --      0.0106                 0.0195                 0.0811
 IR Inten    --      1.2012                 1.2388                 3.9723

                      4                      5                      6
                      A                      A                      A
 Frequencies --    192.3364               242.5131               348.4616
 Red. masses --      2.8986                 1.1719                 2.7175
 Frc consts  --      0.0632                 0.0406                 0.1944
 IR Inten    --      1.7171                 1.5095                 0.5728

                      7                      8                      9
                      A                      A                      A
 Frequencies --    372.9864               456.3061               466.5409
 Red. masses --      4.9696                 2.3104                 3.7629
 Frc consts  --      0.4073                 0.2834                 0.4826
 IR Inten    --      1.8658                 3.7088                 6.8608

                     10                     11                     12
                      A                      A                      A
 Frequencies --    478.2229               538.2958               623.7230
 Red. masses --      3.0225                 1.1131                 3.4394
 Frc consts  --      0.4073                 0.1900                 0.7884
 IR Inten    --      7.8308               104.0519                 7.0530

                     13                     14                     15
                      A                      A                      A
 Frequencies --    649.6110               706.2964               768.2228
 Red. masses --      3.9340                 1.4619                 2.4656
 Frc consts  --      0.9781                 0.4297                 0.8573
 IR Inten    --      5.8942                35.8271                 2.5982

                     16                     17                     18
                      A                      A                      A
 Frequencies --    780.3344               857.7737               928.0853
 Red. masses --      5.0430                 2.3171                 2.1489
 Frc consts  --      1.8093                 1.0045                 1.0905
 IR Inten    --     10.3973                11.5011                 0.9205

                     19                     20                     21
                      A                      A                      A
 Frequencies --    968.0934               971.5544               984.5719
 Red. masses --      1.9959                 1.9711                 1.2527
 Frc consts  --      1.1021                 1.0962                 0.7155
 IR Inten    --      7.4366                 5.8801                 0.0318

                     22                     23                     24
                      A                      A                      A
 Frequencies --   1039.7657              1052.0185              1089.5566
 Red. masses --      2.0173                 1.6042                 2.4296
 Frc consts  --      1.2850                 1.0461                 1.6993
 IR Inten    --      1.1750                22.0177                37.1611

                     25                     26                     27
                      A                      A                      A
 Frequencies --   1125.0071              1135.7707              1151.2581
 Red. masses --      1.8485                 1.3809                 1.5308
 Frc consts  --      1.3784                 1.0495                 1.1954
 IR Inten    --     71.7226                 6.5777                 6.1911

                     28                     29                     30
                      A                      A                      A
 Frequencies --   1166.2867              1239.9111              1253.7322
 Red. masses --      2.3120                 1.5599                 1.3954
 Frc consts  --      1.8529                 1.4130                 1.2923
 IR Inten    --     36.8600                19.9683                 4.0310

                     31                     32                     33
                      A                      A                      A
 Frequencies --   1285.1103              1328.0011              1367.2494
 Red. masses --      1.7736                 1.5380                 1.4377
 Frc consts  --      1.7258                 1.5981                 1.5835
 IR Inten    --     11.1368                16.8823                 8.9799

                     34                     35                     36
                      A                      A                      A
 Frequencies --   1385.9219              1404.4053              1438.9369
 Red. masses --      1.5562                 1.3013                 1.0888
 Frc consts  --      1.7612                 1.5122                 1.3283
 IR Inten    --      0.7028                14.0206                 8.4176

                     37                     38                     39
                      A                      A                      A
 Frequencies --   1452.5438              1491.9781              1498.8972
 Red. masses --      1.1507                 1.0768                 1.0504
 Frc consts  --      1.4305                 1.4122                 1.3904
 IR Inten    --     81.8551                19.8687                 2.9683

                     40                     41                     42
                      A                      A                      A
 Frequencies --   1675.6643              1818.6429              3004.3695
 Red. masses --      6.4274                12.2546                 1.0806
 Frc consts  --     10.6331                23.8806                 5.7470
 IR Inten    --      0.0239               159.5985                 9.2539

                     43                     44                     45
                      A                      A                      A
 Frequencies --   3023.4515              3026.9161              3036.6787
 Red. masses --      1.0637                 1.0853                 1.0358
 Frc consts  --      5.7288                 5.8586                 5.6275
 IR Inten    --     12.3708                30.7679                12.4021

                     46                     47                     48
                      A                      A                      A
 Frequencies --   3058.4063              3106.3465              3123.2055
 Red. masses --      1.0962                 1.1011                 1.1012
 Frc consts  --      6.0414                 6.2600                 6.3288
 IR Inten    --      6.2517                25.6567                21.7988

                     49                     50                     51
                      A                      A                      A
 Frequencies --   3186.4605              3210.6334              3720.2964
 Red. masses --      1.0856                 1.1026                 1.0659
 Frc consts  --      6.4941                 6.6964                 8.6917
 IR Inten    --      3.4033                15.2985                71.0914

 - Thermochemistry -
 -------------------
 Temperature   298.150 Kelvin.  Pressure   1.00000 Atm.
 Atom     1 has atomic number  6 and mass  12.00000

 Molecular mass:   126.06808 amu.
 Principal axes and moments of inertia in atomic units:
                           1         2         3
     Eigenvalues --   705.951231250.853201575.53622
           X            0.99972   0.02135  -0.01044
           Y           -0.02148   0.99970  -0.01201
           Z            0.01018   0.01223   0.99987
 This molecule is an asymmetric top.
 Rotational symmetry number  1.
 Warning -- assumption of classical behavior for rotation
           may cause significant error
 Rotational temperatures (Kelvin)      0.12269     0.06924     0.05497
 Rotational constants (GHZ):           2.55647     1.44281     1.14548
 Zero-point vibrational energy     416253.0 (Joules/Mol)
                                   99.48685 (Kcal/Mol)
 Warning -- explicit consideration of  11 degrees of freedom as
           vibrations may cause significant error
 Vibrational temperatures:    103.26   147.04   268.68   276.73   348.92
          (Kelvin)            501.36   536.64   656.52   671.25   688.06
                              774.49   897.40   934.64  1016.20  1105.30
                             1122.73  1234.14  1335.31  1392.87  1397.85
                             1416.58  1495.99  1513.62  1567.63  1618.63
                             1634.12  1656.40  1678.02  1783.95  1803.84
                             1848.98  1910.70  1967.16  1994.03  2020.62
                             2070.31  2089.88  2146.62  2156.58  2410.90
                             2616.62  4322.61  4350.07  4355.05  4369.10
                             4400.36  4469.33  4493.59  4584.60  4619.38
                             5352.67

 Zero-point correction=                           0.158542 (Hartree/Particle)
 Thermal correction to Energy=                    0.167262
 Thermal correction to Enthalpy=                  0.168206
 Thermal correction to Gibbs Free Energy=         0.125086
 Sum of electronic and zero-point Energies=           -423.060609
 Sum of electronic and thermal Energies=              -423.051889
 Sum of electronic and thermal Enthalpies=            -423.050945
 Sum of electronic and thermal Free Energies=         -423.094066

                     E (Thermal)             CV                S
                      KCal/Mol        Cal/Mol-Kelvin    Cal/Mol-Kelvin
 Total                  104.959             33.257             90.755
 Electronic               0.000              0.000              0.000
 Translational            0.889              2.981             40.409
 Rotational               0.889              2.981             28.722
 Vibrational            103.181             27.296             21.625
 Vibration     1          0.598              1.967              4.104
 Vibration     2          0.604              1.947              3.412
 Vibration     3          0.632              1.858              2.260
 Vibration     4          0.634              1.850              2.205
 Vibration     5          0.659              1.775              1.784
 Vibration     6          0.726              1.578              1.173
 Vibration     7          0.744              1.528              1.067
 Vibration     8          0.815              1.347              0.777
 Vibration     9          0.824              1.324              0.747
 Vibration    10          0.835              1.298              0.715
 Vibration    11          0.893              1.165              0.569

 Optimization completed.
    -- Stationary point found.
 Normal termination of Gaussian 09 at Mon Jan 27 16:18:58 2020.
