 Gaussian 09, Revision D.01,
 Gaussian 09:  ES64L-G09RevD.01 24-Apr-2013

 -----------------------------
 # b3lyp 6-31G(2df,p) opt Freq
 -----------------------------

 -----
 titel
 -----
 Symbolic Z-matrix:
 Charge =  0 Multiplicity = 1

 SCF Done:  E(RB3LYP) =  -423.167125812     A.U. after   13 cycles
 Optimization completed.
    -- Stationary point found.
 Normal termination of Gaussian 09 at Mon Jan 27 18:19:17 2020.

 ----------------------------------------------------------------------
 #N Geom=AllCheck Guess=TCheck SCRF=Check GenChk RB3LYP/6-31G(2df,p) Fr
 eq
 ----------------------------------------------------------------------

 Structure from the checkpoint file:  "/scratch/puck/g09_f607c8b1-63f5-4c72-823b-56f0f5614847/Gau-4316.chk"
 -----
 titel
 -----
 Charge =  0 Multiplicity = 1

                         Standard orientation:
 ---------------------------------------------------------------------
 Center     Atomic      Atomic             Coordinates (Angstroms)
 Number     Number       Type             X           Y           Z
 ---------------------------------------------------------------------
      1          8           0        2.524016   -0.271999    0.103502
      2          6           0        1.160109   -0.044260   -0.071879
      3          6           0        0.445262   -1.254252   -0.714907
      4          6           0       -0.689930   -1.194093    0.356553
      5          6           0       -2.007295   -0.580899   -0.098239
      6          8           0       -1.739454    0.798065   -0.350914
      7          6           0       -0.576220    1.211003    0.356578
      8          6           0        0.677197    1.340245   -0.557873
      9          6           0        0.048378   -0.026586    1.061000
     10          1           0        2.921027    0.518734    0.483995
     11          1           0        0.145898   -1.149541   -1.761950
     12          1           0        1.063553   -2.147724   -0.606990
     13          1           0       -0.825579   -2.114372    0.925968
     14          1           0       -2.399631   -1.023867   -1.020782
     15          1           0       -2.775281   -0.684794    0.684914
     16          1           0       -0.814016    2.086058    0.967303
     17          1           0        0.494520    1.491399   -1.625168
     18          1           0        1.345917    2.128710   -0.190967
     19          1           0        0.222080   -0.020081    2.135568
 ---------------------------------------------------------------------

 SCF Done:  E(RB3LYP) =  -423.167125812     A.U. after    1 cycles

 The electronic state is 1-A.
 Alpha  occ. eigenvalues --  -19.14277 -19.13096 -10.23632 -10.22863 -10.22234
 Alpha  occ. eigenvalues --  -10.18906 -10.18020 -10.17806 -10.17776  -1.03268
 Alpha  occ. eigenvalues --   -1.02434  -0.85628  -0.77281  -0.68613  -0.66844
 Alpha  occ. eigenvalues --   -0.61676  -0.56026  -0.54601  -0.51968  -0.47667
 Alpha  occ. eigenvalues --   -0.45398  -0.45115  -0.44646  -0.42280  -0.40256
 Alpha  occ. eigenvalues --   -0.37146  -0.36527  -0.33724  -0.33346  -0.31764
 Alpha  occ. eigenvalues --   -0.31221  -0.27717  -0.24659  -0.23939
 Alpha virt. eigenvalues --    0.07280   0.07868   0.10738   0.11921   0.12515
 Alpha virt. eigenvalues --    0.13224   0.15075   0.15587   0.16573   0.16983
 Alpha virt. eigenvalues --    0.17757   0.18597   0.19772   0.22096   0.22957

 Mulliken charges:
               1
     1  O   -0.481106
     2  C    0.431306
     3  C   -0.280501
     4  C   -0.033891
     5  C   -0.083128
     6  O   -0.274128
     7  C    0.113694
     8  C   -0.314992
     9  C   -0.166256
    10  H    0.276167
    11  H    0.099258
    12  H    0.114612
    13  H    0.075787
    14  H    0.105116
    15  H    0.088347
    16  H    0.077043
    17  H    0.105201
    18  H    0.084313
    19  H    0.063157
 Sum of Mulliken charges =   0.00000

 Dipole moment (field-independent basis, Debye):
    X=              0.4764    Y=              0.1678    Z=              1.1517  Tot=              1.2576
 Quadrupole moment (field-independent basis, Debye-Ang):
   XX=            -55.7588   YY=            -51.5687   ZZ=            -52.0266
   XY=              6.8772   XZ=              0.5845   YZ=              1.7041

  Exact polarizability:  80.212   5.195  74.990  -0.649   1.596  66.546
 Approx polarizability: 111.214   4.426 108.140   0.868   1.791 102.495

                      1                      2                      3
                      A                      A                      A
 Frequencies --    113.8717               220.5502               290.3789
 Red. masses --      3.2505                 2.7121                 2.5265
 Frc consts  --      0.0248                 0.0777                 0.1255
 IR Inten    --      3.7275                 1.9676                 6.6124

                      4                      5                      6
                      A                      A                      A
 Frequencies --    324.9038               378.5507               392.6864
 Red. masses --      1.3417                 2.8251                 2.0785
 Frc consts  --      0.0834                 0.2385                 0.1888
 IR Inten    --     66.7737                20.1593                 8.4391

                      7                      8                      9
                      A                      A                      A
 Frequencies --    435.9565               576.0953               600.8201
 Red. masses --      2.1653                 3.9085                 3.8520
 Frc consts  --      0.2425                 0.7643                 0.8193
 IR Inten    --      5.3945                 2.3822                 0.6348

                     10                     11                     12
                      A                      A                      A
 Frequencies --    710.8435               717.9332               809.9312
 Red. masses --      4.1924                 3.0018                 2.4558
 Frc consts  --      1.2481                 0.9116                 0.9492
 IR Inten    --      2.5562                 1.8745                 2.4437

                     13                     14                     15
                      A                      A                      A
 Frequencies --    816.6652               850.8208               900.4613
 Red. masses --      2.2193                 2.0611                 2.2278
 Frc consts  --      0.8721                 0.8791                 1.0643
 IR Inten    --      3.9614                11.7444                 6.6488

                     16                     17                     18
                      A                      A                      A
 Frequencies --    915.4835               926.9030               948.0204
 Red. masses --      3.9062                 2.8301                 1.5495
 Frc consts  --      1.9289                 1.4326                 0.8205
 IR Inten    --     12.4637                 1.6548                 1.3614

                     19                     20                     21
                      A                      A                      A
 Frequencies --    964.1372               976.4830              1022.1647
 Red. masses --      2.5234                 1.8356                 2.0881
 Frc consts  --      1.3820                 1.0312                 1.2854
 IR Inten    --     10.6525                 1.7413                36.1969

                     22                     23                     24
                      A                      A                      A
 Frequencies --   1062.5048              1087.3199              1110.9605
 Red. masses --      1.9429                 1.9656                 3.1248
 Frc consts  --      1.2923                 1.3692                 2.2723
 IR Inten    --      5.1501                64.1024                33.5741

                     25                     26                     27
                      A                      A                      A
 Frequencies --   1133.2894              1139.9318              1154.0853
 Red. masses --      1.6992                 1.4159                 1.8746
 Frc consts  --      1.2858                 1.0841                 1.4711
 IR Inten    --      3.0187                10.8851                58.4386

                     28                     29                     30
                      A                      A                      A
 Frequencies --   1183.6553              1217.5174              1233.4661
 Red. masses --      2.0691                 1.2307                 1.6408
 Frc consts  --      1.7079                 1.0749                 1.4709
 IR Inten    --     29.6651                 5.5590                 8.4684

                     31                     32                     33
                      A                      A                      A
 Frequencies --   1246.9801              1259.7470              1282.2836
 Red. masses --      1.4556                 1.5558                 1.6161
 Frc consts  --      1.3335                 1.4547                 1.5656
 IR Inten    --     10.3027                 4.8538                12.3840

                     34                     35                     36
                      A                      A                      A
 Frequencies --   1315.0665              1318.8763              1348.9940
 Red. masses --      1.4118                 2.2590                 1.4524
 Frc consts  --      1.4385                 2.3151                 1.5572
 IR Inten    --     42.8077                83.9313                19.6380

                     37                     38                     39
                      A                      A                      A
 Frequencies --   1389.0335              1393.5262              1460.9112
 Red. masses --      1.7571                 1.3986                 1.1086
 Frc consts  --      1.9974                 1.6002                 1.3940
 IR Inten    --      7.6758                 9.2716                 2.7596

                     40                     41                     42
                      A                      A                      A
 Frequencies --   1478.1552              1519.1742              2975.1368
 Red. masses --      1.1463                 1.0928                 1.0697
 Frc consts  --      1.4757                 1.4860                 5.5788
 IR Inten    --      2.0993                 0.4506                87.4370

                     43                     44                     45
                      A                      A                      A
 Frequencies --   3028.4257              3055.8765              3058.5291
 Red. masses --      1.0624                 1.0679                 1.0859
 Frc consts  --      5.7410                 5.8756                 5.9849
 IR Inten    --     31.8771                 7.3875                68.8935

                     46                     47                     48
                      A                      A                      A
 Frequencies --   3064.9193              3099.2977              3100.1280
 Red. masses --      1.0880                 1.0895                 1.1031
 Frc consts  --      6.0215                 6.1661                 6.2466
 IR Inten    --     44.5223                21.9875                23.4240

                     49                     50                     51
                      A                      A                      A
 Frequencies --   3122.0921              3130.1631              3805.1255
 Red. masses --      1.1041                 1.0917                 1.0657
 Frc consts  --      6.3410                 6.3019                 9.0912
 IR Inten    --     14.9427                32.1866                14.7615

 - Thermochemistry -
 -------------------
 Temperature   298.150 Kelvin.  Pressure   1.00000 Atm.
 Atom     1 has atomic number  8 and mass  15.99491

 Molecular mass:   126.06808 amu.
 Principal axes and moments of inertia in atomic units:
                           1         2         3
     Eigenvalues --   560.059141080.688121333.07368
           X            0.99883   0.04823  -0.00434
           Y           -0.04814   0.99867   0.01832
           Z            0.00521  -0.01809   0.99982
 This molecule is an asymmetric top.
 Rotational symmetry number  1.
 Warning -- assumption of classical behavior for rotation
           may cause significant error
 Rotational temperatures (Kelvin)      0.15465     0.08015     0.06497
 Rotational constants (GHZ):           3.22241     1.66999     1.35382
 Zero-point vibrational energy     422693.5 (Joules/Mol)
                                  101.02617 (Kcal/Mol)
 Warning -- explicit consideration of   9 degrees of freedom as
           vibrations may cause significant error
 Vibrational temperatures:    163.84   317.32   417.79   467.46   544.65
          (Kelvin)            564.99   627.24   828.87   864.45  1022.74
                             1032.94  1165.31  1175.00  1224.14  1295.56
                             1317.17  1333.60  1363.99  1387.18  1404.94
                             1470.67  1528.71  1564.41  1598.42  1630.55
                             1640.11  1660.47  1703.01  1751.73  1774.68
                             1794.12  1812.49  1844.92  1892.09  1897.57
                             1940.90  1998.51  2004.97  2101.92  2126.73
                             2185.75  4280.55  4357.22  4396.72  4400.54
                             4409.73  4459.19  4460.39  4491.99  4503.60
                             5474.72

 Zero-point correction=                           0.160995 (Hartree/Particle)
 Thermal correction to Energy=                    0.168178
 Thermal correction to Enthalpy=                  0.169123
 Thermal correction to Gibbs Free Energy=         0.129693
 Sum of electronic and zero-point Energies=           -423.006130
 Sum of electronic and thermal Energies=              -422.998947
 Sum of electronic and thermal Enthalpies=            -422.998003
 Sum of electronic and thermal Free Energies=         -423.037432

                     E (Thermal)             CV                S
                      KCal/Mol        Cal/Mol-Kelvin    Cal/Mol-Kelvin
 Total                  105.534             29.592             82.985
 Electronic               0.000              0.000              0.000
 Translational            0.889              2.981             40.409
 Rotational               0.889              2.981             28.180
 Vibrational            103.756             23.630             14.397
 Vibration     1          0.607              1.938              3.202
 Vibration     2          0.647              1.810              1.955
 Vibration     3          0.686              1.692              1.472
 Vibration     4          0.709              1.626              1.285
 Vibration     5          0.749              1.516              1.045
 Vibration     6          0.760              1.486              0.990
 Vibration     7          0.796              1.392              0.839
 Vibration     8          0.933              1.083              0.493
 Vibration     9          0.959              1.030              0.448

 Optimization completed.
    -- Stationary point found.
 Normal termination of Gaussian 09 at Mon Jan 27 19:09:01 2020.
