 Gaussian 09, Revision D.01,
 Gaussian 09:  ES64L-G09RevD.01 24-Apr-2013

 -----------------------------
 # b3lyp 6-31G(2df,p) opt Freq
 -----------------------------

 -----
 titel
 -----
 Symbolic Z-matrix:
 Charge =  0 Multiplicity = 1

 SCF Done:  E(RB3LYP) =  -423.208705257     A.U. after   14 cycles
 Optimization completed.
    -- Stationary point found.
 Normal termination of Gaussian 09 at Tue Jan 28 13:17:40 2020.

 ----------------------------------------------------------------------
 #N Geom=AllCheck Guess=TCheck SCRF=Check GenChk RB3LYP/6-31G(2df,p) Fr
 eq
 ----------------------------------------------------------------------

 Structure from the checkpoint file:  "/scratch/puck/g09_cf1c4778-c70f-469d-81f2-160f5621c754/Gau-144441.chk"
 -----
 titel
 -----
 Charge =  0 Multiplicity = 1

                         Standard orientation:
 ---------------------------------------------------------------------
 Center     Atomic      Atomic             Coordinates (Angstroms)
 Number     Number       Type             X           Y           Z
 ---------------------------------------------------------------------
      1          6           0        3.119422   -0.015853   -0.047620
      2          6           0        1.763026   -0.650749   -0.369421
      3          6           0        0.649740   -0.134021    0.519115
      4          8           0        0.403421    1.310609    0.310899
      5          6           0       -0.906057    1.089176   -0.054363
      6          8           0       -1.726166    1.892352   -0.369463
      7          6           0       -0.800908   -0.394696    0.121010
      8          6           0       -1.852065   -1.307996    0.688589
      9          6           0       -1.427747   -1.454507   -0.743957
     10          1           0        3.071988    1.070285   -0.164011
     11          1           0        3.424263   -0.230990    0.982343
     12          1           0        3.897853   -0.397766   -0.713991
     13          1           0        1.492729   -0.463677   -1.415115
     14          1           0        1.815901   -1.740668   -0.246012
     15          1           0        0.866826   -0.301838    1.579494
     16          1           0       -1.526001   -2.059064    1.400352
     17          1           0       -2.820210   -0.867030    0.899472
     18          1           0       -0.810907   -2.305508   -1.012205
     19          1           0       -2.102948   -1.115551   -1.521928
 ---------------------------------------------------------------------

 SCF Done:  E(RB3LYP) =  -423.208705257     A.U. after    1 cycles

 The electronic state is 1-A.
 Alpha  occ. eigenvalues --  -19.17331 -19.12751 -10.30068 -10.25455 -10.21796
 Alpha  occ. eigenvalues --  -10.21088 -10.21049 -10.19801 -10.18325  -1.09727
 Alpha  occ. eigenvalues --   -1.02532  -0.88016  -0.79349  -0.70765  -0.65984
 Alpha  occ. eigenvalues --   -0.62591  -0.60277  -0.52709  -0.52341  -0.50364
 Alpha  occ. eigenvalues --   -0.47106  -0.45167  -0.43730  -0.41850  -0.40403
 Alpha  occ. eigenvalues --   -0.39492  -0.38248  -0.36260  -0.35992  -0.34868
 Alpha  occ. eigenvalues --   -0.31633  -0.31260  -0.29033  -0.26778
 Alpha virt. eigenvalues --    0.01126   0.07865   0.08373   0.09496   0.10488
 Alpha virt. eigenvalues --    0.11802   0.13663   0.14856   0.15877   0.16290
 Alpha virt. eigenvalues --    0.16718   0.18473   0.19419   0.21242   0.21651

 Mulliken charges:
               1
     1  C   -0.386430
     2  C   -0.193960
     3  C    0.068675
     4  O   -0.279858
     5  C    0.437939
     6  O   -0.345536
     7  C    0.106503
     8  C   -0.318140
     9  C   -0.315546
    10  H    0.143380
    11  H    0.117215
    12  H    0.117958
    13  H    0.110643
    14  H    0.102096
    15  H    0.096206
    16  H    0.126832
    17  H    0.142128
    18  H    0.127546
    19  H    0.142349
 Sum of Mulliken charges =   0.00000

 Dipole moment (field-independent basis, Debye):
    X=              1.4010    Y=             -4.0406    Z=              0.5359  Tot=              4.3101
 Quadrupole moment (field-independent basis, Debye-Ang):
   XX=            -53.6879   YY=            -58.7235   ZZ=            -51.3446
   XY=              3.5939   XZ=             -1.1896   YZ=              0.3565

  Exact polarizability:  89.104  -0.826  76.247   1.864  -1.262  64.237
 Approx polarizability: 117.558  -5.179 115.957   5.957  -3.428  98.531

                      1                      2                      3
                      A                      A                      A
 Frequencies --     89.1512               113.2283               140.1237
 Red. masses --      3.4111                 2.3226                 3.4546
 Frc consts  --      0.0160                 0.0175                 0.0400
 IR Inten    --      0.9536                 0.0670                 0.2285

                      4                      5                      6
                      A                      A                      A
 Frequencies --    196.8988               204.7469               222.3570
 Red. masses --      2.3181                 3.7359                 1.3027
 Frc consts  --      0.0530                 0.0923                 0.0379
 IR Inten    --      1.2234                 2.3391                 0.8534

                      7                      8                      9
                      A                      A                      A
 Frequencies --    288.5896               359.8517               470.9568
 Red. masses --      2.3977                 4.1675                 3.0978
 Frc consts  --      0.1177                 0.3180                 0.4048
 IR Inten    --      0.8462                 1.5435                 1.3062

                     10                     11                     12
                      A                      A                      A
 Frequencies --    564.4993               620.7274               724.3862
 Red. masses --      3.0374                 5.4862                 3.5509
 Frc consts  --      0.5703                 1.2454                 1.0978
 IR Inten    --      4.0467                 4.8913                 4.5857

                     13                     14                     15
                      A                      A                      A
 Frequencies --    744.2682               779.8690               811.5278
 Red. masses --      2.4383                 1.1042                 2.1128
 Frc consts  --      0.7958                 0.3957                 0.8198
 IR Inten    --      4.1518                 0.2209                 7.0151

                     16                     17                     18
                      A                      A                      A
 Frequencies --    854.8951               873.0525               943.8450
 Red. masses --      2.0708                 3.7481                 2.5996
 Frc consts  --      0.8917                 1.6832                 1.3644
 IR Inten    --      3.8767                69.5973                 1.4795

                     19                     20                     21
                      A                      A                      A
 Frequencies --    957.0990               962.3815              1014.4651
 Red. masses --      1.4959                 2.2172                 2.8932
 Frc consts  --      0.8074                 1.2099                 1.7543
 IR Inten    --      3.3251                24.5659                12.1408

                     22                     23                     24
                      A                      A                      A
 Frequencies --   1059.0150              1070.7074              1084.3106
 Red. masses --      1.4733                 2.0701                 1.6503
 Frc consts  --      0.9735                 1.3982                 1.1432
 IR Inten    --      4.3517                46.4964                29.0015

                     25                     26                     27
                      A                      A                      A
 Frequencies --   1088.3798              1117.9017              1162.9468
 Red. masses --      1.7785                 2.2418                 2.1794
 Frc consts  --      1.2413                 1.6506                 1.7366
 IR Inten    --     14.7396                86.9985                 3.6957

                     28                     29                     30
                      A                      A                      A
 Frequencies --   1195.6940              1246.3269              1267.9364
 Red. masses --      1.2982                 2.2407                 1.6217
 Frc consts  --      1.0935                 2.0507                 1.5361
 IR Inten    --      0.0508                 4.4365                52.3254

                     31                     32                     33
                      A                      A                      A
 Frequencies --   1288.9697              1343.7744              1392.4232
 Red. masses --      1.2595                 1.4167                 1.8580
 Frc consts  --      1.2330                 1.5072                 2.1224
 IR Inten    --      4.6147                 4.1157                19.9090

                     34                     35                     36
                      A                      A                      A
 Frequencies --   1412.1632              1415.1158              1458.2898
 Red. masses --      1.3719                 1.6381                 1.0886
 Frc consts  --      1.6120                 1.9327                 1.3640
 IR Inten    --      1.3046                14.7258                 2.6188

                     37                     38                     39
                      A                      A                      A
 Frequencies --   1475.4281              1497.4493              1499.4845
 Red. masses --      1.0753                 1.2025                 1.3552
 Frc consts  --      1.3792                 1.5886                 1.7953
 IR Inten    --      0.6611                 6.6185                 0.6631

                     40                     41                     42
                      A                      A                      A
 Frequencies --   1508.3913              1931.2118              3024.0064
 Red. masses --      1.0611                12.7693                 1.0620
 Frc consts  --      1.4224                28.0593                 5.7216
 IR Inten    --      5.3275               446.7465                17.8081

                     43                     44                     45
                      A                      A                      A
 Frequencies --   3039.5777              3050.6472              3071.7581
 Red. masses --      1.0370                 1.0875                 1.0969
 Frc consts  --      5.6449                 5.9629                 6.0979
 IR Inten    --     21.6724                11.7470                27.1307

                     46                     47                     48
                      A                      A                      A
 Frequencies --   3108.1236              3123.4873              3133.7839
 Red. masses --      1.1005                 1.1022                 1.0505
 Frc consts  --      6.2637                 6.3356                 6.0786
 IR Inten    --     34.2288                19.4374                10.3520

                     49                     50                     51
                      A                      A                      A
 Frequencies --   3136.1919              3216.8202              3230.9266
 Red. masses --      1.0573                 1.1185                 1.1163
 Frc consts  --      6.1272                 6.8196                 6.8659
 IR Inten    --      6.4081                 0.0360                 5.0929

 - Thermochemistry -
 -------------------
 Temperature   298.150 Kelvin.  Pressure   1.00000 Atm.
 Atom     1 has atomic number  6 and mass  12.00000

 Molecular mass:   126.06808 amu.
 Principal axes and moments of inertia in atomic units:
                           1         2         3
     Eigenvalues --   718.209431372.130521851.64175
           X            0.99943   0.03334  -0.00543
           Y           -0.03330   0.99943   0.00617
           Z            0.00563  -0.00599   0.99997
 This molecule is an asymmetric top.
 Rotational symmetry number  1.
 Warning -- assumption of classical behavior for rotation
           may cause significant error
 Rotational temperatures (Kelvin)      0.12060     0.06312     0.04678
 Rotational constants (GHZ):           2.51283     1.31528     0.97467
 Zero-point vibrational energy     416229.6 (Joules/Mol)
                                   99.48127 (Kcal/Mol)
 Warning -- explicit consideration of  11 degrees of freedom as
           vibrations may cause significant error
 Vibrational temperatures:    128.27   162.91   201.61   283.29   294.58
          (Kelvin)            319.92   415.22   517.75   677.60   812.19
                              893.09  1042.23  1070.83  1122.06  1167.61
                             1230.00  1256.13  1357.98  1377.05  1384.65
                             1459.59  1523.68  1540.51  1560.08  1565.93
                             1608.41  1673.22  1720.33  1793.18  1824.28
                             1854.54  1933.39  2003.38  2031.79  2036.03
                             2098.15  2122.81  2154.49  2157.42  2170.24
                             2778.58  4350.87  4373.27  4389.20  4419.57
                             4471.89  4494.00  4508.81  4512.27  4628.28
                             4648.58

 Zero-point correction=                           0.158533 (Hartree/Particle)
 Thermal correction to Energy=                    0.167414
 Thermal correction to Enthalpy=                  0.168358
 Thermal correction to Gibbs Free Energy=         0.124684
 Sum of electronic and zero-point Energies=           -423.050172
 Sum of electronic and thermal Energies=              -423.041292
 Sum of electronic and thermal Enthalpies=            -423.040348
 Sum of electronic and thermal Free Energies=         -423.084021

                     E (Thermal)             CV                S
                      KCal/Mol        Cal/Mol-Kelvin    Cal/Mol-Kelvin
 Total                  105.054             32.767             91.919
 Electronic               0.000              0.000              0.000
 Translational            0.889              2.981             40.409
 Rotational               0.889              2.981             28.991
 Vibrational            103.276             26.805             22.519
 Vibration     1          0.602              1.957              3.679
 Vibration     2          0.607              1.938              3.213
 Vibration     3          0.615              1.913              2.802
 Vibration     4          0.636              1.844              2.162
 Vibration     5          0.640              1.833              2.090
 Vibration     6          0.648              1.807              1.940
 Vibration     7          0.685              1.695              1.482
 Vibration     8          0.734              1.555              1.123
 Vibration     9          0.828              1.314              0.735
 Vibration    10          0.920              1.108              0.515
 Vibration    11          0.981              0.988              0.415

 Optimization completed.
    -- Stationary point found.
 Normal termination of Gaussian 09 at Tue Jan 28 13:57:16 2020.
