 Gaussian 09, Revision D.01,
 Gaussian 09:  ES64L-G09RevD.01 24-Apr-2013

 -----------------------------
 # b3lyp 6-31G(2df,p) opt Freq
 -----------------------------

 -----
 titel
 -----
 Symbolic Z-matrix:
 Charge =  0 Multiplicity = 1

 SCF Done:  E(RB3LYP) =  -423.158940229     A.U. after   14 cycles
 Optimization completed.
    -- Stationary point found.
 Normal termination of Gaussian 09 at Tue Jan 28 09:46:14 2020.

 ----------------------------------------------------------------------
 #N Geom=AllCheck Guess=TCheck SCRF=Check GenChk RB3LYP/6-31G(2df,p) Fr
 eq
 ----------------------------------------------------------------------

 Structure from the checkpoint file:  "/scratch/puck/g09_31e4e00e-cb34-4684-b1a1-7f26f909dbe3/Gau-132422.chk"
 -----
 titel
 -----
 Charge =  0 Multiplicity = 1

                         Standard orientation:
 ---------------------------------------------------------------------
 Center     Atomic      Atomic             Coordinates (Angstroms)
 Number     Number       Type             X           Y           Z
 ---------------------------------------------------------------------
      1          8           0       -2.299982   -1.324334   -0.009961
      2          6           0       -2.014689    0.027099   -0.357467
      3          6           0       -0.601730    0.404826   -0.036754
      4          6           0       -0.165931    0.938877    1.309817
      5          6           0        0.093174    1.763736    0.081577
      6          6           0        1.329136    1.234777   -0.661145
      7          6           0        0.635873   -0.153108   -0.795551
      8          6           0        1.254309   -1.356655   -0.141214
      9          8           0        2.267186   -1.342404    0.515482
     10          1           0       -2.137687   -1.416623    0.935199
     11          1           0       -2.196854    0.089549   -1.436424
     12          1           0       -2.708881    0.728100    0.133404
     13          1           0       -0.977002    1.290375    1.941058
     14          1           0        0.661170    0.486571    1.850907
     15          1           0       -0.342788    2.747286   -0.045854
     16          1           0        1.490361    1.708957   -1.630850
     17          1           0        2.264907    1.237228   -0.097321
     18          1           0        0.367459   -0.403377   -1.827555
     19          1           0        0.660829   -2.291487   -0.262310
 ---------------------------------------------------------------------

 SCF Done:  E(RB3LYP) =  -423.158940229     A.U. after    1 cycles

 The electronic state is 1-A.
 Alpha  occ. eigenvalues --  -19.14193 -19.13750 -10.26637 -10.23726 -10.21041
 Alpha  occ. eigenvalues --  -10.20357 -10.20200 -10.19603 -10.19131  -1.04303
 Alpha  occ. eigenvalues --   -1.02201  -0.90855  -0.75451  -0.71821  -0.67437
 Alpha  occ. eigenvalues --   -0.59464  -0.57840  -0.53248  -0.52208  -0.49354
 Alpha  occ. eigenvalues --   -0.47136  -0.46311  -0.44039  -0.43332  -0.40439
 Alpha  occ. eigenvalues --   -0.39215  -0.37597  -0.35270  -0.34277  -0.33603
 Alpha  occ. eigenvalues --   -0.29494  -0.29102  -0.26834  -0.23994
 Alpha virt. eigenvalues --   -0.01971   0.06747   0.08307   0.10308   0.11929
 Alpha virt. eigenvalues --    0.12719   0.13506   0.14040   0.15003   0.15743
 Alpha virt. eigenvalues --    0.16300   0.18942   0.19557   0.20544   0.21309

 Mulliken charges:
               1
     1  O   -0.411705
     2  C   -0.186271
     3  C    0.322151
     4  C   -0.342365
     5  C   -0.110478
     6  C   -0.254085
     7  C   -0.134280
     8  C    0.137460
     9  O   -0.254051
    10  H    0.283715
    11  H    0.110641
    12  H    0.090141
    13  H    0.112365
    14  H    0.133033
    15  H    0.093332
    16  H    0.107901
    17  H    0.124016
    18  H    0.092975
    19  H    0.085504
 Sum of Mulliken charges =   0.00000

 Dipole moment (field-independent basis, Debye):
    X=             -1.6717    Y=              1.7913    Z=             -0.3595  Tot=              2.4764
 Quadrupole moment (field-independent basis, Debye-Ang):
   XX=            -61.5021   YY=            -54.3684   ZZ=            -49.9878
   XY=             -0.0523   XZ=             -5.2407   YZ=             -0.5060

  Exact polarizability:  80.064   0.405  77.874   0.996  -0.498  69.301
 Approx polarizability: 115.992   1.478 112.771   7.644  -0.635 108.816

                      1                      2                      3
                      A                      A                      A
 Frequencies --     70.2351                89.7836               100.1565
 Red. masses --      5.0752                 4.0409                 4.0247
 Frc consts  --      0.0148                 0.0192                 0.0238
 IR Inten    --      4.4752                 5.2529                 5.1540

                      4                      5                      6
                      A                      A                      A
 Frequencies --    200.1422               241.6767               294.3827
 Red. masses --      2.6563                 3.1474                 1.7955
 Frc consts  --      0.0627                 0.1083                 0.0917
 IR Inten    --      1.0067                 6.3992                20.1436

                      7                      8                      9
                      A                      A                      A
 Frequencies --    318.2255               388.0893               429.4906
 Red. masses --      2.2029                 1.4978                 2.9553
 Frc consts  --      0.1314                 0.1329                 0.3212
 IR Inten    --     18.3862                86.4898                 5.8474

                     10                     11                     12
                      A                      A                      A
 Frequencies --    444.9004               641.1048               673.9760
 Red. masses --      2.1522                 3.2452                 3.5995
 Frc consts  --      0.2510                 0.7859                 0.9633
 IR Inten    --      1.2927                20.1065                 1.3180

                     13                     14                     15
                      A                      A                      A
 Frequencies --    720.7503               807.0833               852.6694
 Red. masses --      2.9614                 2.4607                 2.3087
 Frc consts  --      0.9064                 0.9444                 0.9890
 IR Inten    --      2.0212                16.9009                 5.1614

                     16                     17                     18
                      A                      A                      A
 Frequencies --    901.5469               925.6951               951.8828
 Red. masses --      2.2377                 1.8872                 1.4719
 Frc consts  --      1.0716                 0.9528                 0.7858
 IR Inten    --      8.0604                 3.2571                 7.2699

                     19                     20                     21
                      A                      A                      A
 Frequencies --    960.0746              1007.0105              1023.1350
 Red. masses --      1.7442                 1.6330                 2.1854
 Frc consts  --      0.9473                 0.9757                 1.3479
 IR Inten    --      2.8444                 1.9314                24.4211

                     22                     23                     24
                      A                      A                      A
 Frequencies --   1034.9657              1057.6779              1086.5912
 Red. masses --      1.2923                 3.2120                 1.8423
 Frc consts  --      0.8156                 2.1171                 1.2815
 IR Inten    --      2.5791                72.6414                 7.0473

                     25                     26                     27
                      A                      A                      A
 Frequencies --   1095.5801              1106.6809              1151.1210
 Red. masses --      1.4149                 2.2100                 1.4750
 Frc consts  --      1.0006                 1.5947                 1.1515
 IR Inten    --      5.2010                 9.1782                 0.2879

                     28                     29                     30
                      A                      A                      A
 Frequencies --   1174.9336              1202.7967              1256.7535
 Red. masses --      1.4142                 1.4720                 1.4913
 Frc consts  --      1.1502                 1.2547                 1.3878
 IR Inten    --     15.8344                 3.9232                 2.6202

                     31                     32                     33
                      A                      A                      A
 Frequencies --   1262.5855              1292.4131              1347.0756
 Red. masses --      1.6851                 2.0035                 1.8195
 Frc consts  --      1.5827                 1.9717                 1.9453
 IR Inten    --      8.8794                 7.7240                 9.2094

                     34                     35                     36
                      A                      A                      A
 Frequencies --   1360.5332              1398.5786              1415.7376
 Red. masses --      1.3779                 1.6148                 1.2040
 Frc consts  --      1.5027                 1.8610                 1.4218
 IR Inten    --      1.1607                 6.5253                 5.2365

                     37                     38                     39
                      A                      A                      A
 Frequencies --   1429.8406              1480.3253              1496.5642
 Red. masses --      1.5052                 1.1500                 1.2037
 Frc consts  --      1.8132                 1.4848                 1.5884
 IR Inten    --     57.9833                 2.9387                 3.2428

                     40                     41                     42
                      A                      A                      A
 Frequencies --   1504.1476              1815.7136              2875.9115
 Red. masses --      1.1427                10.1116                 1.0829
 Frc consts  --      1.5232                19.6410                 5.2768
 IR Inten    --      1.1069               146.8138               102.1448

                     43                     44                     45
                      A                      A                      A
 Frequencies --   2976.4707              3054.5097              3061.3060
 Red. masses --      1.0693                 1.0846                 1.0923
 Frc consts  --      5.5813                 5.9619                 6.0312
 IR Inten    --     56.2105                 9.6317                35.6330

                     46                     47                     48
                      A                      A                      A
 Frequencies --   3072.3541              3111.9570              3126.4261
 Red. masses --      1.0589                 1.0544                 1.1081
 Frc consts  --      5.8888                 6.0162                 6.3813
 IR Inten    --     29.4989                10.4458                12.5021

                     49                     50                     51
                      A                      A                      A
 Frequencies --   3182.8189              3199.2991              3806.0952
 Red. masses --      1.0951                 1.1135                 1.0660
 Frc consts  --      6.5365                 6.7154                 9.0986
 IR Inten    --     12.2745                10.2497                14.9192

 - Thermochemistry -
 -------------------
 Temperature   298.150 Kelvin.  Pressure   1.00000 Atm.
 Atom     1 has atomic number  8 and mass  15.99491

 Molecular mass:   126.06808 amu.
 Principal axes and moments of inertia in atomic units:
                           1         2         3
     Eigenvalues --   803.919711240.963661645.95589
           X            0.99968   0.02091  -0.01404
           Y           -0.02087   0.99978   0.00262
           Z            0.01409  -0.00233   0.99990
 This molecule is an asymmetric top.
 Rotational symmetry number  1.
 Warning -- assumption of classical behavior for rotation
           may cause significant error
 Rotational temperatures (Kelvin)      0.10774     0.06980     0.05262
 Rotational constants (GHZ):           2.24493     1.45431     1.09647
 Zero-point vibrational energy     415581.3 (Joules/Mol)
                                   99.32632 (Kcal/Mol)
 Warning -- explicit consideration of  10 degrees of freedom as
           vibrations may cause significant error
 Vibrational temperatures:    101.05   129.18   144.10   287.96   347.72
          (Kelvin)            423.55   457.85   558.37   617.94   640.11
                              922.41   969.70  1037.00  1161.21  1226.80
                             1297.12  1331.87  1369.55  1381.33  1448.86
                             1472.06  1489.08  1521.76  1563.36  1576.29
                             1592.27  1656.20  1690.47  1730.55  1808.19
                             1816.58  1859.49  1938.14  1957.50  2012.24
                             2036.93  2057.22  2129.86  2153.22  2164.13
                             2612.40  4137.79  4282.47  4394.75  4404.53
                             4420.43  4477.41  4498.22  4579.36  4603.07
                             5476.12

 Zero-point correction=                           0.158287 (Hartree/Particle)
 Thermal correction to Energy=                    0.167210
 Thermal correction to Enthalpy=                  0.168154
 Thermal correction to Gibbs Free Energy=         0.124121
 Sum of electronic and zero-point Energies=           -423.000654
 Sum of electronic and thermal Energies=              -422.991731
 Sum of electronic and thermal Enthalpies=            -422.990786
 Sum of electronic and thermal Free Energies=         -423.034820

                     E (Thermal)             CV                S
                      KCal/Mol        Cal/Mol-Kelvin    Cal/Mol-Kelvin
 Total                  104.926             32.880             92.676
 Electronic               0.000              0.000              0.000
 Translational            0.889              2.981             40.409
 Rotational               0.889              2.981             28.886
 Vibrational            103.148             26.919             23.381
 Vibration     1          0.598              1.968              4.147
 Vibration     2          0.602              1.956              3.665
 Vibration     3          0.604              1.949              3.451
 Vibration     4          0.638              1.840              2.132
 Vibration     5          0.658              1.776              1.791
 Vibration     6          0.689              1.684              1.449
 Vibration     7          0.705              1.639              1.319
 Vibration     8          0.756              1.496              1.007
 Vibration     9          0.791              1.406              0.860
 Vibration    10          0.804              1.372              0.811

 Normal termination of Gaussian 09 at Tue Jan 28 10:30:33 2020.
