 Gaussian 09, Revision D.01,
 Gaussian 09:  ES64L-G09RevD.01 24-Apr-2013

 -----------------------------
 # b3lyp 6-31G(2df,p) opt Freq
 -----------------------------

 -----
 titel
 -----
 Symbolic Z-matrix:
 Charge =  0 Multiplicity = 1

 SCF Done:  E(RB3LYP) =  -423.196215844     A.U. after   13 cycles
 Optimization completed.
    -- Stationary point found.
 Normal termination of Gaussian 09 at Mon Jan 27 12:25:49 2020.

 ----------------------------------------------------------------------
 #N Geom=AllCheck Guess=TCheck SCRF=Check GenChk RB3LYP/6-31G(2df,p) Fr
 eq
 ----------------------------------------------------------------------

 Structure from the checkpoint file:  "/scratch/puck/g09_57c69f4d-f22e-4745-bc8a-0a07ab888953/Gau-133970.chk"
 -----
 titel
 -----
 Charge =  0 Multiplicity = 1

                         Standard orientation:
 ---------------------------------------------------------------------
 Center     Atomic      Atomic             Coordinates (Angstroms)
 Number     Number       Type             X           Y           Z
 ---------------------------------------------------------------------
      1          6           0        1.150556    0.418460    1.158827
      2          8           0        0.454826   -0.816185    1.292034
      3          6           0       -0.104804   -1.311429    0.087549
      4          6           0       -1.559598   -0.828038   -0.079494
      5          6           0       -1.759934    0.661354   -0.015381
      6          6           0       -0.781879    1.564613    0.001042
      7          6           0        0.685076    1.197796   -0.082092
      8          6           0        0.989846    0.308092   -1.300863
      9          8           0        0.715125   -1.067699   -1.026794
     10          1           0        0.969848    0.988122    2.076139
     11          1           0        2.232229    0.228065    1.081579
     12          1           0       -0.112739   -2.401265    0.190254
     13          1           0       -1.953450   -1.235553   -1.021621
     14          1           0       -2.148190   -1.299134    0.719090
     15          1           0       -2.793666    0.996703    0.034297
     16          1           0       -1.027117    2.620856    0.069116
     17          1           0        1.285277    2.109675   -0.162058
     18          1           0        0.415920    0.636696   -2.176908
     19          1           0        2.056700    0.361815   -1.549337
 ---------------------------------------------------------------------

 SCF Done:  E(RB3LYP) =  -423.196215844     A.U. after    1 cycles

 The electronic state is 1-A.
 Alpha  occ. eigenvalues --  -19.14026 -19.13380 -10.27459 -10.23083 -10.23004
 Alpha  occ. eigenvalues --  -10.19726 -10.18526 -10.18438 -10.18169  -1.06595
 Alpha  occ. eigenvalues --   -0.99606  -0.81726  -0.79120  -0.68796  -0.67616
 Alpha  occ. eigenvalues --   -0.66784  -0.54737  -0.53635  -0.51537  -0.50356
 Alpha  occ. eigenvalues --   -0.46850  -0.43746  -0.43330  -0.42189  -0.41375
 Alpha  occ. eigenvalues --   -0.40489  -0.38718  -0.36914  -0.33269  -0.32353
 Alpha  occ. eigenvalues --   -0.31710  -0.25637  -0.24828  -0.24238
 Alpha virt. eigenvalues --    0.01739   0.07730   0.11695   0.12229   0.12755
 Alpha virt. eigenvalues --    0.14296   0.14497   0.16039   0.16557   0.16705
 Alpha virt. eigenvalues --    0.17555   0.18599   0.19160   0.21099   0.23589

 Mulliken charges:
               1
     1  C   -0.051863
     2  O   -0.267622
     3  C    0.189250
     4  C   -0.282288
     5  C   -0.035012
     6  C   -0.077723
     7  C   -0.123934
     8  C   -0.065938
     9  O   -0.262998
    10  H    0.106404
    11  H    0.094393
    12  H    0.090711
    13  H    0.112948
    14  H    0.116135
    15  H    0.089481
    16  H    0.086542
    17  H    0.076352
    18  H    0.099853
    19  H    0.105308
 Sum of Mulliken charges =   0.00000

 Dipole moment (field-independent basis, Debye):
    X=             -0.4019    Y=              1.6330    Z=             -0.4014  Tot=              1.7290
 Quadrupole moment (field-independent basis, Debye-Ang):
   XX=            -50.3730   YY=            -51.7021   ZZ=            -56.0372
   XY=              3.5510   XZ=              0.1448   YZ=              0.0228

  Exact polarizability:  82.586   7.433  78.804   0.019   0.372  63.438
 Approx polarizability: 118.873  15.796 118.401  -0.466   0.462  95.307

                      1                      2                      3
                      A                      A                      A
 Frequencies --     89.1764               240.7426               257.3132
 Red. masses --      2.8033                 3.2026                 2.4142
 Frc consts  --      0.0131                 0.1094                 0.0942
 IR Inten    --      2.2953                 5.6549                 0.7941

                      4                      5                      6
                      A                      A                      A
 Frequencies --    330.4497               358.3709               439.5201
 Red. masses --      3.1716                 3.0824                 2.4269
 Frc consts  --      0.2040                 0.2332                 0.2762
 IR Inten    --      0.5255                 1.6202                 2.3993

                      7                      8                      9
                      A                      A                      A
 Frequencies --    508.9823               562.9468               567.9508
 Red. masses --      4.7255                 3.0762                 6.3388
 Frc consts  --      0.7213                 0.5744                 1.2047
 IR Inten    --      2.6765                 0.2531                 0.9711

                     10                     11                     12
                      A                      A                      A
 Frequencies --    722.9323               773.6708               804.6018
 Red. masses --      1.5448                 5.5113                 3.1102
 Frc consts  --      0.4757                 1.9437                 1.1863
 IR Inten    --     19.9526                 1.7992                 0.9069

                     13                     14                     15
                      A                      A                      A
 Frequencies --    853.1062               864.6251               906.2000
 Red. masses --      2.7832                 3.2776                 4.4653
 Frc consts  --      1.1934                 1.4436                 2.1605
 IR Inten    --     33.5783                14.4562                12.1422

                     16                     17                     18
                      A                      A                      A
 Frequencies --    941.8188               964.7793               985.6224
 Red. masses --      2.0603                 2.0273                 2.3820
 Frc consts  --      1.0767                 1.1118                 1.3634
 IR Inten    --     17.9656                 7.9560                13.8471

                     19                     20                     21
                      A                      A                      A
 Frequencies --    992.9872              1005.9500              1039.2000
 Red. masses --      1.5719                 1.7412                 2.3721
 Frc consts  --      0.9132                 1.0381                 1.5093
 IR Inten    --      8.3590                 1.9729                43.8497

                     22                     23                     24
                      A                      A                      A
 Frequencies --   1043.4692              1108.6984              1119.8479
 Red. masses --      2.5182                 3.0194                 1.8677
 Frc consts  --      1.6155                 2.1868                 1.3800
 IR Inten    --     24.6376                24.0101                14.5657

                     25                     26                     27
                      A                      A                      A
 Frequencies --   1187.3642              1218.9678              1238.1065
 Red. masses --      4.0593                 1.1039                 1.2000
 Frc consts  --      3.3719                 0.9665                 1.0838
 IR Inten    --    131.9102                 6.1300                20.3935

                     28                     29                     30
                      A                      A                      A
 Frequencies --   1243.5439              1259.5185              1302.4445
 Red. masses --      1.2086                 1.1265                 1.5448
 Frc consts  --      1.1012                 1.0529                 1.5440
 IR Inten    --     13.3417                16.1571                11.4312

                     31                     32                     33
                      A                      A                      A
 Frequencies --   1349.6905              1362.7217              1378.2341
 Red. masses --      1.4819                 1.4596                 1.2381
 Frc consts  --      1.5905                 1.5970                 1.3857
 IR Inten    --      8.4233                 1.3353                 2.6586

                     34                     35                     36
                      A                      A                      A
 Frequencies --   1384.8047              1415.0825              1419.9850
 Red. masses --      1.3950                 1.3355                 1.3270
 Frc consts  --      1.5761                 1.5756                 1.5765
 IR Inten    --      2.7785                 6.9507                 9.2892

                     37                     38                     39
                      A                      A                      A
 Frequencies --   1430.3978              1461.1418              1511.2719
 Red. masses --      1.4203                 1.0973                 1.0878
 Frc consts  --      1.7121                 1.3803                 1.4638
 IR Inten    --      4.5356                 3.3994                 1.9900

                     40                     41                     42
                      A                      A                      A
 Frequencies --   1520.4314              1727.7374              2983.2758
 Red. masses --      1.0924                 6.6424                 1.0689
 Frc consts  --      1.4878                11.6823                 5.6051
 IR Inten    --      0.4326                 2.4858                73.1852

                     43                     44                     45
                      A                      A                      A
 Frequencies --   3008.2784              3011.4189              3039.3369
 Red. masses --      1.0613                 1.0580                 1.0992
 Frc consts  --      5.6587                 5.6531                 5.9823
 IR Inten    --     23.8470                59.8713                16.5697

                     46                     47                     48
                      A                      A                      A
 Frequencies --   3049.6844              3059.9077              3062.0163
 Red. masses --      1.1027                 1.0887                 1.0914
 Frc consts  --      6.0423                 6.0059                 6.0288
 IR Inten    --     22.0105                80.1380                35.2506

                     49                     50                     51
                      A                      A                      A
 Frequencies --   3067.6042              3143.1979              3169.8236
 Red. masses --      1.0932                 1.0839                 1.0965
 Frc consts  --      6.0609                 6.3094                 6.4913
 IR Inten    --     27.3382                 8.1051                30.5366

 - Thermochemistry -
 -------------------
 Temperature   298.150 Kelvin.  Pressure   1.00000 Atm.
 Atom     1 has atomic number  6 and mass  12.00000

 Molecular mass:   126.06808 amu.
 Principal axes and moments of inertia in atomic units:
                           1         2         3
     Eigenvalues --   816.14649 873.243051013.81212
           X            0.94034   0.34014   0.00761
           Y           -0.34017   0.94036   0.00285
           Z           -0.00619  -0.00527   0.99997
 This molecule is an asymmetric top.
 Rotational symmetry number  1.
 Warning -- assumption of classical behavior for rotation
           may cause significant error
 Rotational temperatures (Kelvin)      0.10613     0.09919     0.08543
 Rotational constants (GHZ):           2.21130     2.06671     1.78015
 Zero-point vibrational energy     427598.9 (Joules/Mol)
                                  102.19858 (Kcal/Mol)
 Warning -- explicit consideration of   9 degrees of freedom as
           vibrations may cause significant error
 Vibrational temperatures:    128.30   346.37   370.22   475.44   515.62
          (Kelvin)            632.37   732.31   809.95   817.15  1040.14
                             1113.14  1157.64  1227.43  1244.00  1303.82
                             1355.07  1388.10  1418.09  1428.69  1447.34
                             1495.18  1501.32  1595.17  1611.21  1708.35
                             1753.82  1781.36  1789.18  1812.16  1873.92
                             1941.90  1960.65  1982.97  1992.42  2035.99
                             2043.04  2058.02  2102.25  2174.38  2187.56
                             2485.83  4292.26  4328.24  4332.75  4372.92
                             4387.81  4402.52  4405.55  4413.59  4522.36
                             4560.66

 Zero-point correction=                           0.162864 (Hartree/Particle)
 Thermal correction to Energy=                    0.169928
 Thermal correction to Enthalpy=                  0.170872
 Thermal correction to Gibbs Free Energy=         0.131502
 Sum of electronic and zero-point Energies=           -423.033352
 Sum of electronic and thermal Energies=              -423.026288
 Sum of electronic and thermal Enthalpies=            -423.025344
 Sum of electronic and thermal Free Energies=         -423.064714

                     E (Thermal)             CV                S
                      KCal/Mol        Cal/Mol-Kelvin    Cal/Mol-Kelvin
 Total                  106.631             28.504             82.862
 Electronic               0.000              0.000              0.000
 Translational            0.889              2.981             40.409
 Rotational               0.889              2.981             28.071
 Vibrational            104.854             22.543             14.383
 Vibration     1          0.602              1.957              3.678
 Vibration     2          0.658              1.778              1.797
 Vibration     3          0.667              1.750              1.680
 Vibration     4          0.713              1.615              1.258
 Vibration     5          0.733              1.558              1.129
 Vibration     6          0.800              1.384              0.828
 Vibration     7          0.864              1.230              0.636
 Vibration     8          0.919              1.111              0.518
 Vibration     9          0.924              1.101              0.508

 Normal termination of Gaussian 09 at Mon Jan 27 13:38:11 2020.
