 Gaussian 09, Revision D.01,
 Gaussian 09:  ES64L-G09RevD.01 24-Apr-2013

 -----------------------------
 # b3lyp 6-31G(2df,p) opt Freq
 -----------------------------

 -----
 titel
 -----
 Symbolic Z-matrix:
 Charge =  0 Multiplicity = 1

 SCF Done:  E(RB3LYP) =  -423.121271174     A.U. after   14 cycles
 Optimization completed.
    -- Stationary point found.
 Normal termination of Gaussian 09 at Mon Jan 27 14:11:02 2020.

 ----------------------------------------------------------------------
 #N Geom=AllCheck Guess=TCheck SCRF=Check GenChk RB3LYP/6-31G(2df,p) Fr
 eq
 ----------------------------------------------------------------------

 Structure from the checkpoint file:  "/scratch/puck/g09_f5c9f4ed-014f-4ee9-a97f-f249a67b2ca5/Gau-64273.chk"
 -----
 titel
 -----
 Charge =  0 Multiplicity = 1

                         Standard orientation:
 ---------------------------------------------------------------------
 Center     Atomic      Atomic             Coordinates (Angstroms)
 Number     Number       Type             X           Y           Z
 ---------------------------------------------------------------------
      1          6           0        1.262631    2.106400    0.298142
      2          6           0        0.915413    0.606057    0.350635
      3          6           0        2.033335   -0.220999   -0.116562
      4          6           0        2.931516   -0.915442   -0.515561
      5          6           0       -0.347006    0.286499   -0.444655
      6          6           0       -1.688641    0.178440    0.257788
      7          8           0       -2.854917    0.574125   -0.397419
      8          6           0       -1.024801   -1.057445   -0.251858
      9          8           0       -0.515384   -1.945037    0.697529
     10          1           0        0.428980    2.697443    0.689213
     11          1           0        2.152713    2.323131    0.894536
     12          1           0        1.457873    2.423552   -0.730587
     13          1           0        0.728699    0.332512    1.396263
     14          1           0        3.735849   -1.516218   -0.862247
     15          1           0       -0.367740    0.679276   -1.457852
     16          1           0       -1.680724    0.304545    1.341539
     17          1           0       -2.877478    1.536721   -0.411746
     18          1           0       -1.477555   -1.509768   -1.133488
     19          1           0        0.367120   -2.204968    0.405910
 ---------------------------------------------------------------------

 SCF Done:  E(RB3LYP) =  -423.121271174     A.U. after    1 cycles

 The electronic state is 1-A.
 Alpha  occ. eigenvalues --  -19.14606 -19.14090 -10.23471 -10.23116 -10.22077
 Alpha  occ. eigenvalues --  -10.19311 -10.18760 -10.18687 -10.17742  -1.03603
 Alpha  occ. eigenvalues --   -1.02139  -0.85257  -0.79455  -0.72994  -0.65672
 Alpha  occ. eigenvalues --   -0.59717  -0.59176  -0.54609  -0.52346  -0.50613
 Alpha  occ. eigenvalues --   -0.46997  -0.45495  -0.44146  -0.41941  -0.39606
 Alpha  occ. eigenvalues --   -0.39167  -0.37480  -0.35929  -0.33175  -0.29907
 Alpha  occ. eigenvalues --   -0.28008  -0.27121  -0.26311  -0.24506
 Alpha virt. eigenvalues --    0.04692   0.04941   0.07365   0.08795   0.10683
 Alpha virt. eigenvalues --    0.11662   0.12556   0.14215   0.14352   0.16197
 Alpha virt. eigenvalues --    0.17189   0.17720   0.18366   0.21535   0.22589

 Mulliken charges:
               1
     1  C   -0.397120
     2  C   -0.173546
     3  C    0.329500
     4  C   -0.484164
     5  C   -0.102605
     6  C    0.052035
     7  O   -0.425342
     8  C    0.075413
     9  O   -0.427739
    10  H    0.114293
    11  H    0.127327
    12  H    0.126785
    13  H    0.118833
    14  H    0.199139
    15  H    0.093969
    16  H    0.095025
    17  H    0.286529
    18  H    0.097507
    19  H    0.294161
 Sum of Mulliken charges =   0.00000

 Dipole moment (field-independent basis, Debye):
    X=              1.3558    Y=              1.8187    Z=             -0.5049  Tot=              2.3239
 Quadrupole moment (field-independent basis, Debye-Ang):
   XX=            -55.4342   YY=            -49.5219   ZZ=            -53.4171
   XY=             -7.2875   XZ=             -0.7284   YZ=              2.7761

  Exact polarizability:  92.915 -10.331  79.212  -4.110   3.792  60.885
 Approx polarizability: 128.429 -20.764 114.575 -10.612   6.437  95.736

                      1                      2                      3
                      A                      A                      A
 Frequencies --     51.5595               100.7995               175.1959
 Red. masses --      4.3253                 4.6990                 3.8008
 Frc consts  --      0.0068                 0.0281                 0.0687
 IR Inten    --      2.3540                 0.3696                 1.4662

                      4                      5                      6
                      A                      A                      A
 Frequencies --    183.4964               232.2156               244.3278
 Red. masses --      3.2986                 1.1782                 2.6247
 Frc consts  --      0.0654                 0.0374                 0.0923
 IR Inten    --      1.3941                 2.2149                15.3794

                      7                      8                      9
                      A                      A                      A
 Frequencies --    297.8886               306.0354               321.9491
 Red. masses --      1.7447                 2.5679                 2.5848
 Frc consts  --      0.0912                 0.1417                 0.1579
 IR Inten    --     29.3032                18.7860                23.5605

                     10                     11                     12
                      A                      A                      A
 Frequencies --    364.3147               393.5293               463.0898
 Red. masses --      2.2595                 1.3817                 3.4925
 Frc consts  --      0.1767                 0.1261                 0.4413
 IR Inten    --     50.3082               105.2908                29.2390

                     13                     14                     15
                      A                      A                      A
 Frequencies --    503.3128               534.4406               625.4449
 Red. masses --      4.1092                 4.0696                 1.2587
 Frc consts  --      0.6133                 0.6849                 0.2901
 IR Inten    --      7.2346                 2.2095                41.8640

                     16                     17                     18
                      A                      A                      A
 Frequencies --    643.0554               653.3498               796.6086
 Red. masses --      1.2441                 3.6648                 2.7911
 Frc consts  --      0.3031                 0.9217                 1.0435
 IR Inten    --     44.7050                 2.8332                 3.2499

                     19                     20                     21
                      A                      A                      A
 Frequencies --    865.6967               902.9297               930.0054
 Red. masses --      2.3992                 2.5587                 2.4970
 Frc consts  --      1.0594                 1.2291                 1.2724
 IR Inten    --      2.3211                 6.8489                10.1209

                     22                     23                     24
                      A                      A                      A
 Frequencies --    990.5147              1025.8230              1079.5495
 Red. masses --      1.5259                 1.4732                 2.7955
 Frc consts  --      0.8821                 0.9134                 1.9195
 IR Inten    --      9.5745                18.3115                 6.5769

                     25                     26                     27
                      A                      A                      A
 Frequencies --   1083.5277              1100.3042              1137.2281
 Red. masses --      1.3264                 1.7338                 2.7396
 Frc consts  --      0.9175                 1.2367                 2.0875
 IR Inten    --      2.9894                38.4921                51.6921

                     28                     29                     30
                      A                      A                      A
 Frequencies --   1171.1440              1180.9173              1217.4329
 Red. masses --      3.1006                 2.1281                 1.6919
 Frc consts  --      2.5057                 1.7485                 1.4774
 IR Inten    --     31.9550                40.4438                34.9474

                     31                     32                     33
                      A                      A                      A
 Frequencies --   1262.5504              1289.0935              1321.9666
 Red. masses --      1.3021                 1.1758                 1.3834
 Frc consts  --      1.2229                 1.1512                 1.4244
 IR Inten    --      1.1460                88.4346                 3.8974

                     34                     35                     36
                      A                      A                      A
 Frequencies --   1325.3420              1365.0188              1385.4719
 Red. masses --      1.2291                 1.3332                 1.4389
 Frc consts  --      1.2721                 1.4636                 1.6273
 IR Inten    --     64.9564                 5.4348                 9.1437

                     37                     38                     39
                      A                      A                      A
 Frequencies --   1406.2378              1489.5764              1491.2129
 Red. masses --      1.2218                 2.3054                 1.0865
 Frc consts  --      1.4235                 3.0139                 1.4235
 IR Inten    --      1.1190                 5.0110                 4.2655

                     40                     41                     42
                      A                      A                      A
 Frequencies --   1499.3261              2225.6634              3033.6400
 Red. masses --      1.0557                 5.9391                 1.0808
 Frc consts  --      1.3983                17.3335                 5.8605
 IR Inten    --      1.6179                 2.2952                 3.1698

                     43                     44                     45
                      A                      A                      A
 Frequencies --   3040.9419              3094.3177              3112.3074
 Red. masses --      1.0348                 1.0878                 1.0871
 Frc consts  --      5.6378                 6.1363                 6.2043
 IR Inten    --     22.8504                16.8837                27.1813

                     46                     47                     48
                      A                      A                      A
 Frequencies --   3114.8607              3121.1556              3149.0101
 Red. masses --      1.1023                 1.1024                 1.0880
 Frc consts  --      6.3011                 6.3275                 6.3567
 IR Inten    --     22.8192                19.8227                14.7336

                     49                     50                     51
                      A                      A                      A
 Frequencies --   3501.3684              3777.6959              3805.5045
 Red. masses --      1.1612                 1.0661                 1.0662
 Frc consts  --      8.3872                 8.9641                 9.0970
 IR Inten    --     70.3327                36.8950                20.3696

 - Thermochemistry -
 -------------------
 Temperature   298.150 Kelvin.  Pressure   1.00000 Atm.
 Atom     1 has atomic number  6 and mass  12.00000

 Molecular mass:   126.06808 amu.
 Principal axes and moments of inertia in atomic units:
                           1         2         3
     Eigenvalues --   750.550501536.277392071.30231
           X            1.00000   0.00268   0.00071
           Y           -0.00270   0.99972   0.02343
           Z           -0.00064  -0.02344   0.99973
 This molecule is an asymmetric top.
 Rotational symmetry number  1.
 Warning -- assumption of classical behavior for rotation
           may cause significant error
 Rotational temperatures (Kelvin)      0.11540     0.05638     0.04182
 Rotational constants (GHZ):           2.40456     1.17475     0.87131
 Zero-point vibrational energy     409050.8 (Joules/Mol)
                                   97.76548 (Kcal/Mol)
 Warning -- explicit consideration of  14 degrees of freedom as
           vibrations may cause significant error
 Vibrational temperatures:     74.18   145.03   252.07   264.01   334.11
          (Kelvin)            351.53   428.59   440.32   463.21   524.17
                              566.20   666.28   724.15   768.94   899.87
                              925.21   940.02  1146.14  1245.54  1299.11
                             1338.07  1425.13  1475.93  1553.23  1558.95
                             1583.09  1636.22  1685.01  1699.07  1751.61
                             1816.53  1854.72  1902.01  1906.87  1963.96
                             1993.38  2023.26  2143.17  2145.52  2157.19
                             3202.23  4364.73  4375.23  4452.03  4477.91
                             4481.58  4490.64  4530.72  5037.68  5435.26
                             5475.27

 Zero-point correction=                           0.155799 (Hartree/Particle)
 Thermal correction to Energy=                    0.165923
 Thermal correction to Enthalpy=                  0.166867
 Thermal correction to Gibbs Free Energy=         0.120823
 Sum of electronic and zero-point Energies=           -422.965472
 Sum of electronic and thermal Energies=              -422.955348
 Sum of electronic and thermal Enthalpies=            -422.954404
 Sum of electronic and thermal Free Energies=         -423.000448

                     E (Thermal)             CV                S
                      KCal/Mol        Cal/Mol-Kelvin    Cal/Mol-Kelvin
 Total                  104.118             37.598             96.908
 Electronic               0.000              0.000              0.000
 Translational            0.889              2.981             40.409
 Rotational               0.889              2.981             29.259
 Vibrational            102.341             31.637             27.241
 Vibration     1          0.596              1.977              4.757
 Vibration     2          0.604              1.948              3.439
 Vibration     3          0.627              1.873              2.379
 Vibration     4          0.631              1.862              2.293
 Vibration     5          0.653              1.792              1.862
 Vibration     6          0.660              1.772              1.771
 Vibration     7          0.691              1.678              1.429
 Vibration     8          0.696              1.662              1.384
 Vibration     9          0.707              1.631              1.300
 Vibration    10          0.738              1.546              1.104
 Vibration    11          0.761              1.484              0.987
 Vibration    12          0.821              1.332              0.757
 Vibration    13          0.859              1.243              0.650
 Vibration    14          0.889              1.174              0.577

 Normal termination of Gaussian 09 at Mon Jan 27 15:03:48 2020.
