 Gaussian 09, Revision D.01,
 Gaussian 09:  ES64L-G09RevD.01 24-Apr-2013

 -----------------------------
 # b3lyp 6-31G(2df,p) opt Freq
 -----------------------------

 -----
 titel
 -----
 Symbolic Z-matrix:
 Charge =  0 Multiplicity = 1

 SCF Done:  E(RB3LYP) =  -423.153828422     A.U. after   15 cycles
 Optimization completed.
    -- Stationary point found.
 Normal termination of Gaussian 09 at Tue Jan 28 14:29:30 2020.

 ----------------------------------------------------------------------
 #N Geom=AllCheck Guess=TCheck SCRF=Check GenChk RB3LYP/6-31G(2df,p) Fr
 eq
 ----------------------------------------------------------------------

 Structure from the checkpoint file:  "/scratch/puck/g09_9dd19ce5-f3d1-4033-a7d9-69ff3cb27ca7/Gau-11971.chk"
 -----
 titel
 -----
 Charge =  0 Multiplicity = 1

                         Standard orientation:
 ---------------------------------------------------------------------
 Center     Atomic      Atomic             Coordinates (Angstroms)
 Number     Number       Type             X           Y           Z
 ---------------------------------------------------------------------
      1          6           0       -3.506918   -1.165220   -0.000338
      2          6           0       -2.794496    0.175437    0.000425
      3          8           0       -1.395672   -0.055071   -0.000299
      4          6           0       -0.634235    1.124377    0.000234
      5          6           0        0.864581    0.820873   -0.000113
      6          8           0        1.659467    1.724592   -0.000389
      7          6           0        1.251116   -0.661566    0.000190
      8          6           0        2.682219   -0.903856    0.000094
      9          6           0        3.864621   -1.111880    0.000029
     10          1           0       -3.235328   -1.745908    0.885682
     11          1           0       -4.590805   -1.017938    0.000321
     12          1           0       -3.236209   -1.744459   -0.887575
     13          1           0       -3.076194    0.768198   -0.885399
     14          1           0       -3.075497    0.766814    0.887398
     15          1           0       -0.846607    1.748287   -0.883986
     16          1           0       -0.846355    1.747264    0.885253
     17          1           0        0.762203   -1.128166    0.865408
     18          1           0        0.762015   -1.128530   -0.864721
     19          1           0        4.911092   -1.290729   -0.000012
 ---------------------------------------------------------------------

 SCF Done:  E(RB3LYP) =  -423.153828422     A.U. after    1 cycles

 The electronic state is 1-A.
 Alpha  occ. eigenvalues --  -19.15841 -19.13533 -10.27935 -10.24548 -10.24311
 Alpha  occ. eigenvalues --  -10.21482 -10.18706 -10.17888 -10.16844  -1.05740
 Alpha  occ. eigenvalues --   -1.04464  -0.79891  -0.77521  -0.72133  -0.69498
 Alpha  occ. eigenvalues --   -0.62187  -0.56245  -0.51883  -0.50910  -0.50437
 Alpha  occ. eigenvalues --   -0.48274  -0.46303  -0.44411  -0.43095  -0.42441
 Alpha  occ. eigenvalues --   -0.39515  -0.39127  -0.37589  -0.35363  -0.33908
 Alpha  occ. eigenvalues --   -0.27381  -0.27113  -0.26213  -0.24792
 Alpha virt. eigenvalues --   -0.01755   0.05495   0.05809   0.07490   0.10873
 Alpha virt. eigenvalues --    0.12300   0.12777   0.13553   0.13959   0.16068
 Alpha virt. eigenvalues --    0.16809   0.17049   0.18540   0.19415   0.20319

 Mulliken charges:
               1
     1  C   -0.388118
     2  C   -0.030416
     3  O   -0.242101
     4  C   -0.162167
     5  C    0.343811
     6  O   -0.279424
     7  C   -0.476290
     8  C    0.311856
     9  C   -0.415862
    10  H    0.129715
    11  H    0.121340
    12  H    0.129719
    13  H    0.094223
    14  H    0.094218
    15  H    0.124739
    16  H    0.124725
    17  H    0.162001
    18  H    0.162029
    19  H    0.196002
 Sum of Mulliken charges =   0.00000

 Dipole moment (field-independent basis, Debye):
    X=             -3.1913    Y=             -0.9549    Z=              0.0016  Tot=              3.3311
 Quadrupole moment (field-independent basis, Debye-Ang):
   XX=            -49.0933   YY=            -56.6786   ZZ=            -52.3500
   XY=             -5.5194   XZ=             -0.0004   YZ=              0.0012

  Exact polarizability: 111.215  -3.636  72.101  -0.003  -0.001  55.986
 Approx polarizability: 147.897  -1.871 104.241  -0.008  -0.003  85.156

                      1                      2                      3
                      A                      A                      A
 Frequencies --     29.4575                49.3482                82.8031
 Red. masses --      2.2805                 2.4379                 3.6086
 Frc consts  --      0.0012                 0.0035                 0.0146
 IR Inten    --      7.3476                 0.0101                 0.3798

                      4                      5                      6
                      A                      A                      A
 Frequencies --     87.5266               120.0766               157.5731
 Red. masses --      3.9823                 2.2129                 4.7920
 Frc consts  --      0.0180                 0.0188                 0.0701
 IR Inten    --      0.5187                 3.3552                 2.5091

                      7                      8                      9
                      A                      A                      A
 Frequencies --    245.1023               269.5743               328.8759
 Red. masses --      1.1507                 4.3368                 2.6164
 Frc consts  --      0.0407                 0.1857                 0.1667
 IR Inten    --      0.3699                 2.7103                 4.5326

                     10                     11                     12
                      A                      A                      A
 Frequencies --    368.1878               397.7851               467.9582
 Red. masses --      4.6283                 7.0692                 2.4884
 Frc consts  --      0.3697                 0.6591                 0.3211
 IR Inten    --      5.7141                 2.1523                 2.0936

                     13                     14                     15
                      A                      A                      A
 Frequencies --    507.5275               625.5739               628.7136
 Red. masses --      4.3884                 1.2048                 4.2708
 Frc consts  --      0.6660                 0.2778                 0.9946
 IR Inten    --      0.1227                44.1260                16.3697

                     16                     17                     18
                      A                      A                      A
 Frequencies --    644.5105               815.3179               818.5159
 Red. masses --      1.2435                 1.3027                 4.7056
 Frc consts  --      0.3043                 0.5102                 1.8575
 IR Inten    --     45.1463                 0.4828                 0.5716

                     19                     20                     21
                      A                      A                      A
 Frequencies --    827.6146               906.2277               987.7109
 Red. masses --      1.2776                 2.1268                 3.3636
 Frc consts  --      0.5156                 1.0291                 1.9333
 IR Inten    --      0.0307                17.9996                 6.8998

                     22                     23                     24
                      A                      A                      A
 Frequencies --   1026.6842              1052.7582              1114.9028
 Red. masses --      2.0700                 3.5329                 2.8606
 Frc consts  --      1.2855                 2.3069                 2.0950
 IR Inten    --      0.0845                10.3881               163.4220

                     25                     26                     27
                      A                      A                      A
 Frequencies --   1156.7836              1178.4845              1184.2769
 Red. masses --      3.2228                 4.2970                 1.3940
 Frc consts  --      2.5409                 3.5161                 1.1519
 IR Inten    --     58.5537               116.6076                 2.1111

                     28                     29                     30
                      A                      A                      A
 Frequencies --   1204.3530              1254.5967              1298.3774
 Red. masses --      1.2416                 1.1234                 1.1015
 Frc consts  --      1.0610                 1.0418                 1.0941
 IR Inten    --      4.7851                 3.0973                 2.5691

                     31                     32                     33
                      A                      A                      A
 Frequencies --   1335.3634              1362.3595              1404.1295
 Red. masses --      1.7592                 1.3577                 1.2420
 Frc consts  --      1.8483                 1.4847                 1.4427
 IR Inten    --     36.6173                48.3263                 0.4974

                     34                     35                     36
                      A                      A                      A
 Frequencies --   1420.8354              1435.5242              1482.0535
 Red. masses --      1.1099                 1.3950                 1.1151
 Frc consts  --      1.3201                 1.6938                 1.4431
 IR Inten    --     16.9708                22.5733                 9.7296

                     37                     38                     39
                      A                      A                      A
 Frequencies --   1483.7948              1500.1035              1530.9354
 Red. masses --      1.0401                 1.0453                 1.0920
 Frc consts  --      1.3492                 1.3859                 1.5079
 IR Inten    --      4.9407                 1.1468                 2.3905

                     40                     41                     42
                      A                      A                      A
 Frequencies --   1830.9638              2250.5050              2960.8601
 Red. masses --     11.9778                 5.9157                 1.0547
 Frc consts  --     23.6585                17.6528                 5.4476
 IR Inten    --    132.0964                 1.2111                26.2960

                     43                     44                     45
                      A                      A                      A
 Frequencies --   2970.5408              2990.6748              2996.8909
 Red. masses --      1.0552                 1.1045                 1.1049
 Frc consts  --      5.4862                 5.8205                 5.8467
 IR Inten    --     58.4754                71.9706                 3.6312

                     46                     47                     48
                      A                      A                      A
 Frequencies --   3032.7350              3046.9929              3055.2218
 Red. masses --      1.0609                 1.0348                 1.0963
 Frc consts  --      5.7492                 5.6603                 6.0292
 IR Inten    --     10.4291                14.1127                 0.9941

                     49                     50                     51
                      A                      A                      A
 Frequencies --   3122.5108              3123.3204              3508.0894
 Red. masses --      1.1015                 1.1028                 1.1633
 Frc consts  --      6.3278                 6.3385                 8.4352
 IR Inten    --     22.8817                24.0236                67.1272

 - Thermochemistry -
 -------------------
 Temperature   298.150 Kelvin.  Pressure   1.00000 Atm.
 Atom     1 has atomic number  6 and mass  12.00000

 Molecular mass:   126.06808 amu.
 Principal axes and moments of inertia in atomic units:
                           1         2         3
     Eigenvalues --   508.470182528.345302992.14881
           X            1.00000   0.00095   0.00000
           Y           -0.00095   1.00000   0.00002
           Z            0.00000  -0.00002   1.00000
 This molecule is an asymmetric top.
 Rotational symmetry number  1.
 Warning -- assumption of classical behavior for rotation
           may cause significant error
 Rotational temperatures (Kelvin)      0.17034     0.03426     0.02895
 Rotational constants (GHZ):           3.54936     0.71380     0.60316
 Zero-point vibrational energy     404825.9 (Joules/Mol)
                                   96.75571 (Kcal/Mol)
 Warning -- explicit consideration of  13 degrees of freedom as
           vibrations may cause significant error
 Vibrational temperatures:     42.38    71.00   119.14   125.93   172.76
          (Kelvin)            226.71   352.65   387.86   473.18   529.74
                              572.32   673.29   730.22   900.06   904.58
                              927.31  1173.06  1177.66  1190.75  1303.86
                             1421.09  1477.17  1514.68  1604.09  1664.35
                             1695.57  1703.91  1732.79  1805.08  1868.07
                             1921.29  1960.13  2020.23  2044.26  2065.40
                             2132.34  2134.85  2158.31  2202.67  2634.35
                             3237.97  4260.01  4273.94  4302.91  4311.85
                             4363.42  4383.94  4395.78  4492.59  4493.76
                             5047.35

 Zero-point correction=                           0.154190 (Hartree/Particle)
 Thermal correction to Energy=                    0.165032
 Thermal correction to Enthalpy=                  0.165977
 Thermal correction to Gibbs Free Energy=         0.116212
 Sum of electronic and zero-point Energies=           -422.999638
 Sum of electronic and thermal Energies=              -422.988796
 Sum of electronic and thermal Enthalpies=            -422.987852
 Sum of electronic and thermal Free Energies=         -423.037616

                     E (Thermal)             CV                S
                      KCal/Mol        Cal/Mol-Kelvin    Cal/Mol-Kelvin
 Total                  103.559             36.988            104.738
 Electronic               0.000              0.000              0.000
 Translational            0.889              2.981             40.409
 Rotational               0.889              2.981             29.732
 Vibrational            101.782             31.026             34.597
 Vibration     1          0.593              1.984              5.866
 Vibration     2          0.595              1.978              4.843
 Vibration     3          0.600              1.961              3.823
 Vibration     4          0.601              1.958              3.715
 Vibration     5          0.609              1.933              3.099
 Vibration     6          0.621              1.894              2.579
 Vibration     7          0.660              1.771              1.766
 Vibration     8          0.674              1.729              1.599
 Vibration     9          0.712              1.618              1.266
 Vibration    10          0.741              1.538              1.087
 Vibration    11          0.764              1.475              0.971
 Vibration    12          0.825              1.321              0.743
 Vibration    13          0.863              1.233              0.640

 Normal termination of Gaussian 09 at Tue Jan 28 15:01:29 2020.
