 Gaussian 09, Revision D.01,
 Gaussian 09:  ES64L-G09RevD.01 24-Apr-2013

 -----------------------------
 # b3lyp 6-31G(2df,p) opt Freq
 -----------------------------

 -----
 titel
 -----
 Symbolic Z-matrix:
 Charge =  0 Multiplicity = 1

 SCF Done:  E(RB3LYP) =  -423.182476383     A.U. after   14 cycles
 Optimization completed.
    -- Stationary point found.
 Normal termination of Gaussian 09 at Tue Jan 28 00:02:50 2020.

 ----------------------------------------------------------------------
 #N Geom=AllCheck Guess=TCheck SCRF=Check GenChk RB3LYP/6-31G(2df,p) Fr
 eq
 ----------------------------------------------------------------------

 Structure from the checkpoint file:  "/scratch/puck/g09_da045c8a-adbe-4daf-a5e4-3556d0da5a73/Gau-51741.chk"
 -----
 titel
 -----
 Charge =  0 Multiplicity = 1

                         Standard orientation:
 ---------------------------------------------------------------------
 Center     Atomic      Atomic             Coordinates (Angstroms)
 Number     Number       Type             X           Y           Z
 ---------------------------------------------------------------------
      1          6           0        0.928357   -1.645376   -1.083348
      2          6           0        0.355586   -0.495250   -0.287405
      3          8           0        0.855590   -0.493852    1.088962
      4          6           0        1.528015    0.773082    0.897480
      5          6           0        0.883367    0.951025   -0.495819
      6          6           0       -0.362271    1.794463   -0.513028
      7          6           0       -1.471617    1.069132   -0.373478
      8          6           0       -1.201116   -0.418664   -0.268402
      9          8           0       -1.738369   -1.027869    0.888707
     10          1           0        0.557629   -2.594307   -0.681656
     11          1           0        0.622280   -1.575451   -2.132767
     12          1           0        2.021332   -1.655386   -1.038700
     13          1           0        1.250540    1.506895    1.661627
     14          1           0        2.617230    0.644095    0.891190
     15          1           0        1.572470    1.135129   -1.323136
     16          1           0       -0.326701    2.875742   -0.599308
     17          1           0       -2.481489    1.461453   -0.326426
     18          1           0       -1.632671   -0.961041   -1.119933
     19          1           0       -1.100322   -0.833831    1.591757
 ---------------------------------------------------------------------

 SCF Done:  E(RB3LYP) =  -423.182476383     A.U. after    1 cycles

 The electronic state is 1-A.
 Alpha  occ. eigenvalues --  -19.14288 -19.12277 -10.23965 -10.23604 -10.22804
 Alpha  occ. eigenvalues --  -10.19805 -10.18952 -10.18181 -10.18017  -1.04860
 Alpha  occ. eigenvalues --   -1.00333  -0.82967  -0.75477  -0.72445  -0.66015
 Alpha  occ. eigenvalues --   -0.64666  -0.55590  -0.53951  -0.50902  -0.48832
 Alpha  occ. eigenvalues --   -0.47069  -0.44875  -0.42347  -0.41834  -0.41287
 Alpha  occ. eigenvalues --   -0.39104  -0.38270  -0.35673  -0.34828  -0.31700
 Alpha  occ. eigenvalues --   -0.30204  -0.27056  -0.25902  -0.24574
 Alpha virt. eigenvalues --    0.00855   0.07256   0.09547   0.12040   0.12591
 Alpha virt. eigenvalues --    0.13508   0.13652   0.14977   0.16533   0.16766
 Alpha virt. eigenvalues --    0.17315   0.17916   0.18693   0.19919   0.22304

 Mulliken charges:
               1
     1  C   -0.468396
     2  C    0.395296
     3  O   -0.336719
     4  C   -0.084039
     5  C   -0.161921
     6  C   -0.091753
     7  C   -0.105996
     8  C    0.051292
     9  O   -0.437313
    10  H    0.138425
    11  H    0.120508
    12  H    0.118012
    13  H    0.106320
    14  H    0.103331
    15  H    0.081875
    16  H    0.099632
    17  H    0.103583
    18  H    0.080578
    19  H    0.287287
 Sum of Mulliken charges =   0.00000

 Dipole moment (field-independent basis, Debye):
    X=              1.6492    Y=              1.7344    Z=             -1.3464  Tot=              2.7460
 Quadrupole moment (field-independent basis, Debye-Ang):
   XX=            -54.2450   YY=            -52.5072   ZZ=            -52.9388
   XY=             -1.0176   XZ=              0.9227   YZ=              2.4630

  Exact polarizability:  83.546   3.567  78.343   1.258   1.669  64.135
 Approx polarizability: 125.388  14.001 112.503   0.566  -2.274  98.765

                      1                      2                      3
                      A                      A                      A
 Frequencies --     98.0243               200.4874               238.9456
 Red. masses --      3.8023                 2.6238                 1.0728
 Frc consts  --      0.0215                 0.0621                 0.0361
 IR Inten    --      0.6976                 0.9426                 0.3808

                      4                      5                      6
                      A                      A                      A
 Frequencies --    276.6580               282.1902               316.5009
 Red. masses --      3.0589                 3.4529                 3.2597
 Frc consts  --      0.1379                 0.1620                 0.1924
 IR Inten    --      1.6361                 4.5192                 2.2368

                      7                      8                      9
                      A                      A                      A
 Frequencies --    378.0864               503.5810               522.6923
 Red. masses --      2.8621                 1.4586                 1.8568
 Frc consts  --      0.2411                 0.2179                 0.2989
 IR Inten    --      0.4929                36.3883                51.1562

                     10                     11                     12
                      A                      A                      A
 Frequencies --    553.1596               603.9653               678.7348
 Red. masses --      4.3203                 3.5323                 4.6011
 Frc consts  --      0.7789                 0.7592                 1.2489
 IR Inten    --      4.6280                 5.0824                 1.3940

                     13                     14                     15
                      A                      A                      A
 Frequencies --    759.5743               808.0782               857.1882
 Red. masses --      1.7791                 2.6718                 2.3192
 Frc consts  --      0.6048                 1.0279                 1.0040
 IR Inten    --      5.5939                16.2384                 5.8486

                     16                     17                     18
                      A                      A                      A
 Frequencies --    867.7692               897.9772               916.3053
 Red. masses --      2.7897                 1.9030                 2.0932
 Frc consts  --      1.2377                 0.9041                 1.0355
 IR Inten    --     41.8450                 2.6837                 5.7207

                     19                     20                     21
                      A                      A                      A
 Frequencies --    979.9202              1000.7542              1017.6553
 Red. masses --      1.2838                 7.1795                 2.1733
 Frc consts  --      0.7263                 4.2364                 1.3261
 IR Inten    --      0.7219                72.4187                14.1234

                     22                     23                     24
                      A                      A                      A
 Frequencies --   1040.6810              1068.7973              1079.6358
 Red. masses --      2.3507                 2.0593                 1.5912
 Frc consts  --      1.5000                 1.3860                 1.0927
 IR Inten    --     10.9106                42.1865                 2.1145

                     25                     26                     27
                      A                      A                      A
 Frequencies --   1109.7492              1150.7678              1169.4465
 Red. masses --      3.4647                 1.6287                 1.2284
 Frc consts  --      2.5140                 1.2708                 0.9898
 IR Inten    --     61.7356                10.4121                 0.8703

                     28                     29                     30
                      A                      A                      A
 Frequencies --   1172.2066              1216.1607              1235.2692
 Red. masses --      1.6422                 2.5037                 1.7626
 Frc consts  --      1.3295                 2.1818                 1.5846
 IR Inten    --      4.6506                 4.3620                16.0283

                     31                     32                     33
                      A                      A                      A
 Frequencies --   1283.0381              1301.6796              1340.5572
 Red. masses --      1.4803                 1.3444                 1.3894
 Frc consts  --      1.4357                 1.3421                 1.4712
 IR Inten    --     17.5098                 3.5903                 4.0813

                     34                     35                     36
                      A                      A                      A
 Frequencies --   1357.2348              1372.0924              1406.6231
 Red. masses --      1.9466                 1.7290                 1.3376
 Frc consts  --      2.1127                 1.9179                 1.5593
 IR Inten    --      4.5468                 1.0236                 8.3041

                     37                     38                     39
                      A                      A                      A
 Frequencies --   1446.8784              1482.4980              1490.7848
 Red. masses --      1.2171                 1.0592                 1.0500
 Frc consts  --      1.5012                 1.3716                 1.3749
 IR Inten    --     88.9556                 7.8092                 3.3258

                     40                     41                     42
                      A                      A                      A
 Frequencies --   1519.7886              1678.0959              3018.7591
 Red. masses --      1.0991                 6.5640                 1.0816
 Frc consts  --      1.4958                10.8906                 5.8073
 IR Inten    --      0.1116                 1.3458                51.0103

                     43                     44                     45
                      A                      A                      A
 Frequencies --   3020.3017              3032.9178              3072.8254
 Red. masses --      1.0576                 1.0363                 1.1053
 Frc consts  --      5.6840                 5.6163                 6.1492
 IR Inten    --     58.8501                18.3813                18.4390

                     46                     47                     48
                      A                      A                      A
 Frequencies --   3086.3464              3104.6308              3111.1506
 Red. masses --      1.0903                 1.1008                 1.1023
 Frc consts  --      6.1193                 6.2515                 6.2861
 IR Inten    --     40.6394                15.6084                18.9802

                     49                     50                     51
                      A                      A                      A
 Frequencies --   3177.0608              3206.2200              3718.4381
 Red. masses --      1.0857                 1.1026                 1.0646
 Frc consts  --      6.4570                 6.6782                 8.6728
 IR Inten    --      9.5589                17.9227                44.2812

 - Thermochemistry -
 -------------------
 Temperature   298.150 Kelvin.  Pressure   1.00000 Atm.
 Atom     1 has atomic number  6 and mass  12.00000

 Molecular mass:   126.06808 amu.
 Principal axes and moments of inertia in atomic units:
                           1         2         3
     Eigenvalues --   847.46596 930.571091205.04533
           X            0.99446  -0.10489  -0.00659
           Y            0.10509   0.99146   0.07718
           Z           -0.00157  -0.07745   0.99700
 This molecule is an asymmetric top.
 Rotational symmetry number  1.
 Warning -- assumption of classical behavior for rotation
           may cause significant error
 Rotational temperatures (Kelvin)      0.10220     0.09308     0.07188
 Rotational constants (GHZ):           2.12957     1.93939     1.49765
 Zero-point vibrational energy     420062.0 (Joules/Mol)
                                  100.39723 (Kcal/Mol)
 Warning -- explicit consideration of  11 degrees of freedom as
           vibrations may cause significant error
 Vibrational temperatures:    141.03   288.46   343.79   398.05   406.01
          (Kelvin)            455.37   543.98   724.54   752.04   795.87
                              868.97   976.55  1092.86  1162.64  1233.30
                             1248.52  1291.99  1318.36  1409.88  1439.86
                             1464.18  1497.31  1537.76  1553.35  1596.68
                             1655.70  1682.57  1686.54  1749.78  1777.27
                             1846.00  1872.82  1928.76  1952.76  1974.13
                             2023.81  2081.73  2132.98  2144.90  2186.63
                             2414.40  4343.32  4345.54  4363.69  4421.10
                             4440.56  4466.87  4476.25  4571.08  4613.03
                             5350.00

 Zero-point correction=                           0.159993 (Hartree/Particle)
 Thermal correction to Energy=                    0.167934
 Thermal correction to Enthalpy=                  0.168878
 Thermal correction to Gibbs Free Energy=         0.127916
 Sum of electronic and zero-point Energies=           -423.022483
 Sum of electronic and thermal Energies=              -423.014543
 Sum of electronic and thermal Enthalpies=            -423.013598
 Sum of electronic and thermal Free Energies=         -423.054560

                     E (Thermal)             CV                S
                      KCal/Mol        Cal/Mol-Kelvin    Cal/Mol-Kelvin
 Total                  105.380             31.574             86.212
 Electronic               0.000              0.000              0.000
 Translational            0.889              2.981             40.409
 Rotational               0.889              2.981             28.343
 Vibrational            103.603             25.612             17.460
 Vibration     1          0.603              1.951              3.493
 Vibration     2          0.638              1.839              2.129
 Vibration     3          0.657              1.781              1.811
 Vibration     4          0.678              1.717              1.554
 Vibration     5          0.681              1.707              1.520
 Vibration     6          0.703              1.642              1.328
 Vibration     7          0.748              1.517              1.047
 Vibration     8          0.859              1.242              0.649
 Vibration     9          0.878              1.200              0.604
 Vibration    10          0.909              1.133              0.538
 Vibration    11          0.962              1.023              0.443

 Optimization completed.
    -- Stationary point found.
 Normal termination of Gaussian 09 at Tue Jan 28 00:51:00 2020.
