 Gaussian 09, Revision D.01,
 Gaussian 09:  ES64L-G09RevD.01 24-Apr-2013

 -----------------------------
 # b3lyp 6-31G(2df,p) opt Freq
 -----------------------------

 -----
 titel
 -----
 Symbolic Z-matrix:
 Charge =  0 Multiplicity = 1

 SCF Done:  E(RB3LYP) =  -423.178630224     A.U. after   14 cycles
 Optimization completed.
    -- Stationary point found.
 Normal termination of Gaussian 09 at Mon Jan 27 22:13:06 2020.

 ----------------------------------------------------------------------
 #N Geom=AllCheck Guess=TCheck SCRF=Check GenChk RB3LYP/6-31G(2df,p) Fr
 eq
 ----------------------------------------------------------------------

 Structure from the checkpoint file:  "/scratch/puck/g09_c683360b-ad1e-4f9c-a2f7-77d3b38eade5/Gau-28757.chk"
 -----
 titel
 -----
 Charge =  0 Multiplicity = 1

                         Standard orientation:
 ---------------------------------------------------------------------
 Center     Atomic      Atomic             Coordinates (Angstroms)
 Number     Number       Type             X           Y           Z
 ---------------------------------------------------------------------
      1          6           0        1.081757    2.546125    0.105172
      2          6           0        0.725228    1.094755    0.029617
      3          6           0        1.416275    0.114582   -0.571681
      4          6           0        0.777622   -1.246048   -0.402854
      5          8           0        1.584699   -2.149988    0.350331
      6          6           0       -0.552926   -0.920350    0.281825
      7          6           0       -1.511157    0.005639   -0.418258
      8          8           0       -2.854565   -0.017588   -0.037662
      9          6           0       -0.549773    0.568738    0.603867
     10          1           0        1.132235    2.883098    1.148104
     11          1           0        2.045949    2.751445   -0.366823
     12          1           0        0.318850    3.164346   -0.383655
     13          1           0        2.347966    0.244948   -1.111226
     14          1           0        0.623301   -1.757708   -1.360616
     15          1           0        1.876547   -1.671982    1.135009
     16          1           0       -0.969491   -1.644997    0.971920
     17          1           0       -1.325576    0.256581   -1.464178
     18          1           0       -3.239399   -0.843378   -0.350463
     19          1           0       -0.973606    0.977611    1.514452
 ---------------------------------------------------------------------

 SCF Done:  E(RB3LYP) =  -423.178630224     A.U. after    1 cycles

 The electronic state is 1-A.
 Alpha  occ. eigenvalues --  -19.14487 -19.12896 -10.23828 -10.23120 -10.19563
 Alpha  occ. eigenvalues --  -10.18998 -10.18588 -10.18447 -10.17134  -1.03077
 Alpha  occ. eigenvalues --   -1.01065  -0.87929  -0.77574  -0.72329  -0.65940
 Alpha  occ. eigenvalues --   -0.60665  -0.57744  -0.53995  -0.51770  -0.49810
 Alpha  occ. eigenvalues --   -0.46276  -0.43969  -0.42269  -0.41808  -0.40326
 Alpha  occ. eigenvalues --   -0.39852  -0.36783  -0.35761  -0.33297  -0.31530
 Alpha  occ. eigenvalues --   -0.30181  -0.26720  -0.25339  -0.23522
 Alpha virt. eigenvalues --    0.01215   0.08146   0.10400   0.10592   0.11325
 Alpha virt. eigenvalues --    0.13121   0.14232   0.14980   0.15507   0.17595
 Alpha virt. eigenvalues --    0.17776   0.18930   0.20758   0.22840   0.23066

 Mulliken charges:
               1
     1  C   -0.495825
     2  C    0.327594
     3  C   -0.255044
     4  C    0.097352
     5  O   -0.432349
     6  C   -0.152347
     7  C    0.097035
     8  O   -0.432288
     9  C   -0.163255
    10  H    0.128899
    11  H    0.125638
    12  H    0.134931
    13  H    0.091884
    14  H    0.089067
    15  H    0.273362
    16  H    0.094610
    17  H    0.087990
    18  H    0.287918
    19  H    0.094827
 Sum of Mulliken charges =   0.00000

 Dipole moment (field-independent basis, Debye):
    X=             -0.0958    Y=              0.7747    Z=             -0.0313  Tot=              0.7812
 Quadrupole moment (field-independent basis, Debye-Ang):
   XX=            -53.7448   YY=            -55.4038   ZZ=            -50.2658
   XY=              7.7563   XZ=              2.5920   YZ=              0.6335

  Exact polarizability:  83.951  -0.383  86.806  -3.178   4.010  62.925
 Approx polarizability: 119.297  -9.496 127.816  -6.460  10.538 100.424

                      1                      2                      3
                      A                      A                      A
 Frequencies --    136.6831               167.2206               177.4995
 Red. masses --      2.8713                 1.9865                 1.5675
 Frc consts  --      0.0316                 0.0327                 0.0291
 IR Inten    --      0.2639                 8.7110                 9.8341

                      4                      5                      6
                      A                      A                      A
 Frequencies --    202.9981               253.1602               267.9669
 Red. masses --      2.8128                 2.0290                 1.5917
 Frc consts  --      0.0683                 0.0766                 0.0673
 IR Inten    --      0.0766                25.6915                44.3779

                      7                      8                      9
                      A                      A                      A
 Frequencies --    314.3334               351.9125               417.5011
 Red. masses --      2.4803                 1.1825                 3.8398
 Frc consts  --      0.1444                 0.0863                 0.3943
 IR Inten    --      9.8800                95.4915                 1.9535

                     10                     11                     12
                      A                      A                      A
 Frequencies --    439.2613               481.1659               572.4048
 Red. masses --      4.4453                 3.4103                 3.8143
 Frc consts  --      0.5054                 0.4652                 0.7363
 IR Inten    --     12.0764                 5.5226                 2.2443

                     13                     14                     15
                      A                      A                      A
 Frequencies --    618.4554               754.5323               841.8604
 Red. masses --      3.4149                 3.3047                 1.5812
 Frc consts  --      0.7696                 1.1085                 0.6603
 IR Inten    --      1.0686                 5.2826                 2.7480

                     16                     17                     18
                      A                      A                      A
 Frequencies --    852.5247               887.0944               919.3629
 Red. masses --      1.9628                 2.4542                 2.4673
 Frc consts  --      0.8405                 1.1379                 1.2287
 IR Inten    --     12.5644                10.1534                21.3983

                     19                     20                     21
                      A                      A                      A
 Frequencies --    940.8207               966.1931              1014.2633
 Red. masses --      3.2435                 2.1809                 1.6326
 Frc consts  --      1.6915                 1.1996                 0.9895
 IR Inten    --     32.3379                11.6324                16.3223

                     22                     23                     24
                      A                      A                      A
 Frequencies --   1036.9641              1044.5288              1066.5248
 Red. masses --      3.4110                 1.5349                 1.4546
 Frc consts  --      2.1610                 0.9867                 0.9748
 IR Inten    --    113.9066                 1.6395                 7.9154

                     25                     26                     27
                      A                      A                      A
 Frequencies --   1070.9496              1098.0413              1125.8498
 Red. masses --      1.5265                 1.3767                 1.7270
 Frc consts  --      1.0315                 0.9780                 1.2898
 IR Inten    --      4.3884                19.4709                38.2696

                     28                     29                     30
                      A                      A                      A
 Frequencies --   1171.4581              1200.7871              1234.9797
 Red. masses --      2.4204                 2.6500                 1.5280
 Frc consts  --      1.9570                 2.2512                 1.3730
 IR Inten    --     11.9845                 6.8406                26.4418

                     31                     32                     33
                      A                      A                      A
 Frequencies --   1259.9177              1285.3120              1302.9260
 Red. masses --      1.2732                 1.2969                 1.4569
 Frc consts  --      1.1908                 1.2623                 1.4572
 IR Inten    --      7.6580                32.1873                 2.4435

                     34                     35                     36
                      A                      A                      A
 Frequencies --   1309.7601              1361.7458              1412.7230
 Red. masses --      1.6718                 2.3608                 1.3071
 Frc consts  --      1.6898                 2.5793                 1.5370
 IR Inten    --     32.2597                21.5469                 3.1147

                     37                     38                     39
                      A                      A                      A
 Frequencies --   1422.9251              1433.6242              1478.4309
 Red. masses --      1.2273                 2.2008                 1.0447
 Frc consts  --      1.4640                 2.6651                 1.3454
 IR Inten    --     70.5053                47.4565                 6.2680

                     40                     41                     42
                      A                      A                      A
 Frequencies --   1487.0491              1689.2465              3022.0846
 Red. masses --      1.0665                 6.8672                 1.0377
 Frc consts  --      1.3895                11.5456                 5.5840
 IR Inten    --      8.2821                12.0626                25.3699

                     43                     44                     45
                      A                      A                      A
 Frequencies --   3038.6720              3070.1176              3083.2098
 Red. masses --      1.0838                 1.0983                 1.0876
 Frc consts  --      5.8964                 6.0994                 6.0916
 IR Inten    --     34.8081                14.6253                28.5163

                     46                     47                     48
                      A                      A                      A
 Frequencies --   3115.5503              3174.9560              3186.8208
 Red. masses --      1.0998                 1.0891                 1.0917
 Frc consts  --      6.2898                 6.4681                 6.5324
 IR Inten    --     18.2112                 9.0986                 9.4877

                     49                     50                     51
                      A                      A                      A
 Frequencies --   3195.0914              3795.8551              3800.6705
 Red. masses --      1.0940                 1.0659                 1.0662
 Frc consts  --      6.5804                 9.0488                 9.0739
 IR Inten    --      8.3725                13.9764                22.0630

 - Thermochemistry -
 -------------------
 Temperature   298.150 Kelvin.  Pressure   1.00000 Atm.
 Atom     1 has atomic number  6 and mass  12.00000

 Molecular mass:   126.06808 amu.
 Principal axes and moments of inertia in atomic units:
                           1         2         3
     Eigenvalues --   931.084461124.298591862.62320
           X            0.98481   0.17366  -0.00074
           Y           -0.17365   0.98479   0.00519
           Z            0.00163  -0.00498   0.99999
 This molecule is an asymmetric top.
 Rotational symmetry number  1.
 Warning -- assumption of classical behavior for rotation
           may cause significant error
 Rotational temperatures (Kelvin)      0.09302     0.07704     0.04650
 Rotational constants (GHZ):           1.93832     1.60522     0.96892
 Zero-point vibrational energy     416025.2 (Joules/Mol)
                                   99.43241 (Kcal/Mol)
 Warning -- explicit consideration of  13 degrees of freedom as
           vibrations may cause significant error
 Vibrational temperatures:    196.66   240.59   255.38   292.07   364.24
          (Kelvin)            385.54   452.26   506.32   600.69   632.00
                              692.29   823.56   889.82  1085.60  1211.25
                             1226.59  1276.33  1322.76  1353.63  1390.13
                             1459.30  1491.96  1502.84  1534.49  1540.86
                             1579.83  1619.84  1685.46  1727.66  1776.86
                             1812.74  1849.27  1874.62  1884.45  1959.25
                             2032.59  2047.27  2062.66  2127.13  2139.53
                             2430.45  4348.10  4371.97  4417.21  4436.05
                             4482.58  4568.05  4585.12  4597.02  5461.38
                             5468.31

 Zero-point correction=                           0.158456 (Hartree/Particle)
 Thermal correction to Energy=                    0.167317
 Thermal correction to Enthalpy=                  0.168261
 Thermal correction to Gibbs Free Energy=         0.125332
 Sum of electronic and zero-point Energies=           -423.020175
 Sum of electronic and thermal Energies=              -423.011313
 Sum of electronic and thermal Enthalpies=            -423.010369
 Sum of electronic and thermal Free Energies=         -423.053298

                     E (Thermal)             CV                S
                      KCal/Mol        Cal/Mol-Kelvin    Cal/Mol-Kelvin
 Total                  104.993             34.127             90.352
 Electronic               0.000              0.000              0.000
 Translational            0.889              2.981             40.409
 Rotational               0.889              2.981             29.057
 Vibrational            103.216             28.165             20.887
 Vibration     1          0.614              1.917              2.850
 Vibration     2          0.624              1.883              2.466
 Vibration     3          0.628              1.870              2.355
 Vibration     4          0.639              1.836              2.106
 Vibration     5          0.664              1.757              1.708
 Vibration     6          0.673              1.732              1.609
 Vibration     7          0.702              1.646              1.339
 Vibration     8          0.728              1.571              1.158
 Vibration     9          0.781              1.432              0.901
 Vibration    10          0.799              1.385              0.829
 Vibration    11          0.837              1.292              0.707
 Vibration    12          0.929              1.091              0.500
 Vibration    13          0.978              0.993              0.419

 Optimization completed.
    -- Stationary point found.
 Normal termination of Gaussian 09 at Tue Jan 28 00:20:39 2020.
