 Gaussian 09, Revision D.01,
 Gaussian 09:  ES64L-G09RevD.01 24-Apr-2013

 -----------------------------
 # b3lyp 6-31G(2df,p) opt Freq
 -----------------------------

 -----
 titel
 -----
 Symbolic Z-matrix:
 Charge =  0 Multiplicity = 1

 SCF Done:  E(RB3LYP) =  -423.210357199     A.U. after   14 cycles
 Optimization completed.
    -- Stationary point found.
 Normal termination of Gaussian 09 at Mon Jan 27 13:20:49 2020.

 ----------------------------------------------------------------------
 #N Geom=AllCheck Guess=TCheck SCRF=Check GenChk RB3LYP/6-31G(2df,p) Fr
 eq
 ----------------------------------------------------------------------

 Structure from the checkpoint file:  "/scratch/puck/g09_8ff051ce-f4c2-480a-bb53-6a8242fa4f57/Gau-168460.chk"
 -----
 titel
 -----
 Charge =  0 Multiplicity = 1

                         Standard orientation:
 ---------------------------------------------------------------------
 Center     Atomic      Atomic             Coordinates (Angstroms)
 Number     Number       Type             X           Y           Z
 ---------------------------------------------------------------------
      1          8           0       -2.909747    0.509282    0.121064
      2          6           0       -2.124710   -0.353915   -0.175937
      3          6           0       -0.692148   -0.085962   -0.615753
      4          8           0        0.076284   -1.293152   -0.491473
      5          6           0        1.178989   -0.973597    0.382117
      6          6           0        2.162738   -0.081037   -0.399278
      7          6           0        1.385135    1.275689   -0.467941
      8          6           0        0.058824    0.940834    0.254474
      9          6           0        0.550081    0.005520    1.382007
     10          1           0       -2.390009   -1.434800   -0.156178
     11          1           0       -0.727473    0.226662   -1.671035
     12          1           0        1.583835   -1.910966    0.763527
     13          1           0        3.116398    0.017938    0.127889
     14          1           0        2.365236   -0.507838   -1.384003
     15          1           0        1.919200    2.069644    0.062017
     16          1           0        1.221888    1.618657   -1.493229
     17          1           0       -0.560835    1.790624    0.536467
     18          1           0        1.277342    0.479421    2.045843
     19          1           0       -0.251335   -0.443574    1.973847
 ---------------------------------------------------------------------

 SCF Done:  E(RB3LYP) =  -423.210357199     A.U. after    1 cycles

 The electronic state is 1-A.
 Alpha  occ. eigenvalues --  -19.14450 -19.14404 -10.26974 -10.23936 -10.23720
 Alpha  occ. eigenvalues --  -10.19961 -10.19005 -10.18918 -10.18553  -1.05403
 Alpha  occ. eigenvalues --   -1.04055  -0.83679  -0.76737  -0.71831  -0.66561
 Alpha  occ. eigenvalues --   -0.60010  -0.57797  -0.54243  -0.52351  -0.49507
 Alpha  occ. eigenvalues --   -0.47677  -0.45876  -0.42964  -0.41564  -0.38832
 Alpha  occ. eigenvalues --   -0.38404  -0.37346  -0.36502  -0.35008  -0.34022
 Alpha  occ. eigenvalues --   -0.33860  -0.30689  -0.27786  -0.23886
 Alpha virt. eigenvalues --   -0.02836   0.08096   0.09668   0.12689   0.13592
 Alpha virt. eigenvalues --    0.13890   0.14452   0.14837   0.15167   0.16951
 Alpha virt. eigenvalues --    0.17204   0.17306   0.19473   0.20729   0.21511

 Mulliken charges:
               1
     1  O   -0.248624
     2  C    0.129303
     3  C    0.032939
     4  O   -0.297135
     5  C    0.114534
     6  C   -0.212202
     7  C   -0.235192
     8  C   -0.030980
     9  C   -0.240961
    10  H    0.091030
    11  H    0.100476
    12  H    0.078012
    13  H    0.099852
    14  H    0.110642
    15  H    0.101931
    16  H    0.103059
    17  H    0.092173
    18  H    0.102279
    19  H    0.108864
 Sum of Mulliken charges =   0.00000

 Dipole moment (field-independent basis, Debye):
    X=              2.5212    Y=              0.0522    Z=              0.1830  Tot=              2.5284
 Quadrupole moment (field-independent basis, Debye-Ang):
   XX=            -58.9916   YY=            -54.5271   ZZ=            -51.3569
   XY=              3.2517   XZ=              2.2959   YZ=             -1.5403

  Exact polarizability:  85.096  -0.282  71.524  -0.278  -0.957  65.701
 Approx polarizability: 114.677  -5.701 111.137  -0.275   1.759 100.259

                      1                      2                      3
                      A                      A                      A
 Frequencies --     57.0261               139.0857               184.3763
 Red. masses --      3.9366                 2.8143                 4.7534
 Frc consts  --      0.0075                 0.0321                 0.0952
 IR Inten    --      7.8257                 3.8887                 5.3664

                      4                      5                      6
                      A                      A                      A
 Frequencies --    259.8161               383.1858               429.5244
 Red. masses --      1.8875                 3.3608                 3.3317
 Frc consts  --      0.0751                 0.2907                 0.3622
 IR Inten    --      0.3408                 0.6119                 8.7067

                      7                      8                      9
                      A                      A                      A
 Frequencies --    461.6086               588.8920               618.7097
 Red. masses --      1.9796                 3.7318                 4.8912
 Frc consts  --      0.2485                 0.7625                 1.1032
 IR Inten    --      2.7507                 8.5977                 2.4880

                     10                     11                     12
                      A                      A                      A
 Frequencies --    746.2575               784.4623               817.3545
 Red. masses --      2.9407                 4.2145                 1.5934
 Frc consts  --      0.9649                 1.5281                 0.6272
 IR Inten    --      4.7722                 3.2207                 3.2537

                     13                     14                     15
                      A                      A                      A
 Frequencies --    824.4061               877.5333               900.9599
 Red. masses --      2.8248                 2.0605                 2.6676
 Frc consts  --      1.1312                 0.9349                 1.2758
 IR Inten    --      5.4649                 5.0524                 1.2872

                     16                     17                     18
                      A                      A                      A
 Frequencies --    923.5291               946.6407               953.9452
 Red. masses --      2.8383                 2.1827                 3.1783
 Frc consts  --      1.4263                 1.1524                 1.7041
 IR Inten    --     34.1176                10.5193                 2.4583

                     19                     20                     21
                      A                      A                      A
 Frequencies --    968.8072              1003.2336              1028.8467
 Red. masses --      1.8132                 1.5439                 2.1581
 Frc consts  --      1.0027                 0.9155                 1.3460
 IR Inten    --      4.4615                 0.8564                30.7075

                     22                     23                     24
                      A                      A                      A
 Frequencies --   1056.7583              1064.9743              1089.0740
 Red. masses --      1.7303                 1.8732                 2.2193
 Frc consts  --      1.1385                 1.2517                 1.5509
 IR Inten    --     21.8466                20.8583                15.9384

                     25                     26                     27
                      A                      A                      A
 Frequencies --   1140.9485              1165.5054              1198.5509
 Red. masses --      1.2280                 1.3565                 2.0799
 Frc consts  --      0.9419                 1.0857                 1.7604
 IR Inten    --      1.4450                19.2496                13.9651

                     28                     29                     30
                      A                      A                      A
 Frequencies --   1227.3719              1247.4337              1269.5049
 Red. masses --      1.6311                 1.2839                 1.4119
 Frc consts  --      1.4477                 1.1771                 1.3407
 IR Inten    --      0.6332                 4.9717                 5.7562

                     31                     32                     33
                      A                      A                      A
 Frequencies --   1281.1105              1304.0481              1324.6062
 Red. masses --      1.3381                 1.4587                 1.4624
 Frc consts  --      1.2939                 1.4615                 1.5118
 IR Inten    --      0.5003                 1.1284                 2.1083

                     34                     35                     36
                      A                      A                      A
 Frequencies --   1335.2266              1347.7317              1356.5429
 Red. masses --      1.5159                 1.5617                 1.4436
 Frc consts  --      1.5923                 1.6713                 1.5652
 IR Inten    --      7.2263                 1.5279                 0.4126

                     37                     38                     39
                      A                      A                      A
 Frequencies --   1394.1949              1481.0545              1488.8019
 Red. masses --      1.2533                 1.0876                 1.1017
 Frc consts  --      1.4353                 1.4056                 1.4387
 IR Inten    --      5.9867                 2.2717                 4.7827

                     40                     41                     42
                      A                      A                      A
 Frequencies --   1509.0490              1829.4397              2889.3519
 Red. masses --      1.1052                10.9276                 1.0844
 Frc consts  --      1.4829                21.5483                 5.3340
 IR Inten    --      1.6898               135.5226                96.6075

                     43                     44                     45
                      A                      A                      A
 Frequencies --   2984.7153              3052.0189              3061.4769
 Red. masses --      1.0822                 1.0606                 1.0613
 Frc consts  --      5.6800                 5.8206                 5.8608
 IR Inten    --     33.0244                27.0868                41.4506

                     46                     47                     48
                      A                      A                      A
 Frequencies --   3067.6742              3092.9984              3115.6513
 Red. masses --      1.0589                 1.1052                 1.1043
 Frc consts  --      5.8713                 6.2296                 6.3156
 IR Inten    --     12.1878                 6.6656                24.7514

                     49                     50                     51
                      A                      A                      A
 Frequencies --   3122.2332              3123.3528              3136.7797
 Red. masses --      1.0988                 1.0987                 1.0890
 Frc consts  --      6.3108                 6.3151                 6.3133
 IR Inten    --     42.8068                31.1984                 6.2848

 - Thermochemistry -
 -------------------
 Temperature   298.150 Kelvin.  Pressure   1.00000 Atm.
 Atom     1 has atomic number  8 and mass  15.99491

 Molecular mass:   126.06808 amu.
 Principal axes and moments of inertia in atomic units:
                           1         2         3
     Eigenvalues --   520.351881360.660171488.62803
           X            0.99979   0.02051  -0.00075
           Y           -0.02052   0.99807  -0.05862
           Z           -0.00045   0.05862   0.99828
 This molecule is an asymmetric top.
 Rotational symmetry number  1.
 Warning -- assumption of classical behavior for rotation
           may cause significant error
 Rotational temperatures (Kelvin)      0.16645     0.06366     0.05818
 Rotational constants (GHZ):           3.46831     1.32637     1.21235
 Zero-point vibrational energy     422619.0 (Joules/Mol)
                                  101.00837 (Kcal/Mol)
 Warning -- explicit consideration of   9 degrees of freedom as
           vibrations may cause significant error
 Vibrational temperatures:     82.05   200.11   265.28   373.82   551.32
          (Kelvin)            617.99   664.15   847.28   890.18  1073.70
                             1128.66  1175.99  1186.14  1262.57  1296.28
                             1328.75  1362.00  1372.51  1393.90  1443.43
                             1480.28  1520.44  1532.26  1566.93  1641.57
                             1676.90  1724.45  1765.91  1794.78  1826.53
                             1843.23  1876.23  1905.81  1921.09  1939.08
                             1951.76  2005.93  2130.90  2142.05  2171.18
                             2632.15  4157.13  4294.33  4391.17  4404.78
                             4413.69  4450.13  4482.72  4492.19  4493.80
                             4513.12

 Zero-point correction=                           0.160967 (Hartree/Particle)
 Thermal correction to Energy=                    0.168473
 Thermal correction to Enthalpy=                  0.169417
 Thermal correction to Gibbs Free Energy=         0.128479
 Sum of electronic and zero-point Energies=           -423.049390
 Sum of electronic and thermal Energies=              -423.041885
 Sum of electronic and thermal Enthalpies=            -423.040940
 Sum of electronic and thermal Free Energies=         -423.081878

                     E (Thermal)             CV                S
                      KCal/Mol        Cal/Mol-Kelvin    Cal/Mol-Kelvin
 Total                  105.718             29.220             86.160
 Electronic               0.000              0.000              0.000
 Translational            0.889              2.981             40.409
 Rotational               0.889              2.981             28.446
 Vibrational            103.941             23.259             17.305
 Vibration     1          0.596              1.975              4.558
 Vibration     2          0.615              1.914              2.816
 Vibration     3          0.631              1.861              2.284
 Vibration     4          0.668              1.746              1.663
 Vibration     5          0.752              1.506              1.027
 Vibration     6          0.791              1.406              0.860
 Vibration     7          0.819              1.335              0.761
 Vibration     8          0.946              1.055              0.469
 Vibration     9          0.979              0.992              0.419

 Optimization completed.
    -- Stationary point found.
 Normal termination of Gaussian 09 at Mon Jan 27 14:09:54 2020.
