 Gaussian 09, Revision D.01,
 Gaussian 09:  ES64L-G09RevD.01 24-Apr-2013

 -----------------------------
 # b3lyp 6-31G(2df,p) opt Freq
 -----------------------------

 -----
 titel
 -----
 Symbolic Z-matrix:
 Charge =  0 Multiplicity = 1

 SCF Done:  E(RB3LYP) =  -423.147580356     A.U. after   13 cycles
 Optimization completed.
    -- Stationary point found.
 Normal termination of Gaussian 09 at Tue Jan 28 02:23:18 2020.

 ----------------------------------------------------------------------
 #N Geom=AllCheck Guess=TCheck SCRF=Check GenChk RB3LYP/6-31G(2df,p) Fr
 eq
 ----------------------------------------------------------------------

 Structure from the checkpoint file:  "/scratch/puck/g09_af5349b3-fdee-4859-864e-38668c988f50/Gau-194432.chk"
 -----
 titel
 -----
 Charge =  0 Multiplicity = 1

                         Standard orientation:
 ---------------------------------------------------------------------
 Center     Atomic      Atomic             Coordinates (Angstroms)
 Number     Number       Type             X           Y           Z
 ---------------------------------------------------------------------
      1          6           0        2.448562   -0.772336   -0.312679
      2          6           0        1.184200   -0.546736    0.497601
      3          8           0        0.067122   -1.169617   -0.167162
      4          6           0       -1.053841   -0.321010   -0.038478
      5          6           0       -2.370955   -1.033330   -0.113906
      6          6           0       -0.891885    1.096189   -0.576486
      7          8           0        0.492327    1.402599   -0.738228
      8          6           0        0.736198    0.908235    0.618342
      9          6           0       -0.778164    0.819152    0.905650
     10          1           0        2.608446   -1.841595   -0.473974
     11          1           0        2.359332   -0.276291   -1.281283
     12          1           0        3.319019   -0.372205    0.217778
     13          1           0        1.291011   -0.979408    1.507116
     14          1           0       -2.451235   -1.588221   -1.053714
     15          1           0       -2.478221   -1.743097    0.712584
     16          1           0       -3.199258   -0.319970   -0.066562
     17          1           0       -1.612345    1.645790   -1.172915
     18          1           0        1.377468    1.575741    1.195552
     19          1           0       -1.334507    1.134408    1.778284
 ---------------------------------------------------------------------

 SCF Done:  E(RB3LYP) =  -423.147580356     A.U. after    1 cycles

 The electronic state is 1-A.
 Alpha  occ. eigenvalues --  -19.13862 -19.13702 -10.24229 -10.24070 -10.23714
 Alpha  occ. eigenvalues --  -10.23250 -10.19197 -10.18479 -10.17092  -1.07440
 Alpha  occ. eigenvalues --   -1.01268  -0.83397  -0.77147  -0.72101  -0.68685
 Alpha  occ. eigenvalues --   -0.60332  -0.56906  -0.54329  -0.52049  -0.49944
 Alpha  occ. eigenvalues --   -0.47047  -0.43469  -0.41602  -0.40744  -0.40194
 Alpha  occ. eigenvalues --   -0.39150  -0.38171  -0.36411  -0.35231  -0.33262
 Alpha  occ. eigenvalues --   -0.31608  -0.30036  -0.25208  -0.21308
 Alpha virt. eigenvalues --    0.07435   0.09492   0.10299   0.12397   0.13082
 Alpha virt. eigenvalues --    0.14426   0.15003   0.15264   0.15895   0.16489
 Alpha virt. eigenvalues --    0.17776   0.18638   0.19086   0.20463   0.21724

 Mulliken charges:
               1
     1  C   -0.405545
     2  C    0.138838
     3  O   -0.318134
     4  C    0.434774
     5  C   -0.482341
     6  C    0.024357
     7  O   -0.300657
     8  C    0.043000
     9  C   -0.247953
    10  H    0.125435
    11  H    0.142642
    12  H    0.109129
    13  H    0.066411
    14  H    0.135518
    15  H    0.127741
    16  H    0.120856
    17  H    0.102859
    18  H    0.085637
    19  H    0.097433
 Sum of Mulliken charges =   0.00000

 Dipole moment (field-independent basis, Debye):
    X=             -0.8676    Y=              0.3319    Z=              1.6797  Tot=              1.9194
 Quadrupole moment (field-independent basis, Debye-Ang):
   XX=            -48.1463   YY=            -55.8862   ZZ=            -52.4556
   XY=             -1.3317   XZ=              2.2496   YZ=              1.2667

  Exact polarizability:  86.911  -0.482  70.331   3.179   0.196  66.270
 Approx polarizability: 111.634   0.817 105.396   4.553  -1.415 106.464

                      1                      2                      3
                      A                      A                      A
 Frequencies --    153.0727               210.1847               225.7692
 Red. masses --      3.0280                 1.0684                 2.2477
 Frc consts  --      0.0418                 0.0278                 0.0675
 IR Inten    --      2.8576                 0.2647                 1.1335

                      4                      5                      6
                      A                      A                      A
 Frequencies --    232.4873               269.0733               318.5380
 Red. masses --      1.1462                 2.6329                 3.4040
 Frc consts  --      0.0365                 0.1123                 0.2035
 IR Inten    --      0.3012                 1.0808                 1.4085

                      7                      8                      9
                      A                      A                      A
 Frequencies --    408.7039               509.2837               555.6223
 Red. masses --      4.4230                 3.4328                 3.6931
 Frc consts  --      0.4353                 0.5246                 0.6717
 IR Inten    --      2.6482                 1.2627                 4.4179

                     10                     11                     12
                      A                      A                      A
 Frequencies --    586.2287               679.4652               751.9684
 Red. masses --      3.5374                 3.3900                 2.8021
 Frc consts  --      0.7163                 0.9221                 0.9335
 IR Inten    --      5.0452                 2.4389                17.0371

                     13                     14                     15
                      A                      A                      A
 Frequencies --    792.3216               838.9782               847.4016
 Red. masses --      3.5993                 2.0537                 2.8650
 Frc consts  --      1.3313                 0.8517                 1.2121
 IR Inten    --     11.6893                 5.0216                14.3177

                     16                     17                     18
                      A                      A                      A
 Frequencies --    878.9993               890.9905               908.2078
 Red. masses --      2.5856                 1.9965                 2.2649
 Frc consts  --      1.1770                 0.9338                 1.1007
 IR Inten    --      3.2883                 2.8986                 6.0336

                     19                     20                     21
                      A                      A                      A
 Frequencies --    946.2216               978.4993              1026.9280
 Red. masses --      1.6558                 1.9201                 2.1580
 Frc consts  --      0.8734                 1.0832                 1.3409
 IR Inten    --      9.5367                46.0394                71.4268

                     22                     23                     24
                      A                      A                      A
 Frequencies --   1032.6518              1055.8132              1099.0807
 Red. masses --      2.0368                 1.9211                 2.7510
 Frc consts  --      1.2797                 1.2617                 1.9579
 IR Inten    --      3.1838                 4.6411                63.2852

                     25                     26                     27
                      A                      A                      A
 Frequencies --   1112.2156              1125.5567              1144.3981
 Red. masses --      2.5631                 2.2457                 2.0539
 Frc consts  --      1.8681                 1.6763                 1.5848
 IR Inten    --      6.9895                 9.2940                10.9036

                     28                     29                     30
                      A                      A                      A
 Frequencies --   1184.0192              1210.8426              1224.2017
 Red. masses --      1.5758                 2.9010                 1.3406
 Frc consts  --      1.3015                 2.5059                 1.1838
 IR Inten    --      6.4532                34.5596                 8.2004

                     31                     32                     33
                      A                      A                      A
 Frequencies --   1276.9091              1297.5091              1353.4889
 Red. masses --      2.1842                 1.5292                 1.4465
 Frc consts  --      2.0983                 1.5168                 1.5613
 IR Inten    --     29.9282                 2.9254                 5.1863

                     34                     35                     36
                      A                      A                      A
 Frequencies --   1380.4459              1404.4549              1405.3657
 Red. masses --      1.4998                 1.5932                 1.4542
 Frc consts  --      1.6839                 1.8515                 1.6922
 IR Inten    --      2.7206                18.1064                 6.2866

                     37                     38                     39
                      A                      A                      A
 Frequencies --   1427.2017              1477.4715              1485.8440
 Red. masses --      2.2226                 1.0458                 1.0522
 Frc consts  --      2.6674                 1.3450                 1.3686
 IR Inten    --      3.7914                 3.1953                 3.7244

                     40                     41                     42
                      A                      A                      A
 Frequencies --   1500.5754              1503.8472              2957.3637
 Red. masses --      1.0524                 1.0902                 1.0828
 Frc consts  --      1.3961                 1.4526                 5.5796
 IR Inten    --      2.4490                 1.1237                61.9001

                     43                     44                     45
                      A                      A                      A
 Frequencies --   3037.3839              3045.1775              3105.2995
 Red. masses --      1.0349                 1.0365                 1.1017
 Frc consts  --      5.6254                 5.6632                 6.2592
 IR Inten    --     25.9529                20.9206                15.5129

                     46                     47                     48
                      A                      A                      A
 Frequencies --   3109.2501              3113.7110              3115.0177
 Red. masses --      1.0910                 1.1010                 1.0994
 Frc consts  --      6.2143                 6.2889                 6.2853
 IR Inten    --     26.4367                14.0775                29.7038

                     49                     50                     51
                      A                      A                      A
 Frequencies --   3141.4066              3169.7026              3196.9499
 Red. masses --      1.1019                 1.0914                 1.0986
 Frc consts  --      6.4069                 6.4603                 6.6154
 IR Inten    --     11.9405                23.6873                 9.7045

 - Thermochemistry -
 -------------------
 Temperature   298.150 Kelvin.  Pressure   1.00000 Atm.
 Atom     1 has atomic number  6 and mass  12.00000

 Molecular mass:   126.06808 amu.
 Principal axes and moments of inertia in atomic units:
                           1         2         3
     Eigenvalues --   610.790521052.273061350.94049
           X            0.99998  -0.00581   0.00279
           Y            0.00574   0.99969   0.02441
           Z           -0.00293  -0.02440   0.99970
 This molecule is an asymmetric top.
 Rotational symmetry number  1.
 Warning -- assumption of classical behavior for rotation
           may cause significant error
 Rotational temperatures (Kelvin)      0.14181     0.08231     0.06411
 Rotational constants (GHZ):           2.95476     1.71509     1.33591
 Zero-point vibrational energy     416911.1 (Joules/Mol)
                                   99.64416 (Kcal/Mol)
 Warning -- explicit consideration of  10 degrees of freedom as
           vibrations may cause significant error
 Vibrational temperatures:    220.24   302.41   324.83   334.50   387.14
          (Kelvin)            458.30   588.03   732.74   799.42   843.45
                              977.60  1081.91  1139.97  1207.10  1219.22
                             1264.68  1281.94  1306.71  1361.40  1407.84
                             1477.52  1485.75  1519.08  1581.33  1600.23
                             1619.42  1646.53  1703.54  1742.13  1761.35
                             1837.19  1866.82  1947.37  1986.15  2020.69
                             2022.01  2053.42  2125.75  2137.80  2158.99
                             2163.70  4254.98  4370.11  4381.33  4467.83
                             4473.51  4479.93  4481.81  4519.78  4560.49
                             4599.69

 Zero-point correction=                           0.158793 (Hartree/Particle)
 Thermal correction to Energy=                    0.166571
 Thermal correction to Enthalpy=                  0.167515
 Thermal correction to Gibbs Free Energy=         0.127040
 Sum of electronic and zero-point Energies=           -422.988787
 Sum of electronic and thermal Energies=              -422.981009
 Sum of electronic and thermal Enthalpies=            -422.980065
 Sum of electronic and thermal Free Energies=         -423.020540

                     E (Thermal)             CV                S
                      KCal/Mol        Cal/Mol-Kelvin    Cal/Mol-Kelvin
 Total                  104.525             31.147             85.188
 Electronic               0.000              0.000              0.000
 Translational            0.889              2.981             40.409
 Rotational               0.889              2.981             28.253
 Vibrational            102.748             25.185             16.526
 Vibration     1          0.619              1.899              2.634
 Vibration     2          0.642              1.825              2.042
 Vibration     3          0.650              1.802              1.912
 Vibration     4          0.653              1.791              1.860
 Vibration     5          0.673              1.730              1.602
 Vibration     6          0.705              1.638              1.318
 Vibration     7          0.773              1.451              0.931
 Vibration     8          0.864              1.229              0.635
 Vibration     9          0.911              1.127              0.533
 Vibration    10          0.943              1.061              0.474

 Optimization completed.
    -- Stationary point found.
 Normal termination of Gaussian 09 at Tue Jan 28 03:08:04 2020.
