 Gaussian 09, Revision D.01,
 Gaussian 09:  ES64L-G09RevD.01 24-Apr-2013

 -----------------------------
 # b3lyp 6-31G(2df,p) opt Freq
 -----------------------------

 -----
 titel
 -----
 Symbolic Z-matrix:
 Charge =  0 Multiplicity = 1

 SCF Done:  E(RB3LYP) =  -423.181031017     A.U. after   14 cycles
 Optimization completed.
    -- Stationary point found.
 Normal termination of Gaussian 09 at Tue Jan 28 03:55:35 2020.

 ----------------------------------------------------------------------
 #N Geom=AllCheck Guess=TCheck SCRF=Check GenChk RB3LYP/6-31G(2df,p) Fr
 eq
 ----------------------------------------------------------------------

 Structure from the checkpoint file:  "/scratch/puck/g09_a545e19c-9325-4bb5-9da6-f5965e4f4d8a/Gau-196264.chk"
 -----
 titel
 -----
 Charge =  0 Multiplicity = 1

                         Standard orientation:
 ---------------------------------------------------------------------
 Center     Atomic      Atomic             Coordinates (Angstroms)
 Number     Number       Type             X           Y           Z
 ---------------------------------------------------------------------
      1          6           0       -2.758414    0.106592    0.385621
      2          6           0       -1.328860    0.251361   -0.056178
      3          6           0       -0.650755    1.402285   -0.031994
      4          6           0        0.786093    1.535338   -0.472974
      5          6           0        1.607826    0.248668   -0.262214
      6          8           0        2.015523    0.120141    1.086390
      7          6           0        0.812657   -0.994543   -0.697346
      8          8           0        0.188463   -1.701965    0.383551
      9          6           0       -0.648477   -0.977337   -0.556369
     10          1           0       -2.844563   -0.608551    1.213194
     11          1           0       -3.173450    1.062257    0.716132
     12          1           0       -3.389737   -0.276819   -0.426272
     13          1           0       -1.150056    2.304682    0.314567
     14          1           0        0.822133    1.830941   -1.532807
     15          1           0        1.281021    2.336291    0.084942
     16          1           0        2.520965    0.311709   -0.865271
     17          1           0        1.358948   -0.453866    1.504961
     18          1           0        1.270070   -1.642913   -1.442340
     19          1           0       -1.247643   -1.643318   -1.177911
 ---------------------------------------------------------------------

 SCF Done:  E(RB3LYP) =  -423.181031017     A.U. after    1 cycles

 The electronic state is 1-A.
 Alpha  occ. eigenvalues --  -19.16143 -19.12243 -10.24350 -10.24017 -10.23497
 Alpha  occ. eigenvalues --  -10.19423 -10.18841 -10.18646 -10.18521  -1.07774
 Alpha  occ. eigenvalues --   -1.00648  -0.82356  -0.76234  -0.69999  -0.68027
 Alpha  occ. eigenvalues --   -0.63395  -0.59502  -0.54160  -0.51187  -0.47622
 Alpha  occ. eigenvalues --   -0.45919  -0.44613  -0.43437  -0.42719  -0.40234
 Alpha  occ. eigenvalues --   -0.39318  -0.38435  -0.36178  -0.35553  -0.32784
 Alpha  occ. eigenvalues --   -0.30432  -0.28114  -0.26259  -0.24097
 Alpha virt. eigenvalues --    0.00073   0.08253   0.09164   0.11114   0.11217
 Alpha virt. eigenvalues --    0.12521   0.14198   0.15076   0.16180   0.17202
 Alpha virt. eigenvalues --    0.17769   0.19637   0.20407   0.20557   0.22987

 Mulliken charges:
               1
     1  C   -0.491729
     2  C    0.312592
     3  C   -0.152765
     4  C   -0.283346
     5  C    0.098272
     6  O   -0.437736
     7  C   -0.006364
     8  O   -0.265229
     9  C   -0.036143
    10  H    0.136389
    11  H    0.124576
    12  H    0.124031
    13  H    0.089138
    14  H    0.106255
    15  H    0.118755
    16  H    0.078837
    17  H    0.291745
    18  H    0.098566
    19  H    0.094157
 Sum of Mulliken charges =   0.00000

 Dipole moment (field-independent basis, Debye):
    X=             -1.6890    Y=              0.5642    Z=             -1.9123  Tot=              2.6131
 Quadrupole moment (field-independent basis, Debye-Ang):
   XX=            -54.1852   YY=            -53.4451   ZZ=            -52.5970
   XY=             -0.0564   XZ=             -3.9258   YZ=              1.5475

  Exact polarizability:  88.623   6.061  79.829  -4.529   1.688  61.046
 Approx polarizability: 120.094  14.185 125.027  -3.746  -1.826  97.103

                      1                      2                      3
                      A                      A                      A
 Frequencies --     61.8900               176.1616               196.5627
 Red. masses --      4.4423                 1.1128                 3.5210
 Frc consts  --      0.0100                 0.0203                 0.0802
 IR Inten    --      0.9674                 0.1293                 2.5603

                      4                      5                      6
                      A                      A                      A
 Frequencies --    255.6234               298.3048               339.9462
 Red. masses --      2.1672                 3.5808                 3.0565
 Frc consts  --      0.0834                 0.1877                 0.2081
 IR Inten    --      0.0923                 5.1173                 1.7402

                      7                      8                      9
                      A                      A                      A
 Frequencies --    355.9228               431.0340               466.7063
 Red. masses --      3.2425                 1.0979                 3.9714
 Frc consts  --      0.2420                 0.1202                 0.5097
 IR Inten    --      4.1896                63.3864                 2.5313

                     10                     11                     12
                      A                      A                      A
 Frequencies --    545.2854               566.1420               620.2545
 Red. masses --      5.3820                 3.3958                 4.6302
 Frc consts  --      0.9429                 0.6413                 1.0495
 IR Inten    --      0.7287                 3.7554                11.3688

                     13                     14                     15
                      A                      A                      A
 Frequencies --    742.8514               760.4484               826.0244
 Red. masses --      3.3374                 3.7125                 1.9361
 Frc consts  --      1.0851                 1.2649                 0.7783
 IR Inten    --     12.7910                 7.8290                 3.0310

                     16                     17                     18
                      A                      A                      A
 Frequencies --    873.2894               892.3555               917.5244
 Red. masses --      2.0872                 2.8096                 2.3587
 Frc consts  --      0.9378                 1.3182                 1.1699
 IR Inten    --     25.2387                 3.2816                 1.7651

                     19                     20                     21
                      A                      A                      A
 Frequencies --    941.3285               970.3264              1020.4831
 Red. masses --      3.4158                 3.0636                 1.5221
 Frc consts  --      1.7833                 1.6995                 0.9339
 IR Inten    --     14.3174                48.8673                14.8843

                     22                     23                     24
                      A                      A                      A
 Frequencies --   1069.6779              1081.9739              1100.8305
 Red. masses --      1.5325                 2.3380                 1.4680
 Frc consts  --      1.0332                 1.6126                 1.0481
 IR Inten    --      1.0896                23.0468                 2.1191

                     25                     26                     27
                      A                      A                      A
 Frequencies --   1105.3066              1136.9466              1190.3979
 Red. masses --      2.4379                 1.3821                 1.8874
 Frc consts  --      1.7548                 1.0526                 1.5758
 IR Inten    --     41.1158                 1.4576                 8.3144

                     28                     29                     30
                      A                      A                      A
 Frequencies --   1218.0283              1281.1320              1295.1396
 Red. masses --      1.1999                 1.3328                 1.7920
 Frc consts  --      1.0489                 1.2889                 1.7710
 IR Inten    --     20.2662                12.7247                 0.5757

                     31                     32                     33
                      A                      A                      A
 Frequencies --   1302.9359              1343.9352              1388.0295
 Red. masses --      1.3636                 1.3192                 1.3691
 Frc consts  --      1.3639                 1.4039                 1.5541
 IR Inten    --     17.4731                 2.1739                 4.4996

                     34                     35                     36
                      A                      A                      A
 Frequencies --   1391.4871              1413.7855              1446.6288
 Red. masses --      1.5382                 1.2651                 1.3755
 Frc consts  --      1.7548                 1.4899                 1.6960
 IR Inten    --      0.1331                 1.1665                63.2249

                     37                     38                     39
                      A                      A                      A
 Frequencies --   1462.7379              1465.3239              1477.6232
 Red. masses --      1.7818                 1.4076                 1.0594
 Frc consts  --      2.2461                 1.7807                 1.3628
 IR Inten    --     13.6658                15.0437                 6.9252

                     40                     41                     42
                      A                      A                      A
 Frequencies --   1492.2978              1732.9363              2993.4095
 Red. masses --      1.0822                 7.0929                 1.0707
 Frc consts  --      1.4199                12.5499                 5.6527
 IR Inten    --      9.7182                 0.9623                23.1055

                     43                     44                     45
                      A                      A                      A
 Frequencies --   3017.8172              3038.3890              3065.9198
 Red. masses --      1.0381                 1.0858                 1.0986
 Frc consts  --      5.5703                 5.9061                 6.0842
 IR Inten    --     27.7473                48.8901                17.1101

                     46                     47                     48
                      A                      A                      A
 Frequencies --   3077.9574              3105.5456              3114.0634
 Red. masses --      1.0896                 1.0863                 1.0993
 Frc consts  --      6.0822                 6.1726                 6.2808
 IR Inten    --     14.5770                24.2157                16.2154

                     49                     50                     51
                      A                      A                      A
 Frequencies --   3127.7686              3148.5466              3739.5917
 Red. masses --      1.0913                 1.0897                 1.0650
 Frc consts  --      6.2904                 6.3649                 8.7754
 IR Inten    --     42.3265                20.4614                43.9784

 - Thermochemistry -
 -------------------
 Temperature   298.150 Kelvin.  Pressure   1.00000 Atm.
 Atom     1 has atomic number  6 and mass  12.00000

 Molecular mass:   126.06808 amu.
 Principal axes and moments of inertia in atomic units:
                           1         2         3
     Eigenvalues --   685.727461166.543971515.82263
           X            0.99961   0.00929  -0.02648
           Y           -0.00888   0.99984   0.01557
           Z            0.02663  -0.01533   0.99953
 This molecule is an asymmetric top.
 Rotational symmetry number  1.
 Warning -- assumption of classical behavior for rotation
           may cause significant error
 Rotational temperatures (Kelvin)      0.12631     0.07425     0.05714
 Rotational constants (GHZ):           2.63186     1.54708     1.19060
 Zero-point vibrational energy     419199.2 (Joules/Mol)
                                  100.19101 (Kcal/Mol)
 Warning -- explicit consideration of  12 degrees of freedom as
           vibrations may cause significant error
 Vibrational temperatures:     89.05   253.46   282.81   367.78   429.19
          (Kelvin)            489.11   512.09   620.16   671.49   784.54
                              814.55   892.41  1068.80  1094.11  1188.46
                             1256.47  1283.90  1320.11  1354.36  1396.08
                             1468.25  1539.03  1556.72  1583.85  1590.29
                             1635.81  1712.71  1752.47  1843.26  1863.41
                             1874.63  1933.62  1997.06  2002.04  2034.12
                             2081.37  2104.55  2108.27  2125.97  2147.08
                             2493.31  4306.84  4341.96  4371.56  4411.17
                             4428.49  4468.18  4480.44  4500.16  4530.05
                             5380.43

 Zero-point correction=                           0.159665 (Hartree/Particle)
 Thermal correction to Energy=                    0.167953
 Thermal correction to Enthalpy=                  0.168897
 Thermal correction to Gibbs Free Energy=         0.126832
 Sum of electronic and zero-point Energies=           -423.021366
 Sum of electronic and thermal Energies=              -423.013078
 Sum of electronic and thermal Enthalpies=            -423.012134
 Sum of electronic and thermal Free Energies=         -423.054199

                     E (Thermal)             CV                S
                      KCal/Mol        Cal/Mol-Kelvin    Cal/Mol-Kelvin
 Total                  105.392             32.189             88.534
 Electronic               0.000              0.000              0.000
 Translational            0.889              2.981             40.409
 Rotational               0.889              2.981             28.585
 Vibrational            103.615             26.228             19.541
 Vibration     1          0.597              1.973              4.396
 Vibration     2          0.628              1.872              2.369
 Vibration     3          0.636              1.845              2.165
 Vibration     4          0.666              1.753              1.691
 Vibration     5          0.691              1.677              1.426
 Vibration     6          0.720              1.596              1.212
 Vibration     7          0.731              1.563              1.140
 Vibration     8          0.792              1.403              0.855
 Vibration     9          0.824              1.324              0.747
 Vibration    10          0.900              1.150              0.554
 Vibration    11          0.922              1.105              0.512
 Vibration    12          0.980              0.989              0.416

 Normal termination of Gaussian 09 at Tue Jan 28 04:41:46 2020.
