 Gaussian 09, Revision D.01,
 Gaussian 09:  ES64L-G09RevD.01 24-Apr-2013

 -----------------------------
 # b3lyp 6-31G(2df,p) opt Freq
 -----------------------------

 -----
 titel
 -----
 Symbolic Z-matrix:
 Charge =  0 Multiplicity = 1

 SCF Done:  E(RB3LYP) =  -423.219229873     A.U. after   14 cycles
 Optimization completed.
    -- Stationary point found.
 Normal termination of Gaussian 09 at Mon Jan 27 18:26:30 2020.

 ----------------------------------------------------------------------
 #N Geom=AllCheck Guess=TCheck SCRF=Check GenChk RB3LYP/6-31G(2df,p) Fr
 eq
 ----------------------------------------------------------------------

 Structure from the checkpoint file:  "/scratch/puck/g09_dbcb0618-abbb-4766-81cf-1e885b6eec31/Gau-75222.chk"
 -----
 titel
 -----
 Charge =  0 Multiplicity = 1

                         Standard orientation:
 ---------------------------------------------------------------------
 Center     Atomic      Atomic             Coordinates (Angstroms)
 Number     Number       Type             X           Y           Z
 ---------------------------------------------------------------------
      1          6           0       -2.396774   -0.836067    0.070080
      2          6           0       -0.997470   -0.250447    0.002582
      3          6           0       -0.855776    1.001181   -0.883155
      4          8           0        0.398470    1.585824   -0.485690
      5          6           0        0.884121    0.810934    0.631063
      6          6           0       -0.391984    0.322455    1.315508
      7          6           0        1.406488   -0.485233   -0.014455
      8          8           0        2.543541   -0.837242   -0.170837
      9          6           0        0.122623   -1.224325   -0.443266
     10          1           0       -2.428868   -1.704346    0.736383
     11          1           0       -3.115796   -0.098948    0.443943
     12          1           0       -2.738497   -1.165425   -0.917444
     13          1           0       -0.824110    0.762943   -1.952980
     14          1           0       -1.667018    1.721292   -0.710724
     15          1           0        1.615859    1.395519    1.184840
     16          1           0       -0.212780   -0.442395    2.077475
     17          1           0       -0.982478    1.136569    1.744302
     18          1           0        0.126671   -1.445067   -1.514886
     19          1           0        0.063556   -2.179794    0.091167
 ---------------------------------------------------------------------

 SCF Done:  E(RB3LYP) =  -423.219229873     A.U. after    1 cycles

 The electronic state is 1-A.
 Alpha  occ. eigenvalues --  -19.14987 -19.13269 -10.26612 -10.23828 -10.23418
 Alpha  occ. eigenvalues --  -10.21311 -10.19674 -10.19470 -10.19089  -1.05297
 Alpha  occ. eigenvalues --   -1.03483  -0.84700  -0.76640  -0.72000  -0.69504
 Alpha  occ. eigenvalues --   -0.62165  -0.56946  -0.54675  -0.50207  -0.48141
 Alpha  occ. eigenvalues --   -0.47680  -0.43796  -0.42509  -0.41688  -0.41221
 Alpha  occ. eigenvalues --   -0.40539  -0.39028  -0.36682  -0.36401  -0.36174
 Alpha  occ. eigenvalues --   -0.33629  -0.30937  -0.27939  -0.22738
 Alpha virt. eigenvalues --   -0.01826   0.06864   0.10349   0.12136   0.12250
 Alpha virt. eigenvalues --    0.13986   0.14755   0.15093   0.15404   0.16234
 Alpha virt. eigenvalues --    0.16714   0.17776   0.19023   0.19822   0.21490

 Mulliken charges:
               1
     1  C   -0.482909
     2  C    0.264543
     3  C   -0.089337
     4  O   -0.281365
     5  C   -0.008426
     6  C   -0.277535
     7  C    0.438708
     8  O   -0.324277
     9  C   -0.370897
    10  H    0.121135
    11  H    0.119422
    12  H    0.121967
    13  H    0.104833
    14  H    0.098142
    15  H    0.092112
    16  H    0.109067
    17  H    0.110550
    18  H    0.128164
    19  H    0.126103
 Sum of Mulliken charges =   0.00000

 Dipole moment (field-independent basis, Debye):
    X=             -3.5727    Y=             -0.4827    Z=              0.9498  Tot=              3.7281
 Quadrupole moment (field-independent basis, Debye-Ang):
   XX=            -60.5534   YY=            -55.0788   ZZ=            -50.6632
   XY=              1.8804   XZ=              2.2315   YZ=              1.1437

  Exact polarizability:  84.496  -1.638  71.332   2.042   2.015  67.826
 Approx polarizability: 121.292  -5.433 107.568   1.875   0.748 103.030

                      1                      2                      3
                      A                      A                      A
 Frequencies --    117.9877               220.0114               243.8524
 Red. masses --      4.1459                 1.0863                 3.7852
 Frc consts  --      0.0340                 0.0310                 0.1326
 IR Inten    --      3.0243                 0.1827                 8.1374

                      4                      5                      6
                      A                      A                      A
 Frequencies --    267.1942               290.4419               397.6939
 Red. masses --      2.8255                 2.3471                 1.9164
 Frc consts  --      0.1189                 0.1167                 0.1786
 IR Inten    --      0.5598                 0.0902                 1.2755

                      7                      8                      9
                      A                      A                      A
 Frequencies --    442.7654               469.3487               528.3561
 Red. masses --      2.3972                 2.9135                 4.3401
 Frc consts  --      0.2769                 0.3781                 0.7138
 IR Inten    --      0.9044                 9.9095                 1.5283

                     10                     11                     12
                      A                      A                      A
 Frequencies --    582.2698               602.7917               707.8620
 Red. masses --      3.7300                 2.7609                 4.0951
 Frc consts  --      0.7451                 0.5911                 1.2090
 IR Inten    --      1.9754                 1.3671                 1.4898

                     13                     14                     15
                      A                      A                      A
 Frequencies --    800.0885               812.1469               897.3514
 Red. masses --      3.5574                 3.3525                 2.8707
 Frc consts  --      1.3417                 1.3028                 1.3620
 IR Inten    --      2.1113                 3.7214                17.3928

                     16                     17                     18
                      A                      A                      A
 Frequencies --    905.4653               924.4111               934.7014
 Red. masses --      2.2986                 2.1313                 1.8662
 Frc consts  --      1.1103                 1.0730                 0.9606
 IR Inten    --      8.6828                 4.2899                 1.2218

                     19                     20                     21
                      A                      A                      A
 Frequencies --    958.0068               974.2953              1021.8512
 Red. masses --      1.9738                 1.4838                 2.5026
 Frc consts  --      1.0673                 0.8299                 1.5396
 IR Inten    --     16.9233                10.5644                24.8732

                     22                     23                     24
                      A                      A                      A
 Frequencies --   1045.4380              1083.8442              1109.1784
 Red. masses --      2.7894                 1.4445                 1.4334
 Frc consts  --      1.7962                 0.9998                 1.0390
 IR Inten    --     33.6837                 7.4676                 2.3432

                     25                     26                     27
                      A                      A                      A
 Frequencies --   1143.0090              1179.8858              1188.7519
 Red. masses --      2.3877                 1.3744                 2.0129
 Frc consts  --      1.8379                 1.1273                 1.6759
 IR Inten    --     22.1402                 3.6755                 9.7090

                     28                     29                     30
                      A                      A                      A
 Frequencies --   1229.2429              1255.4583              1270.4412
 Red. masses --      1.6785                 1.8469                 1.7969
 Frc consts  --      1.4943                 1.7152                 1.7088
 IR Inten    --      4.0724                 3.1976                 2.4345

                     31                     32                     33
                      A                      A                      A
 Frequencies --   1286.1116              1292.3773              1315.3399
 Red. masses --      1.7831                 1.5819                 1.7475
 Frc consts  --      1.7377                 1.5567                 1.7813
 IR Inten    --      5.0868                 0.4570                 6.6895

                     34                     35                     36
                      A                      A                      A
 Frequencies --   1384.0121              1417.4034              1449.5103
 Red. masses --      1.5622                 1.2627                 1.1007
 Frc consts  --      1.7630                 1.4947                 1.3626
 IR Inten    --      0.7241                 2.1765                 7.3695

                     37                     38                     39
                      A                      A                      A
 Frequencies --   1486.1856              1495.1005              1497.5313
 Red. masses --      1.1150                 1.0496                 1.0540
 Frc consts  --      1.4510                 1.3823                 1.3926
 IR Inten    --      3.2180                 5.5460                 5.2435

                     40                     41                     42
                      A                      A                      A
 Frequencies --   1528.4131              1866.2142              3007.2862
 Red. masses --      1.0926                12.5258                 1.0596
 Frc consts  --      1.5038                25.7026                 5.6462
 IR Inten    --      0.2764               244.1496                59.8227

                     43                     44                     45
                      A                      A                      A
 Frequencies --   3028.2558              3044.3484              3054.4110
 Red. masses --      1.0359                 1.0614                 1.1038
 Frc consts  --      5.5968                 5.7959                 6.0670
 IR Inten    --     30.3692                 9.5320                23.6400

                     46                     47                     48
                      A                      A                      A
 Frequencies --   3056.7707              3093.7784              3096.0065
 Red. masses --      1.0600                 1.1012                 1.1012
 Frc consts  --      5.8353                 6.2099                 6.2189
 IR Inten    --     20.9907                13.2726                17.2035

                     49                     50                     51
                      A                      A                      A
 Frequencies --   3098.9933              3112.0838              3150.2938
 Red. masses --      1.1013                 1.1075                 1.0911
 Frc consts  --      6.2315                 6.3200                 6.3802
 IR Inten    --     20.2627                21.7710                20.3993

 - Thermochemistry -
 -------------------
 Temperature   298.150 Kelvin.  Pressure   1.00000 Atm.
 Atom     1 has atomic number  6 and mass  12.00000

 Molecular mass:   126.06808 amu.
 Principal axes and moments of inertia in atomic units:
                           1         2         3
     Eigenvalues --   639.970831140.081471361.60155
           X            0.99929   0.03656   0.00864
           Y           -0.03680   0.99892   0.02851
           Z           -0.00759  -0.02881   0.99956
 This molecule is an asymmetric top.
 Rotational symmetry number  1.
 Warning -- assumption of classical behavior for rotation
           may cause significant error
 Rotational temperatures (Kelvin)      0.13534     0.07597     0.06361
 Rotational constants (GHZ):           2.82004     1.58299     1.32545
 Zero-point vibrational energy     420873.6 (Joules/Mol)
                                  100.59120 (Kcal/Mol)
 Warning -- explicit consideration of  11 degrees of freedom as
           vibrations may cause significant error
 Vibrational temperatures:    169.76   316.55   350.85   384.43   417.88
          (Kelvin)            572.19   637.04   675.29   760.19   837.76
                              867.28  1018.45  1151.15  1168.50  1291.09
                             1302.76  1330.02  1344.83  1378.36  1401.79
                             1470.21  1504.15  1559.41  1595.86  1644.53
                             1697.59  1710.35  1768.60  1806.32  1827.88
                             1850.43  1859.44  1892.48  1991.28  2039.32
                             2085.52  2138.29  2151.11  2154.61  2199.04
                             2685.06  4326.81  4356.98  4380.13  4394.61
                             4398.01  4451.25  4454.46  4458.75  4477.59
                             4532.56

 Zero-point correction=                           0.160302 (Hartree/Particle)
 Thermal correction to Energy=                    0.167957
 Thermal correction to Enthalpy=                  0.168901
 Thermal correction to Gibbs Free Energy=         0.128539
 Sum of electronic and zero-point Energies=           -423.058928
 Sum of electronic and thermal Energies=              -423.051273
 Sum of electronic and thermal Enthalpies=            -423.050329
 Sum of electronic and thermal Free Energies=         -423.090691

                     E (Thermal)             CV                S
                      KCal/Mol        Cal/Mol-Kelvin    Cal/Mol-Kelvin
 Total                  105.395             30.718             84.949
 Electronic               0.000              0.000              0.000
 Translational            0.889              2.981             40.409
 Rotational               0.889              2.981             28.387
 Vibrational            103.617             24.756             16.154
 Vibration     1          0.608              1.934              3.133
 Vibration     2          0.647              1.811              1.959
 Vibration     3          0.659              1.773              1.775
 Vibration     4          0.672              1.733              1.614
 Vibration     5          0.686              1.692              1.471
 Vibration     6          0.764              1.475              0.971
 Vibration     7          0.802              1.377              0.818
 Vibration     8          0.826              1.318              0.739
 Vibration     9          0.883              1.187              0.591
 Vibration    10          0.939              1.070              0.481
 Vibration    11          0.961              1.026              0.445

 Normal termination of Gaussian 09 at Mon Jan 27 19:19:55 2020.
