 Gaussian 09, Revision D.01,
 Gaussian 09:  ES64L-G09RevD.01 24-Apr-2013

 -----------------------------
 # b3lyp 6-31G(2df,p) opt Freq
 -----------------------------

 -----
 titel
 -----
 Symbolic Z-matrix:
 Charge =  0 Multiplicity = 1

 SCF Done:  E(RB3LYP) =  -423.219429859     A.U. after   13 cycles
 Optimization completed.
    -- Stationary point found.
 Normal termination of Gaussian 09 at Mon Jan 27 13:31:38 2020.

 ----------------------------------------------------------------------
 #N Geom=AllCheck Guess=TCheck SCRF=Check GenChk RB3LYP/6-31G(2df,p) Fr
 eq
 ----------------------------------------------------------------------

 Structure from the checkpoint file:  "/scratch/puck/g09_3a6e575d-5d06-44e9-b4a0-bc58914cb9dc/Gau-2090.chk"
 -----
 titel
 -----
 Charge =  0 Multiplicity = 1

                         Standard orientation:
 ---------------------------------------------------------------------
 Center     Atomic      Atomic             Coordinates (Angstroms)
 Number     Number       Type             X           Y           Z
 ---------------------------------------------------------------------
      1          8           0       -3.486763   -0.774103   -0.163316
      2          6           0       -2.476613   -0.393635    0.366909
      3          6           0       -1.212660    0.025023   -0.346396
      4          6           0       -0.778231    1.467035    0.027017
      5          6           0        0.777184    1.463672    0.045032
      6          6           0        1.212297    0.026503   -0.341822
      7          6           0       -0.000239   -0.840166    0.059911
      8          6           0        2.477445   -0.397570    0.365991
      9          8           0        3.488170   -0.769601   -0.169163
     10          1           0       -2.401876   -0.321771    1.480290
     11          1           0       -1.388974   -0.063670   -1.422125
     12          1           0       -1.186056    2.193380   -0.679277
     13          1           0       -1.169268    1.736122    1.014904
     14          1           0        1.205359    2.201608   -0.636795
     15          1           0        1.145627    1.710683    1.047377
     16          1           0        1.386495   -0.052860   -1.418726
     17          1           0        0.000709   -1.824295   -0.414515
     18          1           0       -0.001638   -0.996069    1.148700
     19          1           0        2.403258   -0.338661    1.480144
 ---------------------------------------------------------------------

 SCF Done:  E(RB3LYP) =  -423.219429859     A.U. after    1 cycles

 The electronic state is 1-A.
 Alpha  occ. eigenvalues --  -19.14596 -19.14595 -10.27676 -10.27675 -10.21205
 Alpha  occ. eigenvalues --  -10.20910 -10.20908 -10.20700 -10.20682  -1.05326
 Alpha  occ. eigenvalues --   -1.05312  -0.86722  -0.76651  -0.73890  -0.64253
 Alpha  occ. eigenvalues --   -0.61505  -0.58832  -0.56808  -0.51269  -0.48702
 Alpha  occ. eigenvalues --   -0.46218  -0.44672  -0.43911  -0.43641  -0.41651
 Alpha  occ. eigenvalues --   -0.40901  -0.38604  -0.37455  -0.35732  -0.35483
 Alpha  occ. eigenvalues --   -0.34662  -0.34220  -0.26298  -0.25193
 Alpha virt. eigenvalues --   -0.03578  -0.02054   0.06799   0.07904   0.11268
 Alpha virt. eigenvalues --    0.11675   0.13082   0.13474   0.14269   0.15000
 Alpha virt. eigenvalues --    0.15585   0.17715   0.18611   0.21375   0.22773

 Mulliken charges:
               1
     1  O   -0.245030
     2  C    0.149472
     3  C   -0.054031
     4  C   -0.239760
     5  C   -0.238575
     6  C   -0.054390
     7  C   -0.256836
     8  C    0.149513
     9  O   -0.245047
    10  H    0.068717
    11  H    0.099318
    12  H    0.122676
    13  H    0.109803
    14  H    0.122401
    15  H    0.109549
    16  H    0.099263
    17  H    0.128430
    18  H    0.105805
    19  H    0.068721
 Sum of Mulliken charges =   0.00000

 Dipole moment (field-independent basis, Debye):
    X=             -0.0009    Y=              1.8781    Z=              1.1397  Tot=              2.1968
 Quadrupole moment (field-independent basis, Debye-Ang):
   XX=            -78.1794   YY=            -52.4752   ZZ=            -51.1278
   XY=             -0.0380   XZ=              0.0363   YZ=             -1.0233

  Exact polarizability:  97.654   0.014  68.062  -0.017   1.068  68.767
 Approx polarizability: 134.459   0.083  99.162  -0.086   4.469 110.114

                      1                      2                      3
                      A                      A                      A
 Frequencies --     11.2338                59.8315                85.3514
 Red. masses --      1.9305                 8.5850                 3.9269
 Frc consts  --      0.0001                 0.0181                 0.0169
 IR Inten    --      0.0124                 9.2994                 4.8700

                      4                      5                      6
                      A                      A                      A
 Frequencies --     86.1708               277.5386               305.0019
 Red. masses --      3.7673                 2.1567                 2.9117
 Frc consts  --      0.0165                 0.0979                 0.1596
 IR Inten    --      1.8855                 1.9047                 2.9153

                      7                      8                      9
                      A                      A                      A
 Frequencies --    342.8706               368.2362               372.4258
 Red. masses --      2.1492                 2.3672                 5.2064
 Frc consts  --      0.1489                 0.1891                 0.4255
 IR Inten    --      1.1902                 5.4898                 0.7940

                     10                     11                     12
                      A                      A                      A
 Frequencies --    477.9262               612.8812               667.4143
 Red. masses --      5.8341                 2.5650                 3.3052
 Frc consts  --      0.7851                 0.5677                 0.8674
 IR Inten    --      1.5573                15.8388                14.6922

                     13                     14                     15
                      A                      A                      A
 Frequencies --    775.6090               875.5714               877.5546
 Red. masses --      1.2048                 2.3481                 2.6225
 Frc consts  --      0.4270                 1.0606                 1.1899
 IR Inten    --      2.0730                 2.4478                 2.2065

                     16                     17                     18
                      A                      A                      A
 Frequencies --    913.7037               949.3783               980.9446
 Red. masses --      2.3768                 2.1352                 2.7102
 Frc consts  --      1.1691                 1.1339                 1.5365
 IR Inten    --      0.4897                 4.8611                 0.2205

                     19                     20                     21
                      A                      A                      A
 Frequencies --    991.5312              1015.5405              1049.3268
 Red. masses --      1.6927                 1.7001                 2.1983
 Frc consts  --      0.9805                 1.0330                 1.4261
 IR Inten    --      1.9417                 1.5380                50.4654

                     22                     23                     24
                      A                      A                      A
 Frequencies --   1080.9789              1103.6026              1119.3913
 Red. masses --      2.3542                 2.8818                 2.8323
 Frc consts  --      1.6208                 2.0679                 2.0910
 IR Inten    --      7.6220                19.8908                 6.7141

                     25                     26                     27
                      A                      A                      A
 Frequencies --   1198.1512              1209.5678              1245.8097
 Red. masses --      1.5025                 1.6447                 1.2394
 Frc consts  --      1.2708                 1.4178                 1.1334
 IR Inten    --      8.6191                 7.7522                 3.4231

                     28                     29                     30
                      A                      A                      A
 Frequencies --   1274.9010              1282.7639              1296.1428
 Red. masses --      1.2742                 1.2344                 1.2787
 Frc consts  --      1.2203                 1.1968                 1.2657
 IR Inten    --      0.4529                 0.0170                 0.4857

                     31                     32                     33
                      A                      A                      A
 Frequencies --   1332.9170              1336.8265              1341.7886
 Red. masses --      1.2937                 1.4155                 1.2016
 Frc consts  --      1.3542                 1.4904                 1.2746
 IR Inten    --      0.5586                 1.1630                 0.8951

                     34                     35                     36
                      A                      A                      A
 Frequencies --   1362.6792              1425.4666              1427.2994
 Red. masses --      1.4795                 1.1866                 1.2074
 Frc consts  --      1.6187                 1.4206                 1.4492
 IR Inten    --      4.0849                 4.2116                 2.4004

                     37                     38                     39
                      A                      A                      A
 Frequencies --   1485.8777              1487.0044              1507.9012
 Red. masses --      1.0758                 1.0898                 1.0947
 Frc consts  --      1.3994                 1.4198                 1.4665
 IR Inten    --      0.0095                 3.0480                 5.0671

                     40                     41                     42
                      A                      A                      A
 Frequencies --   1835.5845              1839.4618              2827.5577
 Red. masses --     10.4838                10.5137                 1.0806
 Frc consts  --     20.8121                20.9599                 5.0901
 IR Inten    --    372.4241                77.3391                 2.5672

                     43                     44                     45
                      A                      A                      A
 Frequencies --   2829.3146              3008.7469              3034.6119
 Red. masses --      1.0811                 1.0685                 1.0685
 Frc consts  --      5.0991                 5.6991                 5.7973
 IR Inten    --    189.1401                19.2337                15.8483

                     46                     47                     48
                      A                      A                      A
 Frequencies --   3048.4747              3071.9577              3074.1342
 Red. masses --      1.0669                 1.0850                 1.0840
 Frc consts  --      5.8419                 6.0326                 6.0354
 IR Inten    --     33.2005                 0.5783                16.1855

                     49                     50                     51
                      A                      A                      A
 Frequencies --   3096.0609              3106.5261              3115.1484
 Red. masses --      1.0951                 1.0950                 1.0987
 Frc consts  --      6.1847                 6.2259                 6.2820
 IR Inten    --      4.2922                19.7741                34.7786

 - Thermochemistry -
 -------------------
 Temperature   298.150 Kelvin.  Pressure   1.00000 Atm.
 Atom     1 has atomic number  8 and mass  15.99491

 Molecular mass:   126.06808 amu.
 Principal axes and moments of inertia in atomic units:
                           1         2         3
     Eigenvalues --   439.260562239.893462536.26726
           X            1.00000  -0.00009   0.00010
           Y            0.00009   0.99998  -0.00578
           Z           -0.00010   0.00578   0.99998
 This molecule is an asymmetric top.
 Rotational symmetry number  1.
 Warning -- assumption of classical behavior for rotation
           may cause significant error
 Rotational temperatures (Kelvin)      0.19718     0.03867     0.03415
 Rotational constants (GHZ):           4.10859     0.80573     0.71157
 Zero-point vibrational energy     415718.4 (Joules/Mol)
                                   99.35909 (Kcal/Mol)
 Warning -- explicit consideration of  11 degrees of freedom as
           vibrations may cause significant error
 Vibrational temperatures:     16.16    86.08   122.80   123.98   399.32
          (Kelvin)            438.83   493.31   529.81   535.84   687.63
                              881.80   960.26  1115.93  1259.75  1262.60
                             1314.61  1365.94  1411.36  1426.59  1461.13
                             1509.75  1555.29  1587.84  1610.55  1723.87
                             1740.30  1792.44  1834.30  1845.61  1864.86
                             1917.77  1923.39  1930.53  1960.59  2050.93
                             2053.56  2137.84  2139.46  2169.53  2640.99
                             2646.57  4068.22  4070.75  4328.91  4366.12
                             4386.07  4419.86  4422.99  4454.54  4469.59
                             4482.00

 Zero-point correction=                           0.158339 (Hartree/Particle)
 Thermal correction to Energy=                    0.167529
 Thermal correction to Enthalpy=                  0.168473
 Thermal correction to Gibbs Free Energy=         0.121461
 Sum of electronic and zero-point Energies=           -423.061091
 Sum of electronic and thermal Energies=              -423.051901
 Sum of electronic and thermal Enthalpies=            -423.050957
 Sum of electronic and thermal Free Energies=         -423.097969

                     E (Thermal)             CV                S
                      KCal/Mol        Cal/Mol-Kelvin    Cal/Mol-Kelvin
 Total                  105.126             32.087             98.946
 Electronic               0.000              0.000              0.000
 Translational            0.889              2.981             40.409
 Rotational               0.889              2.981             29.302
 Vibrational            103.348             26.126             29.235
 Vibration     1          0.593              1.987              7.780
 Vibration     2          0.597              1.973              4.463
 Vibration     3          0.601              1.959              3.764
 Vibration     4          0.601              1.959              3.745
 Vibration     5          0.679              1.715              1.549
 Vibration     6          0.696              1.664              1.389
 Vibration     7          0.722              1.590              1.199
 Vibration     8          0.741              1.538              1.087
 Vibration     9          0.744              1.529              1.070
 Vibration    10          0.834              1.299              0.716
 Vibration    11          0.972              1.005              0.428

 Normal termination of Gaussian 09 at Mon Jan 27 15:11:38 2020.
