 Gaussian 09, Revision D.01,
 Gaussian 09:  ES64L-G09RevD.01 24-Apr-2013

 -----------------------------
 # b3lyp 6-31G(2df,p) opt Freq
 -----------------------------

 -----
 titel
 -----
 Symbolic Z-matrix:
 Charge =  0 Multiplicity = 1

 SCF Done:  E(RB3LYP) =  -423.176178919     A.U. after   14 cycles
 Optimization completed.
    -- Stationary point found.
 Normal termination of Gaussian 09 at Tue Jan 28 12:40:44 2020.

 ----------------------------------------------------------------------
 #N Geom=AllCheck Guess=TCheck SCRF=Check GenChk RB3LYP/6-31G(2df,p) Fr
 eq
 ----------------------------------------------------------------------

 Structure from the checkpoint file:  "/scratch/puck/g09_57ca501f-5b57-4abb-a4b8-62b5b07243c5/Gau-30073.chk"
 -----
 titel
 -----
 Charge =  0 Multiplicity = 1

                         Standard orientation:
 ---------------------------------------------------------------------
 Center     Atomic      Atomic             Coordinates (Angstroms)
 Number     Number       Type             X           Y           Z
 ---------------------------------------------------------------------
      1          8           0        2.681803    0.002773   -0.308347
      2          6           0        1.816373    0.790168    0.501875
      3          6           0        0.370930    0.654750    0.114116
      4          6           0       -0.517188    1.622954   -0.129378
      5          6           0       -1.902157    1.089550   -0.438456
      6          6           0       -1.746511   -0.421536   -0.291246
      7          6           0       -1.335252   -0.985685    1.058345
      8          6           0       -0.286838   -0.694491    0.026208
      9          8           0        0.442270   -1.782783   -0.480774
     10          1           0        2.374514   -0.908121   -0.219372
     11          1           0        1.935201    0.522785    1.566186
     12          1           0        2.141540    1.829171    0.391406
     13          1           0       -0.305607    2.685478   -0.068513
     14          1           0       -2.654492    1.497079    0.249848
     15          1           0       -2.228065    1.371761   -1.448638
     16          1           0       -2.293706   -1.085875   -0.949606
     17          1           0       -1.385243   -0.360995    1.944736
     18          1           0       -1.570811   -2.032944    1.216182
     19          1           0        0.597935   -1.612519   -1.418049
 ---------------------------------------------------------------------

 SCF Done:  E(RB3LYP) =  -423.176178919     A.U. after    1 cycles

 The electronic state is 1-A.
 Alpha  occ. eigenvalues --  -19.15948 -19.12280 -10.24272 -10.22647 -10.19253
 Alpha  occ. eigenvalues --  -10.19192 -10.18868 -10.18454 -10.18264  -1.04233
 Alpha  occ. eigenvalues --   -1.00382  -0.88247  -0.77769  -0.72743  -0.65212
 Alpha  occ. eigenvalues --   -0.60865  -0.57980  -0.55355  -0.51963  -0.48542
 Alpha  occ. eigenvalues --   -0.45671  -0.44722  -0.43564  -0.41816  -0.41060
 Alpha  occ. eigenvalues --   -0.39110  -0.37720  -0.35091  -0.34334  -0.32007
 Alpha  occ. eigenvalues --   -0.30163  -0.26594  -0.25402  -0.23401
 Alpha virt. eigenvalues --    0.01094   0.07461   0.10190   0.11540   0.12626
 Alpha virt. eigenvalues --    0.13470   0.13868   0.14898   0.15593   0.16986
 Alpha virt. eigenvalues --    0.18054   0.19045   0.20831   0.21481   0.23407

 Mulliken charges:
               1
     1  O   -0.427153
     2  C   -0.183543
     3  C    0.228129
     4  C   -0.186594
     5  C   -0.275926
     6  C   -0.117894
     7  C   -0.309224
     8  C    0.316739
     9  O   -0.466932
    10  H    0.285493
    11  H    0.095349
    12  H    0.111170
    13  H    0.093786
    14  H    0.113707
    15  H    0.109599
    16  H    0.091348
    17  H    0.113639
    18  H    0.120360
    19  H    0.287947
 Sum of Mulliken charges =   0.00000

 Dipole moment (field-independent basis, Debye):
    X=             -2.0112    Y=              0.3050    Z=             -0.2171  Tot=              2.0458
 Quadrupole moment (field-independent basis, Debye-Ang):
   XX=            -58.5620   YY=            -51.8128   ZZ=            -50.4302
   XY=             -0.8175   XZ=              1.7377   YZ=              2.1434

  Exact polarizability:  86.314  -4.139  80.984   2.865  -2.346  63.602
 Approx polarizability: 122.184 -13.933 122.367   3.646  -4.930  98.671

                      1                      2                      3
                      A                      A                      A
 Frequencies --     95.7097               164.1687               221.3478
 Red. masses --      4.1521                 3.0155                 3.3462
 Frc consts  --      0.0224                 0.0479                 0.0966
 IR Inten    --      2.5715                 6.6924                 6.2380

                      4                      5                      6
                      A                      A                      A
 Frequencies --    276.4305               284.1387               302.9572
 Red. masses --      2.1023                 2.6313                 1.2917
 Frc consts  --      0.0946                 0.1252                 0.0699
 IR Inten    --     13.1967                23.0062               147.8588

                      7                      8                      9
                      A                      A                      A
 Frequencies --    358.8606               412.5043               438.5291
 Red. masses --      5.0832                 2.8965                 2.2451
 Frc consts  --      0.3857                 0.2904                 0.2544
 IR Inten    --     26.2890                33.0131                 4.9944

                     10                     11                     12
                      A                      A                      A
 Frequencies --    595.4463               605.7222               632.2318
 Red. masses --      3.5854                 1.1305                 4.6423
 Frc consts  --      0.7490                 0.2444                 1.0933
 IR Inten    --      0.4609                43.8204                12.5710

                     13                     14                     15
                      A                      A                      A
 Frequencies --    667.7132               745.1122               828.6313
 Red. masses --      3.3551                 3.4961                 2.0132
 Frc consts  --      0.8813                 1.1436                 0.8145
 IR Inten    --      9.6010                 8.6897                 9.4898

                     16                     17                     18
                      A                      A                      A
 Frequencies --    831.5302               852.2291               907.1973
 Red. masses --      1.4526                 2.0873                 2.0318
 Frc consts  --      0.5918                 0.8932                 0.9852
 IR Inten    --      5.1739                 2.3089                12.6350

                     19                     20                     21
                      A                      A                      A
 Frequencies --    944.2422               976.7850              1003.3689
 Red. masses --      1.6681                 2.2536                 1.8316
 Frc consts  --      0.8763                 1.2668                 1.0864
 IR Inten    --      1.7987                 7.7802                 6.0213

                     22                     23                     24
                      A                      A                      A
 Frequencies --   1012.8195              1047.7100              1051.7262
 Red. masses --      1.6908                 5.5947                 1.4393
 Frc consts  --      1.0219                 3.6183                 0.9380
 IR Inten    --     21.3119                54.0143                 1.9677

                     25                     26                     27
                      A                      A                      A
 Frequencies --   1078.8645              1086.3419              1143.7604
 Red. masses --      1.4901                 1.5615                 3.6135
 Frc consts  --      1.0219                 1.0858                 2.7852
 IR Inten    --     18.5864                 4.2162                11.9554

                     28                     29                     30
                      A                      A                      A
 Frequencies --   1187.3946              1209.8451              1239.4998
 Red. masses --      1.2064                 1.1504                 1.4837
 Frc consts  --      1.0021                 0.9921                 1.3431
 IR Inten    --      2.4488                43.7526                 4.1104

                     31                     32                     33
                      A                      A                      A
 Frequencies --   1257.7156              1300.8560              1322.3468
 Red. masses --      2.3438                 1.7203                 1.4960
 Frc consts  --      2.1844                 1.7152                 1.5413
 IR Inten    --     80.1957                26.2602                10.6843

                     34                     35                     36
                      A                      A                      A
 Frequencies --   1362.3584              1381.1259              1401.2532
 Red. masses --      1.8980                 1.6823                 1.7206
 Frc consts  --      2.0756                 1.8907                 1.9905
 IR Inten    --      9.0929                16.3594                13.4975

                     37                     38                     39
                      A                      A                      A
 Frequencies --   1451.0766              1471.3180              1483.5237
 Red. masses --      1.1932                 1.2296                 1.2005
 Frc consts  --      1.4803                 1.5683                 1.5567
 IR Inten    --     77.3965                 1.7361                 7.5007

                     40                     41                     42
                      A                      A                      A
 Frequencies --   1497.1483              1704.3419              2952.1139
 Red. masses --      1.0967                 7.7885                 1.0714
 Frc consts  --      1.4484                13.3296                 5.5013
 IR Inten    --      1.1895                 4.5417                56.9499

                     43                     44                     45
                      A                      A                      A
 Frequencies --   3013.9946              3039.8800              3078.3618
 Red. masses --      1.0599                 1.1014                 1.0901
 Frc consts  --      5.6727                 5.9966                 6.0864
 IR Inten    --     45.0607                19.7139                29.6633

                     46                     47                     48
                      A                      A                      A
 Frequencies --   3124.3048              3181.6140              3186.6375
 Red. masses --      1.0538                 1.0913                 1.0937
 Frc consts  --      6.0609                 6.5089                 6.5433
 IR Inten    --     12.0577                10.6721                12.2033

                     49                     50                     51
                      A                      A                      A
 Frequencies --   3217.2238              3771.0867              3777.9303
 Red. masses --      1.1163                 1.0660                 1.0657
 Frc consts  --      6.8078                 8.9315                 8.9616
 IR Inten    --      7.4006                61.7691                25.7932

 - Thermochemistry -
 -------------------
 Temperature   298.150 Kelvin.  Pressure   1.00000 Atm.
 Atom     1 has atomic number  8 and mass  15.99491

 Molecular mass:   126.06808 amu.
 Principal axes and moments of inertia in atomic units:
                           1         2         3
     Eigenvalues --   683.195991213.259421621.99141
           X            0.99995   0.00057   0.00989
           Y           -0.00058   1.00000   0.00090
           Z           -0.00989  -0.00091   0.99995
 This molecule is an asymmetric top.
 Rotational symmetry number  1.
 Warning -- assumption of classical behavior for rotation
           may cause significant error
 Rotational temperatures (Kelvin)      0.12678     0.07139     0.05340
 Rotational constants (GHZ):           2.64162     1.48751     1.11267
 Zero-point vibrational energy     419763.8 (Joules/Mol)
                                  100.32596 (Kcal/Mol)
 Warning -- explicit consideration of  11 degrees of freedom as
           vibrations may cause significant error
 Vibrational temperatures:    137.70   236.20   318.47   397.72   408.81
          (Kelvin)            435.89   516.32   593.50   630.94   856.71
                              871.50   909.64   960.69  1072.05  1192.21
                             1196.38  1226.17  1305.25  1358.55  1405.37
                             1443.62  1457.22  1507.42  1513.20  1552.24
                             1563.00  1645.61  1708.39  1740.70  1783.36
                             1809.57  1871.64  1902.56  1960.13  1987.13
                             2016.09  2087.77  2116.90  2134.46  2154.06
                             2452.16  4247.43  4336.46  4373.70  4429.07
                             4495.17  4577.63  4584.85  4628.86  5425.75
                             5435.59

 Zero-point correction=                           0.159880 (Hartree/Particle)
 Thermal correction to Energy=                    0.168197
 Thermal correction to Enthalpy=                  0.169141
 Thermal correction to Gibbs Free Energy=         0.127303
 Sum of electronic and zero-point Energies=           -423.016299
 Sum of electronic and thermal Energies=              -423.007982
 Sum of electronic and thermal Enthalpies=            -423.007037
 Sum of electronic and thermal Free Energies=         -423.048876

                     E (Thermal)             CV                S
                      KCal/Mol        Cal/Mol-Kelvin    Cal/Mol-Kelvin
 Total                  105.545             32.829             88.056
 Electronic               0.000              0.000              0.000
 Translational            0.889              2.981             40.409
 Rotational               0.889              2.981             28.688
 Vibrational            103.768             26.868             18.960
 Vibration     1          0.603              1.952              3.540
 Vibration     2          0.623              1.886              2.501
 Vibration     3          0.648              1.809              1.948
 Vibration     4          0.678              1.717              1.556
 Vibration     5          0.683              1.703              1.509
 Vibration     6          0.694              1.668              1.401
 Vibration     7          0.734              1.557              1.127
 Vibration     8          0.776              1.443              0.918
 Vibration     9          0.799              1.386              0.831
 Vibration    10          0.953              1.041              0.458
 Vibration    11          0.964              1.020              0.440

 Normal termination of Gaussian 09 at Tue Jan 28 13:25:16 2020.
