 Gaussian 09, Revision D.01,
 Gaussian 09:  ES64L-G09RevD.01 24-Apr-2013

 -----------------------------
 # b3lyp 6-31G(2df,p) opt Freq
 -----------------------------

 -----
 titel
 -----
 Symbolic Z-matrix:
 Charge =  0 Multiplicity = 1

 SCF Done:  E(RB3LYP) =  -423.205213695     A.U. after   14 cycles
 Optimization completed.
    -- Stationary point found.
 Normal termination of Gaussian 09 at Mon Jan 27 12:51:29 2020.

 ----------------------------------------------------------------------
 #N Geom=AllCheck Guess=TCheck SCRF=Check GenChk RB3LYP/6-31G(2df,p) Fr
 eq
 ----------------------------------------------------------------------

 Structure from the checkpoint file:  "/scratch/puck/g09_769ec35a-949f-4d11-9552-1206db70ddd8/Gau-24929.chk"
 -----
 titel
 -----
 Charge =  0 Multiplicity = 1

                         Standard orientation:
 ---------------------------------------------------------------------
 Center     Atomic      Atomic             Coordinates (Angstroms)
 Number     Number       Type             X           Y           Z
 ---------------------------------------------------------------------
      1          6           0       -2.376700    0.090919   -0.311272
      2          8           0       -1.661029   -1.035722    0.204663
      3          6           0       -0.352709   -0.670525    0.516159
      4          8           0        0.563457   -1.365190   -0.327039
      5          6           0        1.894157   -0.939089   -0.070567
      6          6           0        2.100067    0.546863   -0.398024
      7          6           0        1.103027    1.429410    0.391979
      8          6           0       -0.251156    0.813280    0.258431
      9          6           0       -1.409071    1.238551   -0.233262
     10          1           0       -2.699424   -0.107596   -1.344291
     11          1           0       -3.282372    0.239899    0.293375
     12          1           0       -0.130361   -0.958715    1.560853
     13          1           0        2.157094   -1.128204    0.985794
     14          1           0        2.540048   -1.567667   -0.689388
     15          1           0        3.132884    0.835495   -0.172925
     16          1           0        1.938475    0.693827   -1.471525
     17          1           0        1.403529    1.445424    1.449592
     18          1           0        1.118181    2.463944    0.036496
     19          1           0       -1.643176    2.234432   -0.589645
 ---------------------------------------------------------------------

 SCF Done:  E(RB3LYP) =  -423.205213695     A.U. after    1 cycles

 The electronic state is 1-A.
 Alpha  occ. eigenvalues --  -19.13998 -19.13353 -10.27028 -10.23203 -10.22870
 Alpha  occ. eigenvalues --  -10.19655 -10.18891 -10.18744 -10.18606  -1.06383
 Alpha  occ. eigenvalues --   -1.00790  -0.81827  -0.76693  -0.74155  -0.66123
 Alpha  occ. eigenvalues --   -0.61634  -0.59097  -0.55448  -0.49389  -0.49000
 Alpha  occ. eigenvalues --   -0.47174  -0.46134  -0.43866  -0.42637  -0.41201
 Alpha  occ. eigenvalues --   -0.38737  -0.37783  -0.35503  -0.34785  -0.33313
 Alpha  occ. eigenvalues --   -0.30911  -0.27618  -0.24769  -0.24166
 Alpha virt. eigenvalues --    0.01448   0.09326   0.11477   0.12180   0.13235
 Alpha virt. eigenvalues --    0.13604   0.14231   0.15242   0.16661   0.17088
 Alpha virt. eigenvalues --    0.17497   0.17675   0.18822   0.20487   0.22277

 Mulliken charges:
               1
     1  C   -0.114833
     2  O   -0.267072
     3  C    0.148682
     4  O   -0.251271
     5  C   -0.068822
     6  C   -0.198308
     7  C   -0.326726
     8  C    0.312047
     9  C   -0.249460
    10  H    0.114788
    11  H    0.111726
    12  H    0.062999
    13  H    0.085363
    14  H    0.111627
    15  H    0.096908
    16  H    0.112890
    17  H    0.109209
    18  H    0.106994
    19  H    0.103259
 Sum of Mulliken charges =   0.00000

 Dipole moment (field-independent basis, Debye):
    X=              1.0442    Y=              2.4899    Z=              0.2682  Tot=              2.7132
 Quadrupole moment (field-independent basis, Debye-Ang):
   XX=            -48.3254   YY=            -55.7262   ZZ=            -52.6806
   XY=             -2.9408   XZ=              1.5765   YZ=             -1.3495

  Exact polarizability: 100.951  -4.796  71.318   6.264  -2.879  62.133
 Approx polarizability: 138.075  -8.316 103.775  13.278  -4.433  98.337

                      1                      2                      3
                      A                      A                      A
 Frequencies --    114.8426               168.9552               258.5371
 Red. masses --      3.0289                 3.2838                 2.1605
 Frc consts  --      0.0235                 0.0552                 0.0851
 IR Inten    --      3.8551                 0.7904                 1.2643

                      4                      5                      6
                      A                      A                      A
 Frequencies --    324.2195               349.9659               404.9821
 Red. masses --      2.3941                 1.9892                 5.8550
 Frc consts  --      0.1483                 0.1435                 0.5658
 IR Inten    --      2.2957                 0.4377                 4.5392

                      7                      8                      9
                      A                      A                      A
 Frequencies --    430.5408               508.4431               627.2816
 Red. masses --      4.2984                 2.8424                 3.5982
 Frc consts  --      0.4695                 0.4329                 0.8342
 IR Inten    --      1.1170                 1.2181                 1.3968

                     10                     11                     12
                      A                      A                      A
 Frequencies --    672.4428               786.0399               816.6371
 Red. masses --      3.0115                 6.4724                 1.3189
 Frc consts  --      0.8023                 2.3561                 0.5182
 IR Inten    --      7.2453                 6.4757                 4.2851

                     13                     14                     15
                      A                      A                      A
 Frequencies --    854.9140               876.1929               916.4104
 Red. masses --      2.8096                 1.5392                 2.4653
 Frc consts  --      1.2099                 0.6962                 1.2198
 IR Inten    --      3.1527                 8.6176                13.2638

                     16                     17                     18
                      A                      A                      A
 Frequencies --    931.6423               946.2577               976.7136
 Red. masses --      3.4655                 2.1035                 2.6818
 Frc consts  --      1.7722                 1.1097                 1.5074
 IR Inten    --     23.6819                 7.3480                23.9037

                     19                     20                     21
                      A                      A                      A
 Frequencies --   1012.4026              1037.6786              1040.4103
 Red. masses --      2.7511                 2.2082                 1.7463
 Frc consts  --      1.6614                 1.4009                 1.1137
 IR Inten    --     23.3194                43.8194                 3.0518

                     22                     23                     24
                      A                      A                      A
 Frequencies --   1081.5167              1094.8733              1151.4695
 Red. masses --      3.4482                 2.2829                 4.2042
 Frc consts  --      2.3764                 1.6124                 3.2842
 IR Inten    --    173.6603                35.2939                73.8093

                     25                     26                     27
                      A                      A                      A
 Frequencies --   1191.8410              1196.7088              1211.6591
 Red. masses --      2.1628                 1.1978                 1.4744
 Frc consts  --      1.8101                 1.0107                 1.2753
 IR Inten    --      2.0695                 9.7846                 6.7250

                     28                     29                     30
                      A                      A                      A
 Frequencies --   1223.2050              1292.0591              1305.6936
 Red. masses --      1.3849                 1.2820                 1.2009
 Frc consts  --      1.2208                 1.2609                 1.2062
 IR Inten    --      3.5908                 2.7618                10.3651

                     31                     32                     33
                      A                      A                      A
 Frequencies --   1341.5270              1360.7020              1366.1443
 Red. masses --      1.3699                 1.6897                 1.5952
 Frc consts  --      1.4526                 1.8433                 1.7541
 IR Inten    --      2.4703                17.1009                 3.6235

                     34                     35                     36
                      A                      A                      A
 Frequencies --   1379.4153              1399.2546              1416.6979
 Red. masses --      1.3061                 1.4688                 1.2561
 Frc consts  --      1.4643                 1.6943                 1.4854
 IR Inten    --     10.8142                27.1762                 6.3996

                     37                     38                     39
                      A                      A                      A
 Frequencies --   1475.8764              1484.4500              1497.7274
 Red. masses --      1.0894                 1.1045                 1.0920
 Frc consts  --      1.3981                 1.4341                 1.4432
 IR Inten    --      3.1100                 4.8861                 2.1180

                     40                     41                     42
                      A                      A                      A
 Frequencies --   1517.4799              1744.1263              2922.6979
 Red. masses --      1.0880                 7.9572                 1.0815
 Frc consts  --      1.4761                14.2616                 5.4429
 IR Inten    --      0.5451                 1.3068                60.0586

                     43                     44                     45
                      A                      A                      A
 Frequencies --   2949.0135              2993.2773              3006.1833
 Red. masses --      1.0718                 1.0591                 1.0677
 Frc consts  --      5.4920                 5.5908                 5.6853
 IR Inten    --     81.7981                71.7569                28.7929

                     46                     47                     48
                      A                      A                      A
 Frequencies --   3018.8380              3038.1709              3078.9873
 Red. masses --      1.1032                 1.0594                 1.0946
 Frc consts  --      5.9233                 5.7617                 6.1141
 IR Inten    --     43.1162                24.3447                28.3724

                     49                     50                     51
                      A                      A                      A
 Frequencies --   3086.7800              3092.0181              3207.8236
 Red. masses --      1.0974                 1.0973                 1.0955
 Frc consts  --      6.1608                 6.1808                 6.6418
 IR Inten    --     42.6105                32.2127                 7.4830

 - Thermochemistry -
 -------------------
 Temperature   298.150 Kelvin.  Pressure   1.00000 Atm.
 Atom     1 has atomic number  6 and mass  12.00000

 Molecular mass:   126.06808 amu.
 Principal axes and moments of inertia in atomic units:
                           1         2         3
     Eigenvalues --   567.912091160.726901568.23653
           X            0.99992  -0.00912   0.00889
           Y            0.00924   0.99986  -0.01410
           Z           -0.00876   0.01418   0.99986
 This molecule is an asymmetric top.
 Rotational symmetry number  1.
 Warning -- assumption of classical behavior for rotation
           may cause significant error
 Rotational temperatures (Kelvin)      0.15251     0.07462     0.05523
 Rotational constants (GHZ):           3.17785     1.55484     1.15081
 Zero-point vibrational energy     425761.3 (Joules/Mol)
                                  101.75939 (Kcal/Mol)
 Warning -- explicit consideration of   8 degrees of freedom as
           vibrations may cause significant error
 Vibrational temperatures:    165.23   243.09   371.98   466.48   503.52
          (Kelvin)            582.68   619.45   731.54   902.52   967.49
                             1130.93  1174.96  1230.03  1260.64  1318.51
                             1340.42  1361.45  1405.27  1456.62  1492.99
                             1496.92  1556.06  1575.28  1656.71  1714.79
                             1721.79  1743.31  1759.92  1858.98  1878.60
                             1930.16  1957.74  1965.57  1984.67  2013.21
                             2038.31  2123.45  2135.79  2154.89  2183.31
                             2509.41  4205.11  4242.97  4306.65  4325.22
                             4343.43  4371.24  4429.97  4441.18  4448.72
                             4615.34

 Zero-point correction=                           0.162164 (Hartree/Particle)
 Thermal correction to Energy=                    0.169408
 Thermal correction to Enthalpy=                  0.170352
 Thermal correction to Gibbs Free Energy=         0.130534
 Sum of electronic and zero-point Energies=           -423.043050
 Sum of electronic and thermal Energies=              -423.035806
 Sum of electronic and thermal Enthalpies=            -423.034862
 Sum of electronic and thermal Free Energies=         -423.074680

                     E (Thermal)             CV                S
                      KCal/Mol        Cal/Mol-Kelvin    Cal/Mol-Kelvin
 Total                  106.305             28.843             83.804
 Electronic               0.000              0.000              0.000
 Translational            0.889              2.981             40.409
 Rotational               0.889              2.981             28.427
 Vibrational            104.527             22.881             14.968
 Vibration     1          0.608              1.937              3.185
 Vibration     2          0.625              1.881              2.447
 Vibration     3          0.667              1.748              1.672
 Vibration     4          0.709              1.627              1.289
 Vibration     5          0.727              1.575              1.166
 Vibration     6          0.770              1.459              0.945
 Vibration     7          0.792              1.404              0.857
 Vibration     8          0.864              1.231              0.637

 Optimization completed.
    -- Stationary point found.
 Normal termination of Gaussian 09 at Mon Jan 27 13:33:39 2020.
