 Gaussian 09, Revision D.01,
 Gaussian 09:  ES64L-G09RevD.01 24-Apr-2013

 -----------------------------
 # b3lyp 6-31G(2df,p) opt Freq
 -----------------------------

 -----
 titel
 -----
 Symbolic Z-matrix:
 Charge =  0 Multiplicity = 1

 SCF Done:  E(RB3LYP) =  -423.183423509     A.U. after   14 cycles
 Optimization completed.
    -- Stationary point found.
 Normal termination of Gaussian 09 at Mon Jan 27 13:15:55 2020.

 ----------------------------------------------------------------------
 #N Geom=AllCheck Guess=TCheck SCRF=Check GenChk RB3LYP/6-31G(2df,p) Fr
 eq
 ----------------------------------------------------------------------

 Structure from the checkpoint file:  "/scratch/puck/g09_6fb7f990-ce68-43d6-bb05-70dd6e4ec731/Gau-38275.chk"
 -----
 titel
 -----
 Charge =  0 Multiplicity = 1

                         Standard orientation:
 ---------------------------------------------------------------------
 Center     Atomic      Atomic             Coordinates (Angstroms)
 Number     Number       Type             X           Y           Z
 ---------------------------------------------------------------------
      1          8           0       -2.875502    0.529446    0.000512
      2          6           0       -2.058867   -0.355726    0.047641
      3          6           0       -0.571338   -0.172955   -0.008983
      4          6           0        0.224484   -1.075337   -1.010518
      5          6           0        1.376848   -1.004457    0.025117
      6          6           0        0.280057   -0.861270    1.115924
      7          8           0        2.127480    0.184008   -0.155151
      8          6           0        1.396779    1.375728    0.142942
      9          6           0       -0.104687    1.276937   -0.198390
     10          1           0       -2.374214   -1.422963    0.141953
     11          1           0       -0.201500   -2.080459   -1.087645
     12          1           0        0.419816   -0.666873   -2.004513
     13          1           0        2.096680   -1.822617    0.086078
     14          1           0       -0.130232   -1.838420    1.384762
     15          1           0        0.497627   -0.296777    2.024710
     16          1           0        1.511942    1.608615    1.210727
     17          1           0        1.882394    2.180079   -0.415823
     18          1           0       -0.676322    1.951891    0.445874
     19          1           0       -0.301673    1.582374   -1.231412
 ---------------------------------------------------------------------

 SCF Done:  E(RB3LYP) =  -423.183423509     A.U. after    1 cycles

 The electronic state is 1-A.
 Alpha  occ. eigenvalues --  -19.14273 -19.14203 -10.27056 -10.24434 -10.23244
 Alpha  occ. eigenvalues --  -10.21186 -10.19963 -10.19411 -10.18965  -1.04904
 Alpha  occ. eigenvalues --   -1.03819  -0.86320  -0.77273  -0.68131  -0.67492
 Alpha  occ. eigenvalues --   -0.64613  -0.58048  -0.53335  -0.50970  -0.49294
 Alpha  occ. eigenvalues --   -0.46082  -0.45244  -0.43773  -0.42157  -0.40964
 Alpha  occ. eigenvalues --   -0.39628  -0.39519  -0.38345  -0.35079  -0.32869
 Alpha  occ. eigenvalues --   -0.32171  -0.29935  -0.25400  -0.24601
 Alpha virt. eigenvalues --   -0.02850   0.08044   0.09424   0.10615   0.11972
 Alpha virt. eigenvalues --    0.12879   0.13186   0.14637   0.16317   0.16805
 Alpha virt. eigenvalues --    0.17008   0.18142   0.19714   0.20699   0.21858

 Mulliken charges:
               1
     1  O   -0.250784
     2  C    0.079059
     3  C    0.219601
     4  C   -0.270923
     5  C    0.133177
     6  C   -0.301725
     7  O   -0.273887
     8  C   -0.082529
     9  C   -0.277462
    10  H    0.066601
    11  H    0.101520
    12  H    0.108943
    13  H    0.081573
    14  H    0.107643
    15  H    0.113356
    16  H    0.100312
    17  H    0.113396
    18  H    0.119111
    19  H    0.113016
 Sum of Mulliken charges =   0.00000

 Dipole moment (field-independent basis, Debye):
    X=              1.0159    Y=             -1.2972    Z=              0.4194  Tot=              1.7002
 Quadrupole moment (field-independent basis, Debye-Ang):
   XX=            -66.4475   YY=            -49.4835   ZZ=            -51.5955
   XY=              3.7217   XZ=              0.5591   YZ=             -0.0532

  Exact polarizability:  81.381  -0.686  80.099   0.382  -0.295  64.739
 Approx polarizability: 117.233  -7.971 118.862  -0.347  -0.560  99.552

                      1                      2                      3
                      A                      A                      A
 Frequencies --     81.7396               189.3613               220.1683
 Red. masses --      4.6955                 4.0860                 2.0127
 Frc consts  --      0.0185                 0.0863                 0.0575
 IR Inten    --      6.4042                 7.1289                 3.0571

                      4                      5                      6
                      A                      A                      A
 Frequencies --    251.2279               368.4719               395.0864
 Red. masses --      2.9342                 2.3582                 4.8728
 Frc consts  --      0.1091                 0.1886                 0.4481
 IR Inten    --      2.0314                 1.4239                 0.8239

                      7                      8                      9
                      A                      A                      A
 Frequencies --    437.4147               444.0789               531.5309
 Red. masses --      2.1010                 2.1896                 4.4608
 Frc consts  --      0.2368                 0.2544                 0.7425
 IR Inten    --      1.5545                 2.1685                 1.6993

                     10                     11                     12
                      A                      A                      A
 Frequencies --    599.5016               732.5441               805.0826
 Red. masses --      2.4516                 4.0602                 1.7714
 Frc consts  --      0.5191                 1.2837                 0.6765
 IR Inten    --      1.5527                16.2947                 1.8277

                     13                     14                     15
                      A                      A                      A
 Frequencies --    822.4060               835.2793               864.1688
 Red. masses --      1.9443                 3.5466                 2.6855
 Frc consts  --      0.7748                 1.4579                 1.1816
 IR Inten    --      1.6453                11.0501                 3.8813

                     16                     17                     18
                      A                      A                      A
 Frequencies --    910.0578               947.4195               958.7079
 Red. masses --      2.5807                 2.1736                 1.9470
 Frc consts  --      1.2593                 1.1495                 1.0543
 IR Inten    --     12.9566                 5.4209                24.6810

                     19                     20                     21
                      A                      A                      A
 Frequencies --    969.8398               999.2535              1043.5163
 Red. masses --      1.7999                 1.9671                 1.6897
 Frc consts  --      0.9975                 1.1573                 1.0841
 IR Inten    --     14.6851                10.6656                 2.4754

                     22                     23                     24
                      A                      A                      A
 Frequencies --   1057.2369              1068.6477              1139.0358
 Red. masses --      2.6994                 1.2533                 1.9512
 Frc consts  --      1.7777                 0.8433                 1.4915
 IR Inten    --     27.5730                 5.1647                 1.0908

                     25                     26                     27
                      A                      A                      A
 Frequencies --   1178.7998              1193.0979              1202.2604
 Red. masses --      5.5687                 1.8452                 1.7143
 Frc consts  --      4.5591                 1.5476                 1.4599
 IR Inten    --     46.8344                28.0219                10.9669

                     28                     29                     30
                      A                      A                      A
 Frequencies --   1242.5274              1246.3525              1260.8324
 Red. masses --      1.4050                 1.4829                 1.4831
 Frc consts  --      1.2780                 1.3572                 1.3892
 IR Inten    --     14.8841                 2.8473                 5.0812

                     31                     32                     33
                      A                      A                      A
 Frequencies --   1272.9837              1295.1843              1361.9166
 Red. masses --      1.4001                 1.5902                 1.6994
 Frc consts  --      1.3367                 1.5717                 1.8571
 IR Inten    --      9.1871                 2.4266                 2.5277

                     34                     35                     36
                      A                      A                      A
 Frequencies --   1369.0114              1410.4270              1428.1439
 Red. masses --      1.2860                 1.3106                 1.2321
 Frc consts  --      1.4200                 1.5361                 1.4806
 IR Inten    --      2.9786                14.8441                 1.9888

                     37                     38                     39
                      A                      A                      A
 Frequencies --   1465.5260              1488.8375              1498.1371
 Red. masses --      1.0913                 1.0915                 1.1118
 Frc consts  --      1.3810                 1.4255                 1.4702
 IR Inten    --      3.1384                 3.3332                 5.7559

                     40                     41                     42
                      A                      A                      A
 Frequencies --   1526.5702              1821.0684              2843.1857
 Red. masses --      1.0888                11.0168                 1.0817
 Frc consts  --      1.4949                21.5258                 5.1520
 IR Inten    --      1.5672               190.1646               112.8078

                     43                     44                     45
                      A                      A                      A
 Frequencies --   3000.0915              3047.8857              3051.0991
 Red. masses --      1.0721                 1.0616                 1.0577
 Frc consts  --      5.6851                 5.8106                 5.8012
 IR Inten    --     46.8588                16.3926                27.7119

                     46                     47                     48
                      A                      A                      A
 Frequencies --   3066.4713              3085.2869              3096.7942
 Red. masses --      1.0586                 1.0916                 1.0989
 Frc consts  --      5.8649                 6.1220                 6.2092
 IR Inten    --     14.3303                33.9084                34.2188

                     49                     50                     51
                      A                      A                      A
 Frequencies --   3097.5103              3120.2725              3124.8595
 Red. masses --      1.0936                 1.1082                 1.1079
 Frc consts  --      6.1823                 6.3570                 6.3742
 IR Inten    --     46.4503                23.4102                24.1658

 - Thermochemistry -
 -------------------
 Temperature   298.150 Kelvin.  Pressure   1.00000 Atm.
 Atom     1 has atomic number  8 and mass  15.99491

 Molecular mass:   126.06808 amu.
 Principal axes and moments of inertia in atomic units:
                           1         2         3
     Eigenvalues --   551.600991311.935131556.12462
           X            0.99977   0.02098   0.00417
           Y           -0.02099   0.99978   0.00104
           Z           -0.00414  -0.00113   0.99999
 This molecule is an asymmetric top.
 Rotational symmetry number  1.
 Warning -- assumption of classical behavior for rotation
           may cause significant error
 Rotational temperatures (Kelvin)      0.15702     0.06602     0.05566
 Rotational constants (GHZ):           3.27182     1.37563     1.15977
 Zero-point vibrational energy     421485.7 (Joules/Mol)
                                  100.73751 (Kcal/Mol)
 Warning -- explicit consideration of  10 degrees of freedom as
           vibrations may cause significant error
 Vibrational temperatures:    117.60   272.45   316.77   361.46   530.15
          (Kelvin)            568.44   629.34   638.93   764.75   862.55
                             1053.97  1158.33  1183.26  1201.78  1243.34
                             1309.37  1363.12  1379.37  1395.38  1437.70
                             1501.39  1521.13  1537.54  1638.82  1696.03
                             1716.60  1729.78  1787.72  1793.22  1814.05
                             1831.54  1863.48  1959.49  1969.70  2029.29
                             2054.78  2108.56  2142.10  2155.48  2196.39
                             2620.11  4090.70  4316.46  4385.22  4389.85
                             4411.96  4439.03  4455.59  4456.62  4489.37
                             4495.97

 Zero-point correction=                           0.160535 (Hartree/Particle)
 Thermal correction to Energy=                    0.168170
 Thermal correction to Enthalpy=                  0.169114
 Thermal correction to Gibbs Free Energy=         0.128401
 Sum of electronic and zero-point Energies=           -423.022888
 Sum of electronic and thermal Energies=              -423.015254
 Sum of electronic and thermal Enthalpies=            -423.014310
 Sum of electronic and thermal Free Energies=         -423.055022

                     E (Thermal)             CV                S
                      KCal/Mol        Cal/Mol-Kelvin    Cal/Mol-Kelvin
 Total                  105.528             30.093             85.687
 Electronic               0.000              0.000              0.000
 Translational            0.889              2.981             40.409
 Rotational               0.889              2.981             28.512
 Vibrational            103.751             24.132             16.767
 Vibration     1          0.600              1.962              3.849
 Vibration     2          0.633              1.855              2.234
 Vibration     3          0.647              1.810              1.958
 Vibration     4          0.663              1.761              1.722
 Vibration     5          0.741              1.537              1.086
 Vibration     6          0.762              1.481              0.981
 Vibration     7          0.798              1.389              0.835
 Vibration     8          0.804              1.374              0.814
 Vibration     9          0.886              1.180              0.584
 Vibration    10          0.958              1.033              0.451

 Optimization completed.
    -- Stationary point found.
 Normal termination of Gaussian 09 at Mon Jan 27 14:01:47 2020.
