 Gaussian 09, Revision D.01,
 Gaussian 09:  ES64L-G09RevD.01 24-Apr-2013

 -----------------------------
 # b3lyp 6-31G(2df,p) opt Freq
 -----------------------------

 -----
 titel
 -----
 Symbolic Z-matrix:
 Charge =  0 Multiplicity = 1

 SCF Done:  E(RB3LYP) =  -423.139944057     A.U. after   15 cycles
 Optimization completed.
    -- Stationary point found.
 Normal termination of Gaussian 09 at Tue Jan 28 14:29:38 2020.

 ----------------------------------------------------------------------
 #N Geom=AllCheck Guess=TCheck SCRF=Check GenChk RB3LYP/6-31G(2df,p) Fr
 eq
 ----------------------------------------------------------------------

 Structure from the checkpoint file:  "/scratch/puck/g09_1912ee28-0e2f-43c0-bfca-f771c044973f/Gau-35132.chk"
 -----
 titel
 -----
 Charge =  0 Multiplicity = 1

                         Standard orientation:
 ---------------------------------------------------------------------
 Center     Atomic      Atomic             Coordinates (Angstroms)
 Number     Number       Type             X           Y           Z
 ---------------------------------------------------------------------
      1          6           0       -3.708392   -0.121638    0.023437
      2          8           0       -2.465150   -0.712933   -0.273481
      3          6           0       -1.374603    0.015344    0.240832
      4          6           0       -0.099473   -0.726275   -0.146109
      5          6           0        1.185232   -0.018257    0.360968
      6          6           0        1.370313    1.306453   -0.389079
      7          8           0        1.167491    2.388363    0.090908
      8          6           0        2.367709   -0.846710    0.158857
      9          6           0        3.351170   -1.505368   -0.050427
     10          1           0       -3.790822    0.891477   -0.400665
     11          1           0       -4.483568   -0.753385   -0.416564
     12          1           0       -3.879085   -0.052760    1.109454
     13          1           0       -1.370972    1.043470   -0.157979
     14          1           0       -1.446985    0.101673    1.339327
     15          1           0       -0.129432   -1.737568    0.268728
     16          1           0       -0.055817   -0.833280   -1.235756
     17          1           0        1.071722    0.230412    1.422827
     18          1           0        1.694954    1.179927   -1.445698
     19          1           0        4.219541   -2.094710   -0.213972
 ---------------------------------------------------------------------

 SCF Done:  E(RB3LYP) =  -423.139944057     A.U. after    1 cycles

 The electronic state is 1-A.
 Alpha  occ. eigenvalues --  -19.15195 -19.14522 -10.28292 -10.23575 -10.22918
 Alpha  occ. eigenvalues --  -10.22762 -10.20346 -10.19447 -10.18594  -1.05974
 Alpha  occ. eigenvalues --   -1.03901  -0.83462  -0.76075  -0.72027  -0.66747
 Alpha  occ. eigenvalues --   -0.61773  -0.59417  -0.54451  -0.50092  -0.49407
 Alpha  occ. eigenvalues --   -0.48995  -0.45919  -0.45501  -0.43866  -0.42202
 Alpha  occ. eigenvalues --   -0.40758  -0.37713  -0.36772  -0.36157  -0.32402
 Alpha  occ. eigenvalues --   -0.29130  -0.27842  -0.26089  -0.25515
 Alpha virt. eigenvalues --   -0.03480   0.04081   0.05347   0.08659   0.10392
 Alpha virt. eigenvalues --    0.11515   0.12167   0.13628   0.14184   0.15337
 Alpha virt. eigenvalues --    0.16077   0.16692   0.17831   0.18787   0.20849

 Mulliken charges:
               1
     1  C   -0.231892
     2  O   -0.233063
     3  C   -0.065646
     4  C   -0.217965
     5  C   -0.259334
     6  C    0.170647
     7  O   -0.244216
     8  C    0.286857
     9  C   -0.420886
    10  H    0.107786
    11  H    0.129070
    12  H    0.105966
    13  H    0.103216
    14  H    0.091447
    15  H    0.130614
    16  H    0.123316
    17  H    0.125904
    18  H    0.094771
    19  H    0.203410
 Sum of Mulliken charges =   0.00000

 Dipole moment (field-independent basis, Debye):
    X=             -0.4562    Y=             -1.3165    Z=             -0.0660  Tot=              1.3949
 Quadrupole moment (field-independent basis, Debye-Ang):
   XX=            -46.2966   YY=            -60.4997   ZZ=            -52.7386
   XY=             -6.2748   XZ=             -2.7294   YZ=             -1.3136

  Exact polarizability: 100.711 -12.527  77.934  -3.825   2.081  61.605
 Approx polarizability: 127.020 -22.823 121.902  -7.821   9.241  94.956

                      1                      2                      3
                      A                      A                      A
 Frequencies --     48.2517                59.4879                74.5617
 Red. masses --      3.7660                 3.0390                 2.4404
 Frc consts  --      0.0052                 0.0063                 0.0080
 IR Inten    --      6.7597                 2.3178                 2.3613

                      4                      5                      6
                      A                      A                      A
 Frequencies --    100.8295               127.2554               174.0178
 Red. masses --      3.7834                 2.6483                 2.9925
 Frc consts  --      0.0227                 0.0253                 0.0534
 IR Inten    --      0.5668                 1.8215                 1.0675

                      7                      8                      9
                      A                      A                      A
 Frequencies --    217.5061               230.9963               285.4155
 Red. masses --      3.4259                 1.2461                 2.5617
 Frc consts  --      0.0955                 0.0392                 0.1229
 IR Inten    --      0.6345                 2.5978                 4.5360

                     10                     11                     12
                      A                      A                      A
 Frequencies --    372.9858               411.2630               458.1250
 Red. masses --      4.5056                 3.5361                 4.1382
 Frc consts  --      0.3693                 0.3524                 0.5117
 IR Inten    --      0.7897                 5.7417                14.5720

                     13                     14                     15
                      A                      A                      A
 Frequencies --    505.7137               576.3316               637.3385
 Red. masses --      6.2858                 4.0406                 1.2193
 Frc consts  --      0.9472                 0.7907                 0.2918
 IR Inten    --      6.1945                 4.8300                45.4102

                     16                     17                     18
                      A                      A                      A
 Frequencies --    652.8528               784.6113               928.4398
 Red. masses --      1.2211                 1.2022                 1.8796
 Frc consts  --      0.3066                 0.4360                 0.9546
 IR Inten    --     42.9772                 7.0613                11.7883

                     19                     20                     21
                      A                      A                      A
 Frequencies --    956.8002               966.4483              1022.2933
 Red. masses --      2.9346                 3.2317                 3.2591
 Frc consts  --      1.5829                 1.7784                 2.0068
 IR Inten    --      2.8021                24.8278                10.5221

                     22                     23                     24
                      A                      A                      A
 Frequencies --   1067.0730              1084.8967              1133.9808
 Red. masses --      3.3941                 2.4133                 2.0069
 Frc consts  --      2.2770                 1.6736                 1.5205
 IR Inten    --      1.3174                 7.4626                 3.7093

                     25                     26                     27
                      A                      A                      A
 Frequencies --   1165.3069              1181.0482              1218.6661
 Red. masses --      5.2275                 1.2593                 1.4134
 Frc consts  --      4.1824                 1.0350                 1.2367
 IR Inten    --    175.8232                 0.5719                17.0798

                     28                     29                     30
                      A                      A                      A
 Frequencies --   1227.3803              1273.2352              1287.0020
 Red. masses --      1.5385                 1.3778                 1.2905
 Frc consts  --      1.3655                 1.3160                 1.2594
 IR Inten    --     32.6475                 5.2095                 1.6908

                     31                     32                     33
                      A                      A                      A
 Frequencies --   1314.7976              1343.2900              1414.2177
 Red. masses --      1.1068                 1.3890                 1.1847
 Frc consts  --      1.1273                 1.4767                 1.3960
 IR Inten    --      0.1626                 2.2032                 2.9779

                     34                     35                     36
                      A                      A                      A
 Frequencies --   1432.4354              1482.2363              1485.8640
 Red. masses --      1.3484                 1.1613                 1.0519
 Frc consts  --      1.6301                 1.5033                 1.3683
 IR Inten    --     27.3668                 0.5467                 4.9679

                     37                     38                     39
                      A                      A                      A
 Frequencies --   1491.8479              1505.7407              1531.2761
 Red. masses --      1.0855                 1.0657                 1.0930
 Frc consts  --      1.4234                 1.4236                 1.5101
 IR Inten    --      2.7705                 8.6718                 1.1165

                     40                     41                     42
                      A                      A                      A
 Frequencies --   1836.7244              2235.8362              2891.0267
 Red. masses --     10.3302                 5.9318                 1.0843
 Frc consts  --     20.5328                17.4711                 5.3397
 IR Inten    --    175.8094                 0.9200                73.6235

                     43                     44                     45
                      A                      A                      A
 Frequencies --   2949.9666              2972.6938              2984.4479
 Red. masses --      1.0570                 1.0409                 1.0972
 Frc consts  --      5.4196                 5.4196                 5.7581
 IR Inten    --     35.0948                68.5240                47.3142

                     46                     47                     48
                      A                      A                      A
 Frequencies --   3016.5292              3043.4823              3054.5609
 Red. masses --      1.1033                 1.0788                 1.0644
 Frc consts  --      5.9152                 5.8876                 5.8515
 IR Inten    --     54.0121                 1.2616                20.4269

                     49                     50                     51
                      A                      A                      A
 Frequencies --   3102.6820              3116.7920              3503.2665
 Red. masses --      1.1027                 1.0960                 1.1622
 Frc consts  --      6.2544                 6.2732                 8.4042
 IR Inten    --     15.3212                29.3606                74.8498

 - Thermochemistry -
 -------------------
 Temperature   298.150 Kelvin.  Pressure   1.00000 Atm.
 Atom     1 has atomic number  6 and mass  12.00000

 Molecular mass:   126.06808 amu.
 Principal axes and moments of inertia in atomic units:
                           1         2         3
     Eigenvalues --   675.978602281.886812849.43503
           X            0.99984  -0.01667  -0.00722
           Y            0.01665   0.99986  -0.00278
           Z            0.00726   0.00266   0.99997
 This molecule is an asymmetric top.
 Rotational symmetry number  1.
 Warning -- assumption of classical behavior for rotation
           may cause significant error
 Rotational temperatures (Kelvin)      0.12813     0.03796     0.03040
 Rotational constants (GHZ):           2.66982     0.79090     0.63337
 Zero-point vibrational energy     406370.4 (Joules/Mol)
                                   97.12486 (Kcal/Mol)
 Warning -- explicit consideration of  14 degrees of freedom as
           vibrations may cause significant error
 Vibrational temperatures:     69.42    85.59   107.28   145.07   183.09
          (Kelvin)            250.37   312.94   332.35   410.65   536.64
                              591.71   659.14   727.61   829.21   916.99
                              939.31  1128.88  1335.82  1376.62  1390.50
                             1470.85  1535.28  1560.92  1631.54  1676.61
                             1699.26  1753.39  1765.92  1831.90  1851.71
                             1891.70  1932.69  2034.74  2060.95  2132.60
                             2137.82  2146.43  2166.42  2203.16  2642.63
                             3216.87  4159.54  4244.34  4277.04  4293.95
                             4340.11  4378.89  4394.83  4464.06  4484.36
                             5040.41

 Zero-point correction=                           0.154778 (Hartree/Particle)
 Thermal correction to Energy=                    0.165593
 Thermal correction to Enthalpy=                  0.166537
 Thermal correction to Gibbs Free Energy=         0.117266
 Sum of electronic and zero-point Energies=           -422.985166
 Sum of electronic and thermal Energies=              -422.974351
 Sum of electronic and thermal Enthalpies=            -422.973407
 Sum of electronic and thermal Free Energies=         -423.022678

                     E (Thermal)             CV                S
                      KCal/Mol        Cal/Mol-Kelvin    Cal/Mol-Kelvin
 Total                  103.911             36.651            103.699
 Electronic               0.000              0.000              0.000
 Translational            0.889              2.981             40.409
 Rotational               0.889              2.981             29.865
 Vibrational            102.134             30.689             33.425
 Vibration     1          0.595              1.978              4.888
 Vibration     2          0.597              1.974              4.474
 Vibration     3          0.599              1.966              4.029
 Vibration     4          0.604              1.948              3.438
 Vibration     5          0.611              1.926              2.987
 Vibration     6          0.627              1.874              2.392
 Vibration     7          0.646              1.814              1.980
 Vibration     8          0.653              1.794              1.871
 Vibration     9          0.683              1.701              1.501
 Vibration    10          0.744              1.528              1.067
 Vibration    11          0.775              1.446              0.922
 Vibration    12          0.816              1.343              0.772
 Vibration    13          0.861              1.237              0.644
 Vibration    14          0.933              1.082              0.492

 Optimization completed.
    -- Stationary point found.
 Normal termination of Gaussian 09 at Tue Jan 28 15:02:07 2020.
