 Gaussian 09, Revision D.01,
 Gaussian 09:  ES64L-G09RevD.01 24-Apr-2013

 -----------------------------
 # b3lyp 6-31G(2df,p) opt Freq
 -----------------------------

 -----
 titel
 -----
 Symbolic Z-matrix:
 Charge =  0 Multiplicity = 1

 SCF Done:  E(RB3LYP) =  -423.174083150     A.U. after   14 cycles
 Optimization completed.
    -- Stationary point found.
 Normal termination of Gaussian 09 at Tue Jan 28 04:05:33 2020.

 ----------------------------------------------------------------------
 #N Geom=AllCheck Guess=TCheck SCRF=Check GenChk RB3LYP/6-31G(2df,p) Fr
 eq
 ----------------------------------------------------------------------

 Structure from the checkpoint file:  "/scratch/puck/g09_029d8f45-fb95-4c00-b26c-a8052d542a3c/Gau-81831.chk"
 -----
 titel
 -----
 Charge =  0 Multiplicity = 1

                         Standard orientation:
 ---------------------------------------------------------------------
 Center     Atomic      Atomic             Coordinates (Angstroms)
 Number     Number       Type             X           Y           Z
 ---------------------------------------------------------------------
      1          8           0       -1.764603    1.485296    0.457653
      2          6           0       -1.405712    0.131036    0.568774
      3          6           0       -1.891256   -0.862777   -0.505999
      4          8           0       -0.541064   -1.303608   -0.739516
      5          6           0        0.011338   -0.204332    0.046435
      6          6           0        1.091916   -0.692971    1.033410
      7          6           0        2.384495   -0.190847    0.441621
      8          6           0        2.173088    0.642650   -0.575236
      9          6           0        0.705354    0.852294   -0.846955
     10          1           0       -2.612107    1.617609    0.892761
     11          1           0       -1.562298   -0.242940    1.589119
     12          1           0       -2.546197   -1.683435   -0.191372
     13          1           0       -2.325422   -0.356493   -1.379182
     14          1           0        0.922319   -0.281582    2.038765
     15          1           0        1.041103   -1.783958    1.123000
     16          1           0        3.355275   -0.475041    0.831785
     17          1           0        2.946972    1.143924   -1.146035
     18          1           0        0.381005    1.865542   -0.581192
     19          1           0        0.429347    0.692561   -1.895045
 ---------------------------------------------------------------------

 SCF Done:  E(RB3LYP) =  -423.174083150     A.U. after    1 cycles

 The electronic state is 1-A.
 Alpha  occ. eigenvalues --  -19.14911 -19.12631 -10.23667 -10.23249 -10.22195
 Alpha  occ. eigenvalues --  -10.17842 -10.17376 -10.17286 -10.17265  -1.04416
 Alpha  occ. eigenvalues --   -1.01827  -0.82996  -0.72596  -0.70480  -0.69493
 Alpha  occ. eigenvalues --   -0.61420  -0.54620  -0.53375  -0.50945  -0.49782
 Alpha  occ. eigenvalues --   -0.47468  -0.44897  -0.43124  -0.39552  -0.39006
 Alpha  occ. eigenvalues --   -0.37655  -0.36610  -0.35053  -0.34225  -0.33725
 Alpha  occ. eigenvalues --   -0.30039  -0.26866  -0.24069  -0.23660
 Alpha virt. eigenvalues --    0.03181   0.06369   0.08902   0.11187   0.12162
 Alpha virt. eigenvalues --    0.12884   0.15142   0.16199   0.17069   0.17282
 Alpha virt. eigenvalues --    0.18336   0.18899   0.19860   0.20625   0.21182

 Mulliken charges:
               1
     1  O   -0.423429
     2  C   -0.003248
     3  C   -0.111722
     4  O   -0.317295
     5  C    0.419167
     6  C   -0.328764
     7  C   -0.066918
     8  C   -0.065599
     9  C   -0.308970
    10  H    0.290052
    11  H    0.075497
    12  H    0.097176
    13  H    0.097861
    14  H    0.105709
    15  H    0.117729
    16  H    0.089913
    17  H    0.090187
    18  H    0.128482
    19  H    0.114172
 Sum of Mulliken charges =   0.00000

 Dipole moment (field-independent basis, Debye):
    X=             -1.5610    Y=              0.6336    Z=              1.5797  Tot=              2.3095
 Quadrupole moment (field-independent basis, Debye-Ang):
   XX=            -44.9336   YY=            -56.3752   ZZ=            -51.8251
   XY=             -0.6046   XZ=             -2.4360   YZ=             -2.0121

  Exact polarizability:  88.476   1.180  69.132   1.602  -9.108  70.748
 Approx polarizability: 112.160  -1.884 108.982   2.812 -16.573 111.794

                      1                      2                      3
                      A                      A                      A
 Frequencies --     66.7567                85.0753               199.3625
 Red. masses --      2.8125                 2.8451                 1.8249
 Frc consts  --      0.0074                 0.0121                 0.0427
 IR Inten    --      0.2400                 1.2481                40.6319

                      4                      5                      6
                      A                      A                      A
 Frequencies --    222.9919               273.5757               366.1920
 Red. masses --      1.5793                 3.4325                 2.6557
 Frc consts  --      0.0463                 0.1514                 0.2098
 IR Inten    --     61.9714                 6.2706                 1.6328

                      7                      8                      9
                      A                      A                      A
 Frequencies --    395.6346               410.4755               482.7424
 Red. masses --      2.7653                 2.5095                 2.9794
 Frc consts  --      0.2550                 0.2491                 0.4091
 IR Inten    --      2.9335                 4.6279                 2.5138

                     10                     11                     12
                      A                      A                      A
 Frequencies --    547.0458               682.7665               728.9351
 Red. masses --      3.8584                 1.3707                 2.4439
 Frc consts  --      0.6803                 0.3765                 0.7651
 IR Inten    --      3.7229                22.1032                 3.6214

                     13                     14                     15
                      A                      A                      A
 Frequencies --    783.6359               793.2803               858.7730
 Red. masses --      3.9278                 4.5584                 2.6140
 Frc consts  --      1.4211                 1.6901                 1.1358
 IR Inten    --      1.5155                 0.8508                41.7654

                     16                     17                     18
                      A                      A                      A
 Frequencies --    907.9130               927.9544               960.0617
 Red. masses --      1.8207                 1.8249                 1.8691
 Frc consts  --      0.8842                 0.9259                 1.0150
 IR Inten    --      3.8951                10.4084                20.4010

                     19                     20                     21
                      A                      A                      A
 Frequencies --    974.7211               985.2671              1018.2773
 Red. masses --      1.2654                 2.7579                 6.8625
 Frc consts  --      0.7083                 1.5774                 4.1924
 IR Inten    --      0.5060                 0.7929                96.7465

                     22                     23                     24
                      A                      A                      A
 Frequencies --   1057.4239              1070.3296              1107.3978
 Red. masses --      2.6143                 2.3222                 2.3250
 Frc consts  --      1.7223                 1.5674                 1.6799
 IR Inten    --      3.8984                 1.8146                30.1663

                     25                     26                     27
                      A                      A                      A
 Frequencies --   1113.2769              1137.2377              1167.2929
 Red. masses --      1.7985                 1.3576                 1.2138
 Frc consts  --      1.3133                 1.0345                 0.9745
 IR Inten    --     45.1474                 4.2465                 6.3507

                     28                     29                     30
                      A                      A                      A
 Frequencies --   1171.4920              1190.7099              1232.7469
 Red. masses --      1.1738                 2.4241                 1.3547
 Frc consts  --      0.9492                 2.0250                 1.2130
 IR Inten    --     14.3367                38.9008                 7.6232

                     31                     32                     33
                      A                      A                      A
 Frequencies --   1245.1317              1290.3235              1309.5407
 Red. masses --      1.6233                 1.4929                 1.4144
 Frc consts  --      1.4828                 1.4645                 1.4291
 IR Inten    --     11.2538                13.5958                33.6839

                     34                     35                     36
                      A                      A                      A
 Frequencies --   1331.8322              1349.1344              1368.6022
 Red. masses --      1.4540                 1.9552                 1.7052
 Frc consts  --      1.5196                 2.0967                 1.8819
 IR Inten    --      3.0454                11.5869                 1.7808

                     37                     38                     39
                      A                      A                      A
 Frequencies --   1442.5777              1462.2986              1467.9114
 Red. masses --      1.5268                 1.0845                 1.1013
 Frc consts  --      1.8720                 1.3663                 1.3981
 IR Inten    --      6.2528                 3.7621                 0.5932

                     40                     41                     42
                      A                      A                      A
 Frequencies --   1516.0245              1689.5462              3004.3299
 Red. masses --      1.1095                 6.0630                 1.0626
 Frc consts  --      1.5024                10.1971                 5.6510
 IR Inten    --      2.4007                 4.0906                52.9131

                     43                     44                     45
                      A                      A                      A
 Frequencies --   3005.5003              3014.0370              3037.8643
 Red. masses --      1.0658                 1.0826                 1.0593
 Frc consts  --      5.6723                 5.7946                 5.7597
 IR Inten    --     23.5815                52.6343                13.8600

                     46                     47                     48
                      A                      A                      A
 Frequencies --   3063.0679              3063.1193              3073.4601
 Red. masses --      1.1072                 1.0936                 1.1021
 Frc consts  --      6.1204                 6.0458                 6.1339
 IR Inten    --     53.9955                17.3551                10.8650

                     49                     50                     51
                      A                      A                      A
 Frequencies --   3182.6573              3208.1105              3827.7909
 Red. masses --      1.0843                 1.1041                 1.0664
 Frc consts  --      6.4714                 6.6951                 9.2059
 IR Inten    --      6.3259                29.0272                28.0778

 - Thermochemistry -
 -------------------
 Temperature   298.150 Kelvin.  Pressure   1.00000 Atm.
 Atom     1 has atomic number  8 and mass  15.99491

 Molecular mass:   126.06808 amu.
 Principal axes and moments of inertia in atomic units:
                           1         2         3
     Eigenvalues --   607.107401332.148481489.14805
           X            0.99995   0.00953   0.00038
           Y           -0.00943   0.99402  -0.10879
           Z           -0.00141   0.10879   0.99406
 This molecule is an asymmetric top.
 Rotational symmetry number  1.
 Warning -- assumption of classical behavior for rotation
           may cause significant error
 Rotational temperatures (Kelvin)      0.14267     0.06502     0.05816
 Rotational constants (GHZ):           2.97269     1.35476     1.21193
 Zero-point vibrational energy     417928.6 (Joules/Mol)
                                   99.88733 (Kcal/Mol)
 Warning -- explicit consideration of  10 degrees of freedom as
           vibrations may cause significant error
 Vibrational temperatures:     96.05   122.40   286.84   320.84   393.61
          (Kelvin)            526.87   569.23   590.58   694.56   787.08
                              982.35  1048.77  1127.48  1141.35  1235.58
                             1306.28  1335.12  1381.31  1402.40  1417.58
                             1465.07  1521.40  1539.96  1593.30  1601.76
                             1636.23  1679.47  1685.51  1713.16  1773.65
                             1791.46  1856.49  1884.13  1916.21  1941.10
                             1969.11  2075.54  2103.92  2111.99  2181.22
                             2430.88  4322.56  4324.24  4336.52  4370.80
                             4407.07  4407.14  4422.02  4579.13  4615.75
                             5507.33

 Zero-point correction=                           0.159181 (Hartree/Particle)
 Thermal correction to Energy=                    0.167495
 Thermal correction to Enthalpy=                  0.168439
 Thermal correction to Gibbs Free Energy=         0.125930
 Sum of electronic and zero-point Energies=           -423.014903
 Sum of electronic and thermal Energies=              -423.006588
 Sum of electronic and thermal Enthalpies=            -423.005644
 Sum of electronic and thermal Free Energies=         -423.048153

                     E (Thermal)             CV                S
                      KCal/Mol        Cal/Mol-Kelvin    Cal/Mol-Kelvin
 Total                  105.105             31.717             89.467
 Electronic               0.000              0.000              0.000
 Translational            0.889              2.981             40.409
 Rotational               0.889              2.981             28.578
 Vibrational            103.327             25.755             20.480
 Vibration     1          0.598              1.970              4.247
 Vibration     2          0.601              1.960              3.770
 Vibration     3          0.637              1.841              2.139
 Vibration     4          0.649              1.806              1.935
 Vibration     5          0.676              1.722              1.574
 Vibration     6          0.739              1.542              1.096
 Vibration     7          0.762              1.479              0.979
 Vibration     8          0.775              1.447              0.925
 Vibration     9          0.839              1.288              0.703
 Vibration    10          0.902              1.146              0.550

 Optimization completed.
    -- Stationary point found.
 Normal termination of Gaussian 09 at Tue Jan 28 04:44:45 2020.
