 Gaussian 09, Revision D.01,
 Gaussian 09:  ES64L-G09RevD.01 24-Apr-2013

 -----------------------------
 # b3lyp 6-31G(2df,p) opt Freq
 -----------------------------

 -----
 titel
 -----
 Symbolic Z-matrix:
 Charge =  0 Multiplicity = 1

 SCF Done:  E(RB3LYP) =  -423.108571764     A.U. after   14 cycles
 Optimization completed.
    -- Stationary point found.
 Normal termination of Gaussian 09 at Tue Jan 28 08:11:35 2020.

 ----------------------------------------------------------------------
 #N Geom=AllCheck Guess=TCheck SCRF=Check GenChk RB3LYP/6-31G(2df,p) Fr
 eq
 ----------------------------------------------------------------------

 Structure from the checkpoint file:  "/scratch/puck/g09_2be65ccf-d5bf-46c2-8722-2a13f2621176/Gau-8131.chk"
 -----
 titel
 -----
 Charge =  0 Multiplicity = 1

                         Standard orientation:
 ---------------------------------------------------------------------
 Center     Atomic      Atomic             Coordinates (Angstroms)
 Number     Number       Type             X           Y           Z
 ---------------------------------------------------------------------
      1          8           0       -1.859436   -1.330239   -0.451532
      2          6           0       -1.144744   -0.591611    0.532395
      3          6           0       -1.553957    0.905944    0.405819
      4          6           0       -0.496028    1.652416   -0.494643
      5          6           0        0.528338    0.578687   -0.890317
      6          6           0        1.866043    0.321806   -0.138158
      7          6           0        1.622898   -1.220465   -0.242529
      8          6           0        0.319172   -0.502607    0.178357
      9          8           0        1.126838    0.316256    1.137298
     10          1           0       -1.576047   -2.249016   -0.397422
     11          1           0       -1.331305   -0.981572    1.541665
     12          1           0       -2.561504    0.948174   -0.015504
     13          1           0       -1.588090    1.357217    1.399230
     14          1           0       -0.966586    2.082306   -1.381862
     15          1           0       -0.042389    2.470809    0.065982
     16          1           0        0.489714    0.257055   -1.933412
     17          1           0        2.816072    0.858026   -0.168391
     18          1           0        1.653343   -1.685220   -1.231334
     19          1           0        2.117249   -1.810935    0.529376
 ---------------------------------------------------------------------

 SCF Done:  E(RB3LYP) =  -423.108571764     A.U. after    1 cycles

 The electronic state is 1-A.
 Alpha  occ. eigenvalues --  -19.14201 -19.12766 -10.24982 -10.23994 -10.23640
 Alpha  occ. eigenvalues --  -10.19799 -10.18483 -10.17825 -10.17807  -1.05593
 Alpha  occ. eigenvalues --   -1.02211  -0.81075  -0.77361  -0.70864  -0.65895
 Alpha  occ. eigenvalues --   -0.62194  -0.57361  -0.53048  -0.51507  -0.49622
 Alpha  occ. eigenvalues --   -0.46750  -0.44331  -0.41351  -0.40883  -0.39295
 Alpha  occ. eigenvalues --   -0.36780  -0.35184  -0.34185  -0.33203  -0.31829
 Alpha  occ. eigenvalues --   -0.30789  -0.29819  -0.26423  -0.23656
 Alpha virt. eigenvalues --    0.05955   0.09510   0.10717   0.11289   0.12242
 Alpha virt. eigenvalues --    0.13302   0.14168   0.14533   0.15812   0.16375
 Alpha virt. eigenvalues --    0.17326   0.18286   0.18942   0.20294   0.22381

 Mulliken charges:
               1
     1  O   -0.426264
     2  C   -0.050180
     3  C   -0.207938
     4  C   -0.252111
     5  C   -0.008112
     6  C    0.023608
     7  C   -0.322153
     8  C    0.417977
     9  O   -0.353391
    10  H    0.285662
    11  H    0.075591
    12  H    0.112333
    13  H    0.114042
    14  H    0.099077
    15  H    0.113675
    16  H    0.075762
    17  H    0.093143
    18  H    0.100571
    19  H    0.108708
 Sum of Mulliken charges =   0.00000

 Dipole moment (field-independent basis, Debye):
    X=              0.5529    Y=             -1.0995    Z=             -0.8736  Tot=              1.5092
 Quadrupole moment (field-independent basis, Debye-Ang):
   XX=            -54.3748   YY=            -48.2006   ZZ=            -55.0659
   XY=             -0.4743   XZ=             -3.6981   YZ=             -0.9567

  Exact polarizability:  81.731  -3.634  76.160  -1.122   0.069  66.430
 Approx polarizability: 113.042  -1.019 109.140   1.284   2.646 109.211

                      1                      2                      3
                      A                      A                      A
 Frequencies --     69.8113               170.0439               269.2117
 Red. masses --      2.2082                 3.9647                 2.6351
 Frc consts  --      0.0063                 0.0675                 0.1125
 IR Inten    --      0.7244                 1.3852                 4.2786

                      4                      5                      6
                      A                      A                      A
 Frequencies --    316.2238               335.5027               415.7117
 Red. masses --      1.1470                 3.4061                 3.7657
 Frc consts  --      0.0676                 0.2259                 0.3834
 IR Inten    --    114.0334                 6.2135                 2.7948

                      7                      8                      9
                      A                      A                      A
 Frequencies --    462.5744               519.2213               622.2686
 Red. masses --      3.5551                 2.5528                 3.9852
 Frc consts  --      0.4482                 0.4055                 0.9092
 IR Inten    --      5.4927                 6.5293                 5.3464

                     10                     11                     12
                      A                      A                      A
 Frequencies --    685.2171               744.5107               764.2285
 Red. masses --      2.1067                 2.6085                 5.3257
 Frc consts  --      0.5828                 0.8519                 1.8326
 IR Inten    --      2.3596                 9.3948                 7.7854

                     13                     14                     15
                      A                      A                      A
 Frequencies --    788.9911               804.6131               847.2255
 Red. masses --      2.7135                 2.9519                 2.9491
 Frc consts  --      0.9952                 1.1260                 1.2472
 IR Inten    --      0.7142                15.4200                 6.5276

                     16                     17                     18
                      A                      A                      A
 Frequencies --    889.0232               894.4195               949.9039
 Red. masses --      2.3230                 3.0447                 2.7040
 Frc consts  --      1.0818                 1.4351                 1.4375
 IR Inten    --      6.1432                20.0247                 2.6696

                     19                     20                     21
                      A                      A                      A
 Frequencies --    979.6637              1004.0747              1007.9454
 Red. masses --      2.8568                 1.7882                 2.4111
 Frc consts  --      1.6154                 1.0622                 1.4432
 IR Inten    --      2.3174                19.7991                 9.1398

                     22                     23                     24
                      A                      A                      A
 Frequencies --   1043.3229              1071.7673              1100.2734
 Red. masses --      2.0569                 2.1578                 1.4900
 Frc consts  --      1.3192                 1.4604                 1.0627
 IR Inten    --     36.5087                 6.1823                 3.3563

                     25                     26                     27
                      A                      A                      A
 Frequencies --   1107.4703              1127.4227              1169.6615
 Red. masses --      2.3668                 1.5962                 1.5490
 Frc consts  --      1.7103                 1.1954                 1.2486
 IR Inten    --      7.1773                 8.0071                21.0676

                     28                     29                     30
                      A                      A                      A
 Frequencies --   1190.6252              1204.8217              1222.7504
 Red. masses --      1.4285                 1.2112                 1.4388
 Frc consts  --      1.1931                 1.0359                 1.2675
 IR Inten    --      6.5224                 9.6137                 2.4369

                     31                     32                     33
                      A                      A                      A
 Frequencies --   1236.3907              1254.1606              1278.8831
 Red. masses --      1.5444                 1.1544                 1.5860
 Frc consts  --      1.3910                 1.0698                 1.5283
 IR Inten    --     31.5918                 1.9590                17.0407

                     34                     35                     36
                      A                      A                      A
 Frequencies --   1299.9735              1332.1803              1367.1601
 Red. masses --      1.3976                 1.4365                 2.2463
 Frc consts  --      1.3916                 1.5020                 2.4738
 IR Inten    --      3.5875                13.0357                13.3467

                     37                     38                     39
                      A                      A                      A
 Frequencies --   1378.1137              1395.1007              1467.4108
 Red. masses --      1.6182                 1.3984                 1.0806
 Frc consts  --      1.8107                 1.6035                 1.3709
 IR Inten    --      2.3563                 6.9989                 0.7386

                     40                     41                     42
                      A                      A                      A
 Frequencies --   1488.6114              1490.6068              3018.2000
 Red. masses --      1.1878                 1.1343                 1.0848
 Frc consts  --      1.5508                 1.4849                 5.8223
 IR Inten    --      0.0647                 5.5362                45.0014

                     43                     44                     45
                      A                      A                      A
 Frequencies --   3062.6272              3069.3715              3077.3994
 Red. masses --      1.0575                 1.0614                 1.0655
 Frc consts  --      5.8441                 5.8917                 5.9455
 IR Inten    --     24.1708                23.7004                43.3938

                     46                     47                     48
                      A                      A                      A
 Frequencies --   3086.8659              3102.6407              3112.6385
 Red. masses --      1.0793                 1.0933                 1.1043
 Frc consts  --      6.0591                 6.2008                 6.3039
 IR Inten    --     27.8169                68.2066                 0.8659

                     49                     50                     51
                      A                      A                      A
 Frequencies --   3131.8871              3150.0656              3811.3378
 Red. masses --      1.1049                 1.1104                 1.0661
 Frc consts  --      6.3854                 6.4917                 9.1246
 IR Inten    --     27.4248                26.2196                18.7261

 - Thermochemistry -
 -------------------
 Temperature   298.150 Kelvin.  Pressure   1.00000 Atm.
 Atom     1 has atomic number  8 and mass  15.99491

 Molecular mass:   126.06808 amu.
 Principal axes and moments of inertia in atomic units:
                           1         2         3
     Eigenvalues --   656.648161023.407631287.17809
           X            0.99800  -0.05781  -0.02547
           Y            0.05755   0.99828  -0.01115
           Z            0.02607   0.00966   0.99961
 This molecule is an asymmetric top.
 Rotational symmetry number  1.
 Warning -- assumption of classical behavior for rotation
           may cause significant error
 Rotational temperatures (Kelvin)      0.13190     0.08463     0.06729
 Rotational constants (GHZ):           2.74841     1.76346     1.40209
 Zero-point vibrational energy     421026.5 (Joules/Mol)
                                  100.62774 (Kcal/Mol)
 Warning -- explicit consideration of   8 degrees of freedom as
           vibrations may cause significant error
 Vibrational temperatures:    100.44   244.65   387.34   454.97   482.71
          (Kelvin)            598.12   665.54   747.04   895.30   985.87
                             1071.18  1099.55  1135.18  1157.66  1218.97
                             1279.10  1286.87  1366.70  1409.52  1444.64
                             1450.21  1501.11  1542.03  1583.05  1593.40
                             1622.11  1682.88  1713.04  1733.47  1759.26
                             1778.89  1804.46  1840.03  1870.37  1916.71
                             1967.04  1982.80  2007.24  2111.27  2141.78
                             2144.65  4342.51  4406.43  4416.14  4427.69
                             4441.31  4464.00  4478.39  4506.08  4532.24
                             5483.66

 Zero-point correction=                           0.160361 (Hartree/Particle)
 Thermal correction to Energy=                    0.167837
 Thermal correction to Enthalpy=                  0.168781
 Thermal correction to Gibbs Free Energy=         0.128420
 Sum of electronic and zero-point Energies=           -422.948211
 Sum of electronic and thermal Energies=              -422.940735
 Sum of electronic and thermal Enthalpies=            -422.939791
 Sum of electronic and thermal Free Energies=         -422.980152

                     E (Thermal)             CV                S
                      KCal/Mol        Cal/Mol-Kelvin    Cal/Mol-Kelvin
 Total                  105.319             30.203             84.947
 Electronic               0.000              0.000              0.000
 Translational            0.889              2.981             40.409
 Rotational               0.889              2.981             28.250
 Vibrational            103.542             24.242             16.289
 Vibration     1          0.598              1.969              4.159
 Vibration     2          0.625              1.879              2.435
 Vibration     3          0.674              1.730              1.601
 Vibration     4          0.703              1.643              1.330
 Vibration     5          0.717              1.605              1.233
 Vibration     6          0.779              1.436              0.907
 Vibration     7          0.820              1.333              0.759
 Vibration     8          0.874              1.207              0.612

 Normal termination of Gaussian 09 at Tue Jan 28 09:03:57 2020.
