 Gaussian 09, Revision D.01,
 Gaussian 09:  ES64L-G09RevD.01 24-Apr-2013

 -----------------------------
 # b3lyp 6-31G(2df,p) opt Freq
 -----------------------------

 -----
 titel
 -----
 Symbolic Z-matrix:
 Charge =  0 Multiplicity = 1

 SCF Done:  E(RB3LYP) =  -423.156092204     A.U. after   14 cycles
 SCF Done:  E(RB3LYP) =  -423.156092120     A.U. after    7 cycles
 SCF Done:  E(RB3LYP) =  -423.156092142     A.U. after    6 cycles
 Optimization completed.
    -- Stationary point found.
 Normal termination of Gaussian 09 at Mon Jan 27 13:48:15 2020.

 ----------------------------------------------------------------------
 #N Geom=AllCheck Guess=TCheck SCRF=Check GenChk RB3LYP/6-31G(2df,p) Fr
 eq
 ----------------------------------------------------------------------

 Structure from the checkpoint file:  "/scratch/puck/g09_5a378ca9-8a6d-4b9f-8e42-7e0828bcad34/Gau-102252.chk"
 -----
 titel
 -----
 Charge =  0 Multiplicity = 1

                         Standard orientation:
 ---------------------------------------------------------------------
 Center     Atomic      Atomic             Coordinates (Angstroms)
 Number     Number       Type             X           Y           Z
 ---------------------------------------------------------------------
      1          8           0        3.228447    0.422323   -0.164895
      2          6           0        2.338157   -0.383368   -0.077147
      3          6           0        1.155382   -0.264088    0.860921
      4          6           0       -0.142415   -0.096867    0.081726
      5          6           0       -0.381625    1.248403   -0.672662
      6          6           0       -1.764892    1.404614    0.033500
      7          6           0       -1.560224    0.038519    0.721055
      8          8           0       -2.058388   -1.064723   -0.062769
      9          6           0       -0.757785   -1.316354   -0.637239
     10          1           0        2.323726   -1.289743   -0.727147
     11          1           0        1.101059   -1.177127    1.470006
     12          1           0        1.327941    0.589593    1.523531
     13          1           0        0.339954    2.024175   -0.406651
     14          1           0       -0.405903    1.166586   -1.762468
     15          1           0       -1.799254    2.242927    0.734428
     16          1           0       -2.644661    1.443729   -0.611680
     17          1           0       -1.791311   -0.069060    1.784984
     18          1           0       -0.360994   -2.287952   -0.310470
     19          1           0       -0.770605   -1.289091   -1.734147
 ---------------------------------------------------------------------

 SCF Done:  E(RB3LYP) =  -423.156092142     A.U. after    1 cycles

 The electronic state is 1-A.
 Alpha  occ. eigenvalues --  -19.14554 -19.13872 -10.27791 -10.23843 -10.23804
 Alpha  occ. eigenvalues --  -10.21157 -10.20295 -10.19246 -10.18775  -1.05215
 Alpha  occ. eigenvalues --   -1.04636  -0.84046  -0.77292  -0.70450  -0.65485
 Alpha  occ. eigenvalues --   -0.62769  -0.58348  -0.53004  -0.50295  -0.49164
 Alpha  occ. eigenvalues --   -0.48037  -0.46578  -0.43864  -0.42663  -0.41263
 Alpha  occ. eigenvalues --   -0.40781  -0.38494  -0.36902  -0.35400  -0.33073
 Alpha  occ. eigenvalues --   -0.30664  -0.29598  -0.25503  -0.24789
 Alpha virt. eigenvalues --   -0.02939   0.06219   0.08199   0.09842   0.11081
 Alpha virt. eigenvalues --    0.11821   0.12984   0.13196   0.14699   0.15874
 Alpha virt. eigenvalues --    0.16663   0.17437   0.18387   0.21006   0.21789

 Mulliken charges:
               1
     1  O   -0.236659
     2  C    0.163862
     3  C   -0.393053
     4  C    0.297044
     5  C   -0.290743
     6  C   -0.229278
     7  C    0.063299
     8  O   -0.289888
     9  C   -0.125250
    10  H    0.077148
    11  H    0.117791
    12  H    0.121700
    13  H    0.118832
    14  H    0.106649
    15  H    0.106047
    16  H    0.115644
    17  H    0.075547
    18  H    0.096865
    19  H    0.104444
 Sum of Mulliken charges =   0.00000

 Dipole moment (field-independent basis, Debye):
    X=             -0.7768    Y=             -0.3496    Z=              0.5611  Tot=              1.0200
 Quadrupole moment (field-independent basis, Debye-Ang):
   XX=            -67.7368   YY=            -52.4477   ZZ=            -50.7271
   XY=             -7.2935   XZ=              0.6249   YZ=              0.7274

  Exact polarizability:  83.090  -0.975  75.948  -2.940   2.823  67.498
 Approx polarizability: 115.782   6.963 112.476  -4.906   3.918 101.297

                      1                      2                      3
                      A                      A                      A
 Frequencies --     42.2461                70.3400                96.0492
 Red. masses --      5.5979                 3.8427                 2.3221
 Frc consts  --      0.0059                 0.0112                 0.0126
 IR Inten    --      7.4907                 4.7314                 1.8191

                      4                      5                      6
                      A                      A                      A
 Frequencies --    170.8104               271.8486               324.0994
 Red. masses --      2.4807                 3.0195                 2.6070
 Frc consts  --      0.0426                 0.1315                 0.1613
 IR Inten    --      0.7059                 2.8766                 0.7066

                      7                      8                      9
                      A                      A                      A
 Frequencies --    366.2534               410.7719               490.2641
 Red. masses --      2.1756                 2.6850                 2.5593
 Frc consts  --      0.1719                 0.2669                 0.3624
 IR Inten    --      0.4729                 2.1535                12.7493

                     10                     11                     12
                      A                      A                      A
 Frequencies --    647.2837               671.0145               738.9256
 Red. masses --      2.8095                 4.0826                 1.2501
 Frc consts  --      0.6935                 1.0831                 0.4021
 IR Inten    --      1.7407                 1.2235                 0.6843

                     13                     14                     15
                      A                      A                      A
 Frequencies --    841.3132               869.0470               882.0399
 Red. masses --      1.8319                 2.1553                 2.4868
 Frc consts  --      0.7639                 0.9591                 1.1399
 IR Inten    --      6.1011                10.0271                 4.7935

                     16                     17                     18
                      A                      A                      A
 Frequencies --    907.7587               935.9732               953.1043
 Red. masses --      2.4615                 2.4690                 2.4137
 Frc consts  --      1.1951                 1.2744                 1.2919
 IR Inten    --     15.6047                 2.9318                 4.9766

                     19                     20                     21
                      A                      A                      A
 Frequencies --    981.6156              1010.7592              1034.8416
 Red. masses --      1.5576                 3.7330                 3.4247
 Frc consts  --      0.8843                 2.2470                 2.1608
 IR Inten    --      7.8331                33.2914                48.1191

                     22                     23                     24
                      A                      A                      A
 Frequencies --   1046.0522              1099.3206              1118.7520
 Red. masses --      2.1163                 1.9971                 2.3996
 Frc consts  --      1.3644                 1.4220                 1.7695
 IR Inten    --      5.0646                17.0825                 4.9041

                     25                     26                     27
                      A                      A                      A
 Frequencies --   1146.9018              1166.4705              1197.1435
 Red. masses --      1.7472                 1.3536                 1.5687
 Frc consts  --      1.3541                 1.0851                 1.3246
 IR Inten    --      8.1926                 9.5423                 4.7474

                     28                     29                     30
                      A                      A                      A
 Frequencies --   1221.8017              1249.1647              1266.9640
 Red. masses --      1.4006                 1.4756                 1.5051
 Frc consts  --      1.2319                 1.3566                 1.4234
 IR Inten    --      3.1943                 1.3827                 5.6990

                     31                     32                     33
                      A                      A                      A
 Frequencies --   1280.1798              1293.7052              1303.6688
 Red. masses --      1.4053                 1.7356                 1.5845
 Frc consts  --      1.3569                 1.7115                 1.5867
 IR Inten    --      5.2918                 1.1648                 2.8379

                     34                     35                     36
                      A                      A                      A
 Frequencies --   1323.7808              1375.1235              1430.5027
 Red. masses --      1.5658                 1.6538                 1.1942
 Frc consts  --      1.6167                 1.8426                 1.4398
 IR Inten    --     11.5040                 0.8329                 5.2978

                     37                     38                     39
                      A                      A                      A
 Frequencies --   1462.3863              1464.9888              1489.7186
 Red. masses --      1.0882                 1.0968                 1.1086
 Frc consts  --      1.3712                 1.3869                 1.4496
 IR Inten    --      2.5529                 5.2432                 2.5720

                     40                     41                     42
                      A                      A                      A
 Frequencies --   1525.8492              1832.2004              2856.8940
 Red. masses --      1.1002                10.0288                 1.0816
 Frc consts  --      1.5092                19.8357                 5.2013
 IR Inten    --      0.5726               171.0390                96.8015

                     43                     44                     45
                      A                      A                      A
 Frequencies --   2994.6160              3017.4692              3045.2476
 Red. masses --      1.0588                 1.0624                 1.1063
 Frc consts  --      5.5941                 5.6991                 6.0445
 IR Inten    --     72.3414                14.0266                40.7664

                     46                     47                     48
                      A                      A                      A
 Frequencies --   3058.8629              3061.5919              3071.8749
 Red. masses --      1.0698                 1.0630                 1.0760
 Frc consts  --      5.8978                 5.8704                 5.9821
 IR Inten    --     18.1314                56.8730                33.0761

                     49                     50                     51
                      A                      A                      A
 Frequencies --   3091.9262              3109.1941              3129.1569
 Red. masses --      1.0992                 1.1071                 1.1068
 Frc consts  --      6.1915                 6.3057                 6.3852
 IR Inten    --     12.2702                 3.3548                28.1841

 - Thermochemistry -
 -------------------
 Temperature   298.150 Kelvin.  Pressure   1.00000 Atm.
 Atom     1 has atomic number  8 and mass  15.99491

 Molecular mass:   126.06808 amu.
 Principal axes and moments of inertia in atomic units:
                           1         2         3
     Eigenvalues --   540.485221630.159891872.86277
           X            0.99955  -0.03002   0.00258
           Y            0.02999   0.99948   0.01147
           Z           -0.00292  -0.01139   0.99993
 This molecule is an asymmetric top.
 Rotational symmetry number  1.
 Warning -- assumption of classical behavior for rotation
           may cause significant error
 Rotational temperatures (Kelvin)      0.16025     0.05313     0.04625
 Rotational constants (GHZ):           3.33911     1.10709     0.96363
 Zero-point vibrational energy     415390.5 (Joules/Mol)
                                   99.28071 (Kcal/Mol)
 Warning -- explicit consideration of   9 degrees of freedom as
           vibrations may cause significant error
 Vibrational temperatures:     60.78   101.20   138.19   245.76   391.13
          (Kelvin)            466.31   526.96   591.01   705.38   931.30
                              965.44  1063.15  1210.46  1250.36  1269.06
                             1306.06  1346.66  1371.30  1412.32  1454.26
                             1488.90  1505.03  1581.68  1609.63  1650.13
                             1678.29  1722.42  1757.90  1797.27  1822.88
                             1841.89  1861.35  1875.69  1904.62  1978.49
                             2058.17  2104.05  2107.79  2143.37  2195.35
                             2636.12  4110.43  4308.58  4341.46  4381.43
                             4401.02  4404.94  4419.74  4448.59  4473.43
                             4502.15

 Zero-point correction=                           0.158214 (Hartree/Particle)
 Thermal correction to Energy=                    0.166817
 Thermal correction to Enthalpy=                  0.167761
 Thermal correction to Gibbs Free Energy=         0.123633
 Sum of electronic and zero-point Energies=           -422.997878
 Sum of electronic and thermal Energies=              -422.989275
 Sum of electronic and thermal Enthalpies=            -422.988331
 Sum of electronic and thermal Free Energies=         -423.032459

                     E (Thermal)             CV                S
                      KCal/Mol        Cal/Mol-Kelvin    Cal/Mol-Kelvin
 Total                  104.679             31.286             92.875
 Electronic               0.000              0.000              0.000
 Translational            0.889              2.981             40.409
 Rotational               0.889              2.981             28.891
 Vibrational            102.902             25.324             23.576
 Vibration     1          0.595              1.980              5.151
 Vibration     2          0.598              1.968              4.144
 Vibration     3          0.603              1.952              3.533
 Vibration     4          0.626              1.878              2.427
 Vibration     5          0.675              1.725              1.584
 Vibration     6          0.709              1.627              1.289
 Vibration     7          0.739              1.542              1.095
 Vibration     8          0.775              1.447              0.924
 Vibration     9          0.846              1.272              0.683

 Optimization completed.
    -- Stationary point found.
 Normal termination of Gaussian 09 at Mon Jan 27 14:29:01 2020.
