 Gaussian 09, Revision D.01,
 Gaussian 09:  ES64L-G09RevD.01 24-Apr-2013

 -----------------------------
 # b3lyp 6-31G(2df,p) opt Freq
 -----------------------------

 -----
 titel
 -----
 Symbolic Z-matrix:
 Charge =  0 Multiplicity = 1

 SCF Done:  E(RB3LYP) =  -423.164209783     A.U. after   14 cycles
 SCF Done:  E(RB3LYP) =  -423.164208975     A.U. after    8 cycles
 SCF Done:  E(RB3LYP) =  -423.164210042     A.U. after    8 cycles
 SCF Done:  E(RB3LYP) =  -423.164210024     A.U. after    7 cycles
 Optimization completed.
    -- Stationary point found.
 Normal termination of Gaussian 09 at Mon Jan 27 14:10:34 2020.

 ----------------------------------------------------------------------
 #N Geom=AllCheck Guess=TCheck SCRF=Check GenChk RB3LYP/6-31G(2df,p) Fr
 eq
 ----------------------------------------------------------------------

 Structure from the checkpoint file:  "/scratch/puck/g09_170c326f-1ace-4b7a-8d57-2982240469dd/Gau-76321.chk"
 -----
 titel
 -----
 Charge =  0 Multiplicity = 1

                         Standard orientation:
 ---------------------------------------------------------------------
 Center     Atomic      Atomic             Coordinates (Angstroms)
 Number     Number       Type             X           Y           Z
 ---------------------------------------------------------------------
      1          6           0        3.520353   -0.462862   -0.000116
      2          6           0        2.116063   -0.079939   -0.000535
      3          6           0        0.955371    0.241271   -0.000828
      4          6           0       -0.472018    0.633223    0.000032
      5          6           0       -0.657678    2.141222    0.000527
      6          8           0       -1.140299    0.081677   -1.124300
      7          6           0       -1.479128   -1.254968   -0.776071
      8          6           0       -1.477366   -1.255641    0.776164
      9          8           0       -1.139181    0.081063    1.124688
     10          1           0        3.769311   -1.057727    0.885445
     11          1           0        3.769130   -1.060283   -0.884005
     12          1           0        4.170377    0.418877   -0.001462
     13          1           0       -0.191760    2.571331    0.889295
     14          1           0       -0.192823    2.571768   -0.888585
     15          1           0       -1.726391    2.365012    0.001216
     16          1           0       -2.457843   -1.477445   -1.209009
     17          1           0       -0.743222   -1.963774   -1.175705
     18          1           0       -2.454803   -1.479555    1.211209
     19          1           0       -0.739713   -1.963957    1.173456
 ---------------------------------------------------------------------

 SCF Done:  E(RB3LYP) =  -423.164210024     A.U. after    1 cycles

 The electronic state is 1-A.
 Alpha  occ. eigenvalues --  -19.14430 -19.14426 -10.29799 -10.23106 -10.23087
 Alpha  occ. eigenvalues --  -10.20654 -10.17980 -10.17532 -10.16582  -1.08813
 Alpha  occ. eigenvalues --   -0.99082  -0.79807  -0.77162  -0.70800  -0.69471
 Alpha  occ. eigenvalues --   -0.62871  -0.61149  -0.52545  -0.49520  -0.47313
 Alpha  occ. eigenvalues --   -0.46933  -0.45523  -0.42919  -0.42885  -0.40932
 Alpha  occ. eigenvalues --   -0.39405  -0.38184  -0.38141  -0.33523  -0.33476
 Alpha  occ. eigenvalues --   -0.28162  -0.27076  -0.25734  -0.24493
 Alpha virt. eigenvalues --    0.04772   0.04880   0.09564   0.10839   0.11623
 Alpha virt. eigenvalues --    0.13059   0.14420   0.14802   0.15981   0.16996
 Alpha virt. eigenvalues --    0.17852   0.18649   0.20456   0.20932   0.22365

 Mulliken charges:
               1
     1  C   -0.502262
     2  C    0.037238
     3  C    0.130809
     4  C    0.195636
     5  C   -0.430989
     6  O   -0.254216
     7  C   -0.109536
     8  C   -0.109646
     9  O   -0.254136
    10  H    0.151317
    11  H    0.151306
    12  H    0.152217
    13  H    0.134579
    14  H    0.134584
    15  H    0.127917
    16  H    0.115505
    17  H    0.107070
    18  H    0.115528
    19  H    0.107081
 Sum of Mulliken charges =   0.00000

 Dipole moment (field-independent basis, Debye):
    X=              0.9878    Y=             -1.2933    Z=              0.0011  Tot=              1.6273
 Quadrupole moment (field-independent basis, Debye-Ang):
   XX=            -45.0082   YY=            -48.5202   ZZ=            -56.7738
   XY=              1.3315   XZ=             -0.0010   YZ=              0.0004

  Exact polarizability: 103.412  -2.540  75.186   0.002   0.000  60.286
 Approx polarizability: 144.622  -9.347 101.893   0.007  -0.004  90.890

 ******    1 imaginary frequencies (negative Signs) ******

                      1                      2                      3
                      A                      A                      A
 Frequencies --    -16.2870                53.5731                81.0265
 Red. masses --      1.0203                 1.8082                 3.2170
 Frc consts  --      0.0002                 0.0031                 0.0124
 IR Inten    --      0.0000                 1.1734                 1.0534

                      4                      5                      6
                      A                      A                      A
 Frequencies --    118.8069               180.9384               205.0065
 Red. masses --      4.2133                 3.2726                 1.0547
 Frc consts  --      0.0350                 0.0631                 0.0261
 IR Inten    --      0.5457                 8.0877                 0.4446

                      7                      8                      9
                      A                      A                      A
 Frequencies --    299.3996               299.5465               344.4523
 Red. masses --      3.3006                 3.5455                 3.3002
 Frc consts  --      0.1743                 0.1874                 0.2307
 IR Inten    --      3.0552                 8.7002                 0.0599

                     10                     11                     12
                      A                      A                      A
 Frequencies --    403.6570               494.1946               571.3514
 Red. masses --      4.5100                 6.2940                 7.9045
 Frc consts  --      0.4330                 0.9057                 1.5203
 IR Inten    --      5.4938                 0.9350                 0.3932

                     13                     14                     15
                      A                      A                      A
 Frequencies --    634.7852               744.7038               756.0602
 Red. masses --      4.3479                 6.5698                 5.3828
 Frc consts  --      1.0322                 2.1467                 1.8129
 IR Inten    --      9.2850                 1.0380                 4.6755

                     16                     17                     18
                      A                      A                      A
 Frequencies --    839.7340               865.1687               888.4244
 Red. masses --      1.1716                 2.3942                 2.9985
 Frc consts  --      0.4868                 1.0559                 1.3944
 IR Inten    --      1.3972                55.5612                35.8811

                     19                     20                     21
                      A                      A                      A
 Frequencies --    949.1501              1050.1050              1051.6713
 Red. masses --      2.9528                 3.4444                 1.4418
 Frc consts  --      1.5673                 2.2378                 0.9396
 IR Inten    --     11.8767                38.7464                 0.4980

                     22                     23                     24
                      A                      A                      A
 Frequencies --   1053.3093              1068.3744              1069.5156
 Red. masses --      1.4069                 7.0293                 4.6349
 Frc consts  --      0.9196                 4.7272                 3.1237
 IR Inten    --      1.0060                21.9993               105.3265

                     25                     26                     27
                      A                      A                      A
 Frequencies --   1129.6799              1165.0358              1205.2617
 Red. masses --      1.9600                 1.7791                 2.9360
 Frc consts  --      1.4737                 1.4228                 2.5128
 IR Inten    --     26.0061                 6.7588               187.9981

                     28                     29                     30
                      A                      A                      A
 Frequencies --   1236.5493              1239.8585              1255.6470
 Red. masses --      1.7155                 1.0833                 2.5371
 Frc consts  --      1.5455                 0.9811                 2.3568
 IR Inten    --     44.3476                 2.3536                56.8987

                     31                     32                     33
                      A                      A                      A
 Frequencies --   1369.0095              1377.3914              1401.9875
 Red. masses --      1.3044                 1.3383                 1.3306
 Frc consts  --      1.4403                 1.4959                 1.5409
 IR Inten    --      0.3757                 4.6075                15.1765

                     34                     35                     36
                      A                      A                      A
 Frequencies --   1413.2459              1477.0290              1477.2014
 Red. masses --      1.2403                 1.0400                 1.0403
 Frc consts  --      1.4595                 1.3368                 1.3374
 IR Inten    --      4.9263                 5.9094                 8.0013

                     37                     38                     39
                      A                      A                      A
 Frequencies --   1478.5008              1479.6949              1515.2744
 Red. masses --      1.0467                 1.0513                 1.0893
 Frc consts  --      1.3481                 1.3562                 1.4735
 IR Inten    --      0.4082                 0.0879                 0.4974

                     40                     41                     42
                      A                      A                      A
 Frequencies --   1528.5407              2363.4827              3019.1188
 Red. masses --      1.0912                11.9026                 1.0670
 Frc consts  --      1.5021                39.1738                 5.7302
 IR Inten    --      0.1987                26.5604                28.3328

                     43                     44                     45
                      A                      A                      A
 Frequencies --   3028.7595              3031.6404              3061.1943
 Red. masses --      1.0351                 1.0632                 1.0335
 Frc consts  --      5.5943                 5.7571                 5.7061
 IR Inten    --     26.5923                74.1304                 7.7493

                     46                     47                     48
                      A                      A                      A
 Frequencies --   3082.4088              3090.7330              3091.0482
 Red. masses --      1.0978                 1.1003                 1.1001
 Frc consts  --      6.1457                 6.1926                 6.1931
 IR Inten    --      6.2215                 8.8769                 8.5636

                     49                     50                     51
                      A                      A                      A
 Frequencies --   3101.9486              3147.1931              3147.8348
 Red. masses --      1.1030                 1.1026                 1.1035
 Frc consts  --      6.2530                 6.4346                 6.4426
 IR Inten    --     58.8323                 9.0401                14.9567

 - Thermochemistry -
 -------------------
 Temperature   298.150 Kelvin.  Pressure   1.00000 Atm.
 Atom     1 has atomic number  6 and mass  12.00000

 Molecular mass:   126.06808 amu.
 Principal axes and moments of inertia in atomic units:
                           1         2         3
     Eigenvalues --   709.163711576.672241830.09389
           X            0.99999  -0.00474   0.00001
           Y            0.00474   0.99999   0.00004
           Z           -0.00001  -0.00004   1.00000
 This molecule is an asymmetric top.
 Rotational symmetry number  1.
 Warning -- assumption of classical behavior for rotation
           may cause significant error
 Rotational temperatures (Kelvin)      0.12214     0.05493     0.04733
 Rotational constants (GHZ):           2.54489     1.14465     0.98615
    1 imaginary frequencies ignored.
 Zero-point vibrational energy     412342.1 (Joules/Mol)
                                   98.55214 (Kcal/Mol)
 Warning -- explicit consideration of  11 degrees of freedom as
           vibrations may cause significant error
 Vibrational temperatures:     77.08   116.58   170.94   260.33   294.96
          (Kelvin)            430.77   430.98   495.59   580.77   711.03
                              822.05   913.31  1071.46  1087.80  1208.19
                             1244.78  1278.24  1365.61  1510.86  1513.12
                             1515.48  1537.15  1538.79  1625.36  1676.22
                             1734.10  1779.12  1783.88  1806.59  1969.70
                             1981.76  2017.14  2033.34  2125.11  2125.36
                             2127.23  2128.95  2180.14  2199.23  3400.52
                             4343.83  4357.70  4361.85  4404.37  4434.89
                             4446.87  4447.32  4463.01  4528.10  4529.03

 Zero-point correction=                           0.157053 (Hartree/Particle)
 Thermal correction to Energy=                    0.166116
 Thermal correction to Enthalpy=                  0.167060
 Thermal correction to Gibbs Free Energy=         0.122397
 Sum of electronic and zero-point Energies=           -423.007157
 Sum of electronic and thermal Energies=              -422.998094
 Sum of electronic and thermal Enthalpies=            -422.997150
 Sum of electronic and thermal Free Energies=         -423.041813

                     E (Thermal)             CV                S
                      KCal/Mol        Cal/Mol-Kelvin    Cal/Mol-Kelvin
 Total                  104.239             32.518             94.002
 Electronic               0.000              0.000              0.000
 Translational            0.889              2.981             40.409
 Rotational               0.889              2.981             29.105
 Vibrational            102.462             26.556             24.488
 Vibration     1          0.596              1.976              4.681
 Vibration     2          0.600              1.962              3.866
 Vibration     3          0.609              1.934              3.120
 Vibration     4          0.630              1.866              2.319
 Vibration     5          0.640              1.833              2.088
 Vibration     6          0.692              1.675              1.420
 Vibration     7          0.692              1.675              1.419
 Vibration     8          0.723              1.587              1.191
 Vibration     9          0.769              1.462              0.949
 Vibration    10          0.850              1.263              0.673
 Vibration    11          0.928              1.093              0.502

 Normal termination of Gaussian 09 at Mon Jan 27 14:48:46 2020.
