 Gaussian 09, Revision D.01,
 Gaussian 09:  ES64L-G09RevD.01 24-Apr-2013

 -----------------------------
 # b3lyp 6-31G(2df,p) opt Freq
 -----------------------------

 -----
 titel
 -----
 Symbolic Z-matrix:
 Charge =  0 Multiplicity = 1

 SCF Done:  E(RB3LYP) =  -423.116662021     A.U. after   13 cycles
 Optimization completed.
    -- Stationary point found.
 Normal termination of Gaussian 09 at Mon Jan 27 12:17:45 2020.

 ----------------------------------------------------------------------
 #N Geom=AllCheck Guess=TCheck SCRF=Check GenChk RB3LYP/6-31G(2df,p) Fr
 eq
 ----------------------------------------------------------------------

 Structure from the checkpoint file:  "/scratch/puck/g09_597965da-1b4e-4f77-a490-e6c52cad4340/Gau-167047.chk"
 -----
 titel
 -----
 Charge =  0 Multiplicity = 1

                         Standard orientation:
 ---------------------------------------------------------------------
 Center     Atomic      Atomic             Coordinates (Angstroms)
 Number     Number       Type             X           Y           Z
 ---------------------------------------------------------------------
      1          6           0        2.101541    0.353453   -0.399652
      2          6           0        1.781902   -0.751875    0.693058
      3          6           0        0.284113   -0.468008    0.367498
      4          6           0       -0.318113   -1.323045   -0.777063
      5          8           0       -1.645978   -1.217848   -0.224500
      6          6           0       -1.205443   -0.277818    0.766211
      7          6           0       -1.440780    1.188865    0.257117
      8          8           0       -0.363671    1.537606   -0.650135
      9          6           0        0.719798    0.921146    0.010764
     10          1           0        2.978363    0.987191   -0.258741
     11          1           0        2.114757   -0.082744   -1.400537
     12          1           0        2.133176   -1.765912    0.495885
     13          1           0        2.099887   -0.440107    1.690158
     14          1           0       -0.256632   -0.906254   -1.789404
     15          1           0        0.025397   -2.365242   -0.783543
     16          1           0       -1.634451   -0.465217    1.754219
     17          1           0       -2.383771    1.273384   -0.285267
     18          1           0       -1.439010    1.884459    1.110649
     19          1           0        0.901367    1.466070    0.956063
 ---------------------------------------------------------------------

 SCF Done:  E(RB3LYP) =  -423.116662021     A.U. after    1 cycles

 The electronic state is 1-A.
 Alpha  occ. eigenvalues --  -19.14449 -19.13090 -10.23947 -10.22933 -10.22922
 Alpha  occ. eigenvalues --  -10.22602 -10.20507 -10.20135 -10.19357  -1.05364
 Alpha  occ. eigenvalues --   -1.02381  -0.85629  -0.73777  -0.69971  -0.66781
 Alpha  occ. eigenvalues --   -0.63279  -0.58834  -0.54417  -0.50861  -0.49772
 Alpha  occ. eigenvalues --   -0.47234  -0.45905  -0.43038  -0.41610  -0.39522
 Alpha  occ. eigenvalues --   -0.38795  -0.37573  -0.35904  -0.34439  -0.32980
 Alpha  occ. eigenvalues --   -0.29897  -0.27935  -0.26026  -0.23891
 Alpha virt. eigenvalues --    0.06177   0.08114   0.10268   0.11224   0.11482
 Alpha virt. eigenvalues --    0.12996   0.13816   0.14502   0.16034   0.17107
 Alpha virt. eigenvalues --    0.17712   0.18129   0.18742   0.19469   0.22068

 Mulliken charges:
               1
     1  C   -0.302930
     2  C   -0.348877
     3  C    0.292884
     4  C   -0.114277
     5  O   -0.285728
     6  C   -0.049523
     7  C   -0.110925
     8  O   -0.283422
     9  C    0.159486
    10  H    0.107674
    11  H    0.123966
    12  H    0.112213
    13  H    0.117393
    14  H    0.112106
    15  H    0.098866
    16  H    0.083205
    17  H    0.125324
    18  H    0.094559
    19  H    0.068006
 Sum of Mulliken charges =   0.00000

 Dipole moment (field-independent basis, Debye):
    X=              1.7166    Y=             -0.1375    Z=              1.3927  Tot=              2.2147
 Quadrupole moment (field-independent basis, Debye-Ang):
   XX=            -52.9556   YY=            -55.9616   ZZ=            -52.1791
   XY=             -3.2340   XZ=             -1.8240   YZ=              2.6651

  Exact polarizability:  85.101  -3.619  72.390  -2.033   4.302  67.231
 Approx polarizability: 117.683  -2.923 105.895  -2.133   4.897 105.184

                      1                      2                      3
                      A                      A                      A
 Frequencies --    170.9126               233.4963               266.3816
 Red. masses --      3.1563                 2.5015                 2.8869
 Frc consts  --      0.0543                 0.0804                 0.1207
 IR Inten    --      3.0698                 0.6150                 2.8598

                      4                      5                      6
                      A                      A                      A
 Frequencies --    317.0684               395.4602               425.3897
 Red. masses --      3.3597                 2.3760                 2.4092
 Frc consts  --      0.1990                 0.2189                 0.2569
 IR Inten    --      1.6789                 0.7630                 8.5729

                      7                      8                      9
                      A                      A                      A
 Frequencies --    536.7648               589.4802               673.9267
 Red. masses --      3.2037                 3.9467                 2.6629
 Frc consts  --      0.5438                 0.8080                 0.7126
 IR Inten    --      1.8321                 0.6298                 1.7650

                     10                     11                     12
                      A                      A                      A
 Frequencies --    702.7979               794.0135               825.2956
 Red. masses --      4.1754                 1.8043                 2.2674
 Frc consts  --      1.2151                 0.6702                 0.9099
 IR Inten    --     12.2291                 2.1796                 7.8089

                     13                     14                     15
                      A                      A                      A
 Frequencies --    861.2674               883.2310               889.6968
 Red. masses --      2.8520                 2.9237                 2.0445
 Frc consts  --      1.2464                 1.3438                 0.9535
 IR Inten    --      1.9304                22.1400                 7.2759

                     16                     17                     18
                      A                      A                      A
 Frequencies --    904.9682               955.7137               966.4689
 Red. masses --      2.5699                 2.8040                 2.2995
 Frc consts  --      1.2400                 1.5090                 1.2655
 IR Inten    --     22.6993                21.0952                17.9902

                     19                     20                     21
                      A                      A                      A
 Frequencies --   1002.1356              1028.2391              1066.9437
 Red. masses --      2.3602                 4.2456                 2.0963
 Frc consts  --      1.3965                 2.6447                 1.4060
 IR Inten    --     13.5084                43.0969                 3.1175

                     22                     23                     24
                      A                      A                      A
 Frequencies --   1069.2082              1120.1263              1138.9246
 Red. masses --      2.5780                 2.3698                 2.0632
 Frc consts  --      1.7365                 1.7519                 1.5768
 IR Inten    --     25.0096                14.7895                 8.4306

                     25                     26                     27
                      A                      A                      A
 Frequencies --   1153.7664              1170.8802              1180.8061
 Red. masses --      1.7898                 1.1573                 1.9657
 Frc consts  --      1.4038                 0.9348                 1.6148
 IR Inten    --     11.6320                 3.2217                18.8383

                     28                     29                     30
                      A                      A                      A
 Frequencies --   1217.9800              1227.0858              1237.6900
 Red. masses --      1.2565                 1.7738                 1.3509
 Frc consts  --      1.0983                 1.5736                 1.2193
 IR Inten    --      1.4818                 9.8249                 4.4885

                     31                     32                     33
                      A                      A                      A
 Frequencies --   1252.7218              1275.4374              1299.6735
 Red. masses --      1.6230                 2.0667                 1.3218
 Frc consts  --      1.5006                 1.9808                 1.3155
 IR Inten    --      5.5496                 9.4597                 2.9058

                     34                     35                     36
                      A                      A                      A
 Frequencies --   1312.7350              1353.7600              1367.0713
 Red. masses --      1.8567                 1.2884                 1.5144
 Frc consts  --      1.8851                 1.3911                 1.6675
 IR Inten    --      3.1675                 2.1860                 3.4426

                     37                     38                     39
                      A                      A                      A
 Frequencies --   1452.2005              1482.3187              1487.9016
 Red. masses --      1.1201                 1.0900                 1.1123
 Frc consts  --      1.3918                 1.4111                 1.4509
 IR Inten    --      8.1654                 2.0260                 4.1877

                     40                     41                     42
                      A                      A                      A
 Frequencies --   1498.6713              1510.5985              2921.7464
 Red. masses --      1.1284                 1.1239                 1.0803
 Frc consts  --      1.4933                 1.5110                 5.4333
 IR Inten    --      4.6589                 2.2163                45.3928

                     43                     44                     45
                      A                      A                      A
 Frequencies --   2987.9303              3011.3249              3061.3744
 Red. masses --      1.0697                 1.0550                 1.1092
 Frc consts  --      5.6269                 5.6364                 6.1250
 IR Inten    --     61.8048                53.5274                25.6897

                     46                     47                     48
                      A                      A                      A
 Frequencies --   3074.7417              3079.5017              3080.4464
 Red. masses --      1.0575                 1.0786                 1.0678
 Frc consts  --      5.8905                 6.0267                 5.9699
 IR Inten    --     27.8393                76.1594                12.2195

                     49                     50                     51
                      A                      A                      A
 Frequencies --   3126.1812              3130.8194              3143.9457
 Red. masses --      1.0952                 1.1103                 1.1095
 Frc consts  --      6.3065                 6.4120                 6.4612
 IR Inten    --     14.6471                 7.7524                37.0507

 - Thermochemistry -
 -------------------
 Temperature   298.150 Kelvin.  Pressure   1.00000 Atm.
 Atom     1 has atomic number  6 and mass  12.00000

 Molecular mass:   126.06808 amu.
 Principal axes and moments of inertia in atomic units:
                           1         2         3
     Eigenvalues --   663.68060 955.204791289.53802
           X            0.99782  -0.06521  -0.01013
           Y            0.06559   0.99692   0.04309
           Z            0.00729  -0.04366   0.99902
 This molecule is an asymmetric top.
 Rotational symmetry number  1.
 Warning -- assumption of classical behavior for rotation
           may cause significant error
 Rotational temperatures (Kelvin)      0.13051     0.09068     0.06717
 Rotational constants (GHZ):           2.71929     1.88938     1.39953
 Zero-point vibrational energy     424179.2 (Joules/Mol)
                                  101.38126 (Kcal/Mol)
 Warning -- explicit consideration of   8 degrees of freedom as
           vibrations may cause significant error
 Vibrational temperatures:    245.90   335.95   383.26   456.19   568.98
          (Kelvin)            612.04   772.28   848.13   969.63  1011.17
                             1142.41  1187.41  1239.17  1270.77  1280.07
                             1302.05  1375.06  1390.53  1441.85  1479.40
                             1535.09  1538.35  1611.61  1638.66  1660.01
                             1684.63  1698.91  1752.40  1765.50  1780.76
                             1802.38  1835.07  1869.94  1888.73  1947.76
                             1966.91  2089.39  2132.72  2140.76  2156.25
                             2173.41  4203.74  4298.96  4332.62  4404.63
                             4423.86  4430.71  4432.07  4497.87  4504.55
                             4523.43

 Zero-point correction=                           0.161561 (Hartree/Particle)
 Thermal correction to Energy=                    0.168404
 Thermal correction to Enthalpy=                  0.169348
 Thermal correction to Gibbs Free Energy=         0.130636
 Sum of electronic and zero-point Energies=           -422.955101
 Sum of electronic and thermal Energies=              -422.948258
 Sum of electronic and thermal Enthalpies=            -422.947314
 Sum of electronic and thermal Free Energies=         -422.986026

                     E (Thermal)             CV                S
                      KCal/Mol        Cal/Mol-Kelvin    Cal/Mol-Kelvin
 Total                  105.675             28.381             81.475
 Electronic               0.000              0.000              0.000
 Translational            0.889              2.981             40.409
 Rotational               0.889              2.981             28.193
 Vibrational            103.897             22.419             12.873
 Vibration     1          0.626              1.878              2.425
 Vibration     2          0.654              1.790              1.852
 Vibration     3          0.672              1.735              1.620
 Vibration     4          0.704              1.641              1.325
 Vibration     5          0.762              1.480              0.979
 Vibration     6          0.787              1.415              0.874
 Vibration     7          0.892              1.169              0.572
 Vibration     8          0.947              1.054              0.468

 Optimization completed.
    -- Stationary point found.
 Normal termination of Gaussian 09 at Mon Jan 27 13:05:40 2020.
