 Gaussian 09, Revision D.01,
 Gaussian 09:  ES64L-G09RevD.01 24-Apr-2013

 -----------------------------
 # b3lyp 6-31G(2df,p) opt Freq
 -----------------------------

 -----
 titel
 -----
 Symbolic Z-matrix:
 Charge =  0 Multiplicity = 1

 SCF Done:  E(RB3LYP) =  -423.155145381     A.U. after   14 cycles
 Optimization completed.
    -- Stationary point found.
 Normal termination of Gaussian 09 at Mon Jan 27 22:13:23 2020.

 ----------------------------------------------------------------------
 #N Geom=AllCheck Guess=TCheck SCRF=Check GenChk RB3LYP/6-31G(2df,p) Fr
 eq
 ----------------------------------------------------------------------

 Structure from the checkpoint file:  "/scratch/puck/g09_807c07ac-4988-4faf-85b4-2a90f7b29c44/Gau-28718.chk"
 -----
 titel
 -----
 Charge =  0 Multiplicity = 1

                         Standard orientation:
 ---------------------------------------------------------------------
 Center     Atomic      Atomic             Coordinates (Angstroms)
 Number     Number       Type             X           Y           Z
 ---------------------------------------------------------------------
      1          6           0       -2.630849   -1.188718   -0.264068
      2          6           0       -1.369812   -0.743425    0.444937
      3          6           0       -0.095940   -0.691328   -0.389451
      4          6           0        1.067148   -0.305218    0.523201
      5          8           0        0.331051    0.837769    1.028021
      6          6           0       -0.755808    0.583930    0.112694
      7          6           0       -1.395427    1.779512   -0.511806
      8          6           0        2.294024    0.143388   -0.248068
      9          8           0        3.245157   -0.562061   -0.458540
     10          1           0       -2.706483   -2.280977   -0.269083
     11          1           0       -3.524125   -0.791853    0.229553
     12          1           0       -2.649101   -0.855679   -1.306733
     13          1           0       -1.280313   -1.072473    1.479236
     14          1           0       -0.017935   -1.124045   -1.378316
     15          1           0        1.352972   -1.016615    1.306191
     16          1           0       -0.659061    2.386198   -1.047587
     17          1           0       -2.180610    1.485250   -1.212352
     18          1           0       -1.850967    2.406795    0.263015
     19          1           0        2.225955    1.188890   -0.624416
 ---------------------------------------------------------------------

 SCF Done:  E(RB3LYP) =  -423.155145381     A.U. after    1 cycles

 The electronic state is 1-A.
 Alpha  occ. eigenvalues --  -19.14945 -19.14557 -10.27239 -10.25284 -10.24776
 Alpha  occ. eigenvalues --  -10.20617 -10.20388 -10.19290 -10.19210  -1.06564
 Alpha  occ. eigenvalues --   -1.04949  -0.85133  -0.75889  -0.72920  -0.70327
 Alpha  occ. eigenvalues --   -0.59148  -0.58466  -0.53428  -0.50840  -0.50511
 Alpha  occ. eigenvalues --   -0.46448  -0.44479  -0.43618  -0.42658  -0.40644
 Alpha  occ. eigenvalues --   -0.40489  -0.39998  -0.38555  -0.37169  -0.34266
 Alpha  occ. eigenvalues --   -0.31896  -0.28739  -0.26183  -0.23717
 Alpha virt. eigenvalues --   -0.03216   0.07886   0.08388   0.10588   0.11318
 Alpha virt. eigenvalues --    0.13019   0.13743   0.13890   0.15257   0.15597
 Alpha virt. eigenvalues --    0.16770   0.18081   0.18485   0.20022   0.21708

 Mulliken charges:
               1
     1  C   -0.427998
     2  C   -0.074305
     3  C   -0.198565
     4  C    0.008026
     5  O   -0.332525
     6  C    0.456068
     7  C   -0.494563
     8  C    0.144897
     9  O   -0.243290
    10  H    0.127878
    11  H    0.126282
    12  H    0.119194
    13  H    0.092113
    14  H    0.108348
    15  H    0.104079
    16  H    0.129979
    17  H    0.130374
    18  H    0.137346
    19  H    0.086661
 Sum of Mulliken charges =   0.00000

 Dipole moment (field-independent basis, Debye):
    X=             -3.1684    Y=              0.1785    Z=             -0.7238  Tot=              3.2550
 Quadrupole moment (field-independent basis, Debye-Ang):
   XX=            -60.4620   YY=            -52.9344   ZZ=            -53.3536
   XY=              2.7298   XZ=              2.1081   YZ=             -2.4244

  Exact polarizability:  94.328  -1.432  75.582  -1.330  -2.592  62.050
 Approx polarizability: 125.054  -7.846 112.980  -3.989   1.141  97.211

                      1                      2                      3
                      A                      A                      A
 Frequencies --     56.7050               106.9684               180.0228
 Red. masses --      4.3814                 3.9826                 1.6211
 Frc consts  --      0.0083                 0.0268                 0.0310
 IR Inten    --      7.9046                 0.6419                 0.2563

                      4                      5                      6
                      A                      A                      A
 Frequencies --    186.3628               192.4172               241.3636
 Red. masses --      1.2803                 1.4277                 1.5920
 Frc consts  --      0.0262                 0.0311                 0.0546
 IR Inten    --      0.6147                 1.1089                 0.3862

                      7                      8                      9
                      A                      A                      A
 Frequencies --    300.5225               332.7797               367.8958
 Red. masses --      2.7421                 2.8694                 3.1158
 Frc consts  --      0.1459                 0.1872                 0.2485
 IR Inten    --      6.3029                 0.9915                 5.3316

                     10                     11                     12
                      A                      A                      A
 Frequencies --    430.5250               464.1721               527.6343
 Red. masses --      4.3962                 3.8240                 4.2061
 Frc consts  --      0.4801                 0.4854                 0.6899
 IR Inten    --      0.0300                20.0078                 1.3069

                     13                     14                     15
                      A                      A                      A
 Frequencies --    667.1018               780.9725               811.7750
 Red. masses --      3.4845                 2.6815                 3.9082
 Frc consts  --      0.9136                 0.9636                 1.5174
 IR Inten    --      2.2265                 1.0473                14.0686

                     16                     17                     18
                      A                      A                      A
 Frequencies --    902.6579               913.5370               945.4023
 Red. masses --      2.0140                 1.4292                 2.0617
 Frc consts  --      0.9669                 0.7027                 1.0857
 IR Inten    --     13.2057                 5.7224                 8.4270

                     19                     20                     21
                      A                      A                      A
 Frequencies --    963.8553               994.0092              1013.9985
 Red. masses --      1.7686                 4.7637                 1.4972
 Frc consts  --      0.9680                 2.7732                 0.9070
 IR Inten    --      9.9242                79.8336                 2.3241

                     22                     23                     24
                      A                      A                      A
 Frequencies --   1057.7037              1064.5589              1106.1830
 Red. masses --      1.5832                 2.8746                 2.1597
 Frc consts  --      1.0436                 1.9194                 1.5571
 IR Inten    --      0.4647                17.4697                 5.1857

                     25                     26                     27
                      A                      A                      A
 Frequencies --   1116.6089              1134.0754              1141.9677
 Red. masses --      1.9619                 1.7432                 2.5010
 Frc consts  --      1.4412                 1.3209                 1.9216
 IR Inten    --     12.8407                 0.4165                 2.0441

                     28                     29                     30
                      A                      A                      A
 Frequencies --   1186.9641              1225.6679              1254.9470
 Red. masses --      1.6678                 1.5754                 1.6891
 Frc consts  --      1.3845                 1.3944                 1.5673
 IR Inten    --     26.8499                24.0635                 3.4727

                     31                     32                     33
                      A                      A                      A
 Frequencies --   1309.2685              1335.9808              1398.6191
 Red. masses --      1.4228                 1.6781                 1.2425
 Frc consts  --      1.4370                 1.7647                 1.4320
 IR Inten    --      3.3783                 4.9067                 4.1366

                     34                     35                     36
                      A                      A                      A
 Frequencies --   1409.2467              1419.1436              1452.1713
 Red. masses --      1.3750                 1.2219                 2.8621
 Frc consts  --      1.6089                 1.4499                 3.5561
 IR Inten    --      1.8455                 4.1223                 7.1049

                     37                     38                     39
                      A                      A                      A
 Frequencies --   1475.1500              1492.4028              1496.3869
 Red. masses --      1.0690                 1.0567                 1.0533
 Frc consts  --      1.3705                 1.3866                 1.3896
 IR Inten    --      3.5739                 1.1084                 3.8714

                     40                     41                     42
                      A                      A                      A
 Frequencies --   1510.2743              1834.3267              2886.0652
 Red. masses --      1.1853                10.6771                 1.0842
 Frc consts  --      1.5928                21.1670                 5.3205
 IR Inten    --      9.4145               178.7733                82.1107

                     43                     44                     45
                      A                      A                      A
 Frequencies --   3032.6331              3036.9249              3053.8609
 Red. masses --      1.0351                 1.0373                 1.0852
 Frc consts  --      5.6091                 5.6365                 5.9631
 IR Inten    --     26.9723                22.3038                34.2519

                     46                     47                     48
                      A                      A                      A
 Frequencies --   3097.2674              3098.0099              3099.0662
 Red. masses --      1.0986                 1.1011                 1.1000
 Frc consts  --      6.2091                 6.2265                 6.2243
 IR Inten    --      9.1455                 9.4184                23.7766

                     49                     50                     51
                      A                      A                      A
 Frequencies --   3118.6317              3127.9261              3198.0499
 Red. masses --      1.0909                 1.0992                 1.0935
 Frc consts  --      6.2514                 6.3362                 6.5890
 IR Inten    --     30.9437                13.7500                 5.0785

 - Thermochemistry -
 -------------------
 Temperature   298.150 Kelvin.  Pressure   1.00000 Atm.
 Atom     1 has atomic number  6 and mass  12.00000

 Molecular mass:   126.06808 amu.
 Principal axes and moments of inertia in atomic units:
                           1         2         3
     Eigenvalues --   562.595351675.554591931.03150
           X            0.99981   0.01551   0.01213
           Y           -0.01478   0.99821  -0.05787
           Z           -0.01300   0.05767   0.99825
 This molecule is an asymmetric top.
 Rotational symmetry number  1.
 Warning -- assumption of classical behavior for rotation
           may cause significant error
 Rotational temperatures (Kelvin)      0.15395     0.05169     0.04485
 Rotational constants (GHZ):           3.20789     1.07710     0.93460
 Zero-point vibrational energy     410024.6 (Joules/Mol)
                                   97.99823 (Kcal/Mol)
 Warning -- explicit consideration of  12 degrees of freedom as
           vibrations may cause significant error
 Vibrational temperatures:     81.59   153.90   259.01   268.13   276.85
          (Kelvin)            347.27   432.38   478.80   529.32   619.43
                              667.84   759.15   959.81  1123.64  1167.96
                             1298.72  1314.37  1360.22  1386.77  1430.16
                             1458.92  1521.80  1531.66  1591.55  1606.55
                             1631.68  1643.03  1707.77  1763.46  1805.59
                             1883.74  1922.18  2012.30  2027.59  2041.83
                             2089.35  2122.41  2147.23  2152.96  2172.95
                             2639.18  4152.40  4363.28  4369.45  4393.82
                             4456.27  4457.34  4458.86  4487.01  4500.38
                             4601.27

 Zero-point correction=                           0.156170 (Hartree/Particle)
 Thermal correction to Energy=                    0.165486
 Thermal correction to Enthalpy=                  0.166430
 Thermal correction to Gibbs Free Energy=         0.121800
 Sum of electronic and zero-point Energies=           -422.998975
 Sum of electronic and thermal Energies=              -422.989659
 Sum of electronic and thermal Enthalpies=            -422.988715
 Sum of electronic and thermal Free Energies=         -423.033345

                     E (Thermal)             CV                S
                      KCal/Mol        Cal/Mol-Kelvin    Cal/Mol-Kelvin
 Total                  103.844             34.012             93.932
 Electronic               0.000              0.000              0.000
 Translational            0.889              2.981             40.409
 Rotational               0.889              2.981             28.989
 Vibrational            102.067             28.050             24.535
 Vibration     1          0.596              1.975              4.569
 Vibration     2          0.606              1.944              3.323
 Vibration     3          0.629              1.867              2.328
 Vibration     4          0.632              1.859              2.264
 Vibration     5          0.634              1.850              2.204
 Vibration     6          0.658              1.777              1.793
 Vibration     7          0.693              1.673              1.414
 Vibration     8          0.715              1.610              1.247
 Vibration     9          0.740              1.538              1.089
 Vibration    10          0.792              1.404              0.857
 Vibration    11          0.822              1.330              0.754
 Vibration    12          0.883              1.189              0.593

 Normal termination of Gaussian 09 at Tue Jan 28 00:21:32 2020.
