 Gaussian 09, Revision D.01,
 Gaussian 09:  ES64L-G09RevD.01 24-Apr-2013

 -----------------------------
 # b3lyp 6-31G(2df,p) opt Freq
 -----------------------------

 -----
 titel
 -----
 Symbolic Z-matrix:
 Charge =  0 Multiplicity = 1

 SCF Done:  E(RB3LYP) =  -423.223898224     A.U. after   14 cycles
 Optimization completed.
    -- Stationary point found.
 Normal termination of Gaussian 09 at Mon Jan 27 18:30:45 2020.

 ----------------------------------------------------------------------
 #N Geom=AllCheck Guess=TCheck SCRF=Check GenChk RB3LYP/6-31G(2df,p) Fr
 eq
 ----------------------------------------------------------------------

 Structure from the checkpoint file:  "/scratch/puck/g09_e288cda6-8db9-47bd-87be-19eb6384b8a7/Gau-81853.chk"
 -----
 titel
 -----
 Charge =  0 Multiplicity = 1

                         Standard orientation:
 ---------------------------------------------------------------------
 Center     Atomic      Atomic             Coordinates (Angstroms)
 Number     Number       Type             X           Y           Z
 ---------------------------------------------------------------------
      1          6           0       -1.943357   -1.153899    0.274431
      2          6           0       -0.578473   -0.517522    0.120415
      3          6           0        0.288756   -1.056561   -1.051279
      4          8           0        1.621983   -0.603131   -0.774154
      5          6           0        1.546071    0.133184    0.456731
      6          6           0        0.855837    1.476444    0.164931
      7          6           0       -0.587613    1.006385   -0.096110
      8          8           0       -1.533118    1.682406   -0.405205
      9          6           0        0.473777   -0.626259    1.254145
     10          1           0       -2.460368   -0.761525    1.154931
     11          1           0       -2.570470   -0.931695   -0.594204
     12          1           0       -1.865035   -2.240844    0.377916
     13          1           0        0.265524   -2.154724   -1.070020
     14          1           0       -0.038796   -0.686965   -2.030320
     15          1           0        2.546866    0.194726    0.883103
     16          1           0        0.877975    2.158524    1.022584
     17          1           0        1.271275    1.998840   -0.700109
     18          1           0        0.761045   -1.657583    1.474255
     19          1           0        0.171074   -0.123580    2.177152
 ---------------------------------------------------------------------

 SCF Done:  E(RB3LYP) =  -423.223898224     A.U. after    1 cycles

 The electronic state is 1-A.
 Alpha  occ. eigenvalues --  -19.14244 -19.13395 -10.26798 -10.24301 -10.23707
 Alpha  occ. eigenvalues --  -10.20690 -10.19629 -10.19142 -10.18364  -1.04955
 Alpha  occ. eigenvalues --   -1.03823  -0.84036  -0.77823  -0.70729  -0.69392
 Alpha  occ. eigenvalues --   -0.61554  -0.58903  -0.51909  -0.50183  -0.48647
 Alpha  occ. eigenvalues --   -0.47504  -0.44059  -0.42243  -0.41573  -0.40680
 Alpha  occ. eigenvalues --   -0.40515  -0.37939  -0.37668  -0.36151  -0.35809
 Alpha  occ. eigenvalues --   -0.34687  -0.30786  -0.25498  -0.23940
 Alpha virt. eigenvalues --   -0.01615   0.08027   0.09480   0.12347   0.12566
 Alpha virt. eigenvalues --    0.13359   0.14966   0.15271   0.16245   0.17013
 Alpha virt. eigenvalues --    0.17667   0.18569   0.18813   0.20338   0.21232

 Mulliken charges:
               1
     1  C   -0.488059
     2  C    0.159295
     3  C   -0.104981
     4  O   -0.277760
     5  C    0.090591
     6  C   -0.336394
     7  C    0.404354
     8  O   -0.332972
     9  C   -0.276315
    10  H    0.127346
    11  H    0.136378
    12  H    0.114006
    13  H    0.103917
    14  H    0.114235
    15  H    0.084122
    16  H    0.127505
    17  H    0.136505
    18  H    0.111284
    19  H    0.106944
 Sum of Mulliken charges =   0.00000

 Dipole moment (field-independent basis, Debye):
    X=              0.8525    Y=             -1.3297    Z=              1.5557  Tot=              2.2169
 Quadrupole moment (field-independent basis, Debye-Ang):
   XX=            -58.1782   YY=            -54.6019   ZZ=            -51.4538
   XY=              6.2974   XZ=              1.6056   YZ=              1.3393

  Exact polarizability:  77.906   2.196  76.814   3.364   0.772  67.228
 Approx polarizability: 114.257  -4.837 111.573   5.124   0.635 102.834

                      1                      2                      3
                      A                      A                      A
 Frequencies --    115.1171               173.1376               223.0467
 Red. masses --      3.9538                 1.0796                 2.5155
 Frc consts  --      0.0309                 0.0191                 0.0737
 IR Inten    --      5.3719                 0.8177                 0.2414

                      4                      5                      6
                      A                      A                      A
 Frequencies --    265.3603               296.6362               383.8919
 Red. masses --      2.9375                 2.5933                 2.2682
 Frc consts  --      0.1219                 0.1344                 0.1969
 IR Inten    --      4.4876                 1.3898                 2.3572

                      7                      8                      9
                      A                      A                      A
 Frequencies --    425.8057               488.0894               550.2965
 Red. masses --      2.3488                 3.2196                 4.2631
 Frc consts  --      0.2509                 0.4519                 0.7606
 IR Inten    --      0.1703                 5.4722                 5.8662

                     10                     11                     12
                      A                      A                      A
 Frequencies --    607.0392               614.8570               696.4646
 Red. masses --      2.5896                 4.1791                 3.7165
 Frc consts  --      0.5622                 0.9308                 1.0621
 IR Inten    --      2.2844                 2.6443                 1.5079

                     13                     14                     15
                      A                      A                      A
 Frequencies --    768.9879               850.1642               868.0500
 Red. masses --      4.0969                 2.8761                 2.7021
 Frc consts  --      1.4274                 1.2248                 1.1996
 IR Inten    --      5.7494                 1.6480                14.3137

                     16                     17                     18
                      A                      A                      A
 Frequencies --    897.2179               932.2906               943.3767
 Red. masses --      2.1411                 2.4977                 2.3627
 Frc consts  --      1.0155                 1.2791                 1.2389
 IR Inten    --      0.7754                20.3619                 5.8755

                     19                     20                     21
                      A                      A                      A
 Frequencies --    969.5477               988.4836              1011.8637
 Red. masses --      1.6129                 1.7180                 1.9859
 Frc consts  --      0.8933                 0.9890                 1.1980
 IR Inten    --      0.8968                11.7821                13.0682

                     22                     23                     24
                      A                      A                      A
 Frequencies --   1050.7948              1063.0582              1095.6520
 Red. masses --      2.0948                 4.3387                 1.2902
 Frc consts  --      1.3628                 2.8888                 0.9126
 IR Inten    --     11.9517                80.5277                 0.8357

                     25                     26                     27
                      A                      A                      A
 Frequencies --   1154.4777              1175.2301              1188.5647
 Red. masses --      1.4733                 1.6114                 1.6027
 Frc consts  --      1.1569                 1.3113                 1.3340
 IR Inten    --      5.9971                19.9283                 2.4145

                     28                     29                     30
                      A                      A                      A
 Frequencies --   1218.0566              1260.0407              1264.7437
 Red. masses --      1.9460                 1.8209                 2.2036
 Frc consts  --      1.7011                 1.7034                 2.0768
 IR Inten    --     12.6322                 7.8419                 1.2613

                     31                     32                     33
                      A                      A                      A
 Frequencies --   1294.1898              1304.7525              1345.5759
 Red. masses --      1.4189                 1.7300                 1.5727
 Frc consts  --      1.4002                 1.7352                 1.6777
 IR Inten    --      4.7368                 8.0578                15.8002

                     34                     35                     36
                      A                      A                      A
 Frequencies --   1388.5203              1415.8221              1435.1229
 Red. masses --      1.6561                 1.2642                 1.0956
 Frc consts  --      1.8813                 1.4931                 1.3295
 IR Inten    --      2.9014                 2.8439                 9.8349

                     37                     38                     39
                      A                      A                      A
 Frequencies --   1488.3823              1492.3037              1493.2891
 Red. masses --      1.0542                 1.0882                 1.0682
 Frc consts  --      1.3759                 1.4279                 1.4034
 IR Inten    --      4.0208                 4.1505                 6.7878

                     40                     41                     42
                      A                      A                      A
 Frequencies --   1526.2823              1854.1231              3004.7806
 Red. masses --      1.0886                12.6421                 1.0604
 Frc consts  --      1.4942                25.6063                 5.6411
 IR Inten    --      0.2008               201.6072                54.5601

                     43                     44                     45
                      A                      A                      A
 Frequencies --   3039.3771              3051.4919              3053.1078
 Red. masses --      1.0357                 1.0661                 1.1019
 Frc consts  --      5.6369                 5.8491                 6.0516
 IR Inten    --     23.9356                 4.6016                30.4485

                     46                     47                     48
                      A                      A                      A
 Frequencies --   3060.7970              3109.1470              3112.7649
 Red. masses --      1.0584                 1.1018                 1.1010
 Frc consts  --      5.8421                 6.2754                 6.2854
 IR Inten    --     17.1367                12.6089                10.5168

                     49                     50                     51
                      A                      A                      A
 Frequencies --   3114.5288              3116.4281              3125.2404
 Red. masses --      1.1007                 1.1068                 1.0905
 Frc consts  --      6.2910                 6.3331                 6.2754
 IR Inten    --      8.8516                22.2755                33.1271

 - Thermochemistry -
 -------------------
 Temperature   298.150 Kelvin.  Pressure   1.00000 Atm.
 Atom     1 has atomic number  6 and mass  12.00000

 Molecular mass:   126.06808 amu.
 Principal axes and moments of inertia in atomic units:
                           1         2         3
     Eigenvalues --   757.94546 955.112171250.67541
           X            0.97710   0.21245   0.01183
           Y           -0.21257   0.97710   0.00979
           Z           -0.00948  -0.01208   0.99988
 This molecule is an asymmetric top.
 Rotational symmetry number  1.
 Warning -- assumption of classical behavior for rotation
           may cause significant error
 Rotational temperatures (Kelvin)      0.11427     0.09068     0.06925
 Rotational constants (GHZ):           2.38110     1.88956     1.44301
 Zero-point vibrational energy     420884.4 (Joules/Mol)
                                  100.59378 (Kcal/Mol)
 Warning -- explicit consideration of  11 degrees of freedom as
           vibrations may cause significant error
 Vibrational temperatures:    165.63   249.11   320.91   381.79   426.79
          (Kelvin)            552.33   612.64   702.25   791.75   873.39
                              884.64  1002.06  1106.40  1223.20  1248.93
                             1290.89  1341.36  1357.31  1394.96  1422.21
                             1455.84  1511.86  1529.50  1576.40  1661.03
                             1690.89  1710.08  1752.51  1812.92  1819.68
                             1862.05  1877.25  1935.98  1997.77  2037.05
                             2064.82  2141.45  2147.09  2148.51  2195.98
                             2667.67  4323.20  4372.98  4390.41  4392.74
                             4403.80  4473.36  4478.57  4481.11  4483.84
                             4496.52

 Zero-point correction=                           0.160306 (Hartree/Particle)
 Thermal correction to Energy=                    0.168052
 Thermal correction to Enthalpy=                  0.168997
 Thermal correction to Gibbs Free Energy=         0.128396
 Sum of electronic and zero-point Energies=           -423.063592
 Sum of electronic and thermal Energies=              -423.055846
 Sum of electronic and thermal Enthalpies=            -423.054902
 Sum of electronic and thermal Free Energies=         -423.095502

                     E (Thermal)             CV                S
                      KCal/Mol        Cal/Mol-Kelvin    Cal/Mol-Kelvin
 Total                  105.455             30.746             85.452
 Electronic               0.000              0.000              0.000
 Translational            0.889              2.981             40.409
 Rotational               0.889              2.981             28.295
 Vibrational            103.677             24.784             16.748
 Vibration     1          0.608              1.937              3.181
 Vibration     2          0.627              1.876              2.401
 Vibration     3          0.649              1.806              1.934
 Vibration     4          0.671              1.737              1.626
 Vibration     5          0.690              1.680              1.436
 Vibration     6          0.753              1.505              1.024
 Vibration     7          0.788              1.414              0.872
 Vibration     8          0.844              1.276              0.689
 Vibration     9          0.906              1.139              0.544
 Vibration    10          0.966              1.017              0.438
 Vibration    11          0.974              1.000              0.425

 Normal termination of Gaussian 09 at Mon Jan 27 19:25:07 2020.
