 Gaussian 09, Revision D.01,
 Gaussian 09:  ES64L-G09RevD.01 24-Apr-2013

 -----------------------------
 # b3lyp 6-31G(2df,p) opt Freq
 -----------------------------

 -----
 titel
 -----
 Symbolic Z-matrix:
 Charge =  0 Multiplicity = 1

 SCF Done:  E(RB3LYP) =  -423.201481632     A.U. after   14 cycles
 Optimization completed.
    -- Stationary point found.
 Normal termination of Gaussian 09 at Mon Jan 27 22:01:12 2020.

 ----------------------------------------------------------------------
 #N Geom=AllCheck Guess=TCheck SCRF=Check GenChk RB3LYP/6-31G(2df,p) Fr
 eq
 ----------------------------------------------------------------------

 Structure from the checkpoint file:  "/scratch/puck/g09_a8a40c93-314e-4ea6-84b7-6c120adb1d0e/Gau-76334.chk"
 -----
 titel
 -----
 Charge =  0 Multiplicity = 1

                         Standard orientation:
 ---------------------------------------------------------------------
 Center     Atomic      Atomic             Coordinates (Angstroms)
 Number     Number       Type             X           Y           Z
 ---------------------------------------------------------------------
      1          8           0       -0.259624    1.845652   -0.991244
      2          6           0       -0.114715    0.770417   -0.071691
      3          6           0        1.201941    0.850351    0.738609
      4          6           0        1.716596   -0.593013    0.711378
      5          8           0        1.368380   -1.070525   -0.581053
      6          6           0        0.069328   -0.553825   -0.884537
      7          6           0       -1.046455   -1.447378   -0.408827
      8          6           0       -1.822264   -0.854217    0.495830
      9          6           0       -1.396304    0.561332    0.790236
     10          1           0       -0.341648    2.660758   -0.485115
     11          1           0        1.892807    1.497647    0.190561
     12          1           0        1.072625    1.245281    1.749922
     13          1           0        2.800934   -0.678239    0.819202
     14          1           0        1.242290   -1.197802    1.500629
     15          1           0        0.044371   -0.368898   -1.962606
     16          1           0       -1.161159   -2.459835   -0.778583
     17          1           0       -2.682309   -1.308874    0.977265
     18          1           0       -2.162419    1.282821    0.479429
     19          1           0       -1.224297    0.724127    1.861682
 ---------------------------------------------------------------------

 SCF Done:  E(RB3LYP) =  -423.201481632     A.U. after    1 cycles

 The electronic state is 1-A.
 Alpha  occ. eigenvalues --  -19.13752 -19.13020 -10.23805 -10.22320 -10.22250
 Alpha  occ. eigenvalues --  -10.18707 -10.18641 -10.18066 -10.17653  -1.03426
 Alpha  occ. eigenvalues --   -1.01478  -0.83020  -0.76423  -0.70639  -0.68815
 Alpha  occ. eigenvalues --   -0.60183  -0.57025  -0.54040  -0.51894  -0.48253
 Alpha  occ. eigenvalues --   -0.46418  -0.43954  -0.42941  -0.41488  -0.41028
 Alpha  occ. eigenvalues --   -0.38658  -0.36705  -0.35527  -0.34331  -0.32874
 Alpha  occ. eigenvalues --   -0.29738  -0.26727  -0.25398  -0.24467
 Alpha virt. eigenvalues --    0.01684   0.07575   0.09246   0.11287   0.12707
 Alpha virt. eigenvalues --    0.14103   0.14804   0.15845   0.16447   0.17101
 Alpha virt. eigenvalues --    0.17588   0.19342   0.20554   0.21315   0.21666

 Mulliken charges:
               1
     1  O   -0.481788
     2  C    0.371487
     3  C   -0.291267
     4  C   -0.088628
     5  O   -0.260702
     6  C    0.045362
     7  C   -0.090923
     8  C   -0.066230
     9  C   -0.324609
    10  H    0.276073
    11  H    0.112215
    12  H    0.092689
    13  H    0.110044
    14  H    0.092047
    15  H    0.096394
    16  H    0.099672
    17  H    0.097228
    18  H    0.110712
    19  H    0.100225
 Sum of Mulliken charges =   0.00000

 Dipole moment (field-independent basis, Debye):
    X=             -0.8533    Y=              1.2147    Z=              2.1830  Tot=              2.6399
 Quadrupole moment (field-independent basis, Debye-Ang):
   XX=            -52.5811   YY=            -50.2463   ZZ=            -54.2280
   XY=              1.8583   XZ=              0.9351   YZ=              2.0525

  Exact polarizability:  79.330   0.438  75.858  -3.826   4.238  68.786
 Approx polarizability: 111.880  -5.347 109.910 -11.814  10.091 111.969

                      1                      2                      3
                      A                      A                      A
 Frequencies --     64.1453               181.8800               277.4889
 Red. masses --      2.8874                 2.6409                 3.1971
 Frc consts  --      0.0070                 0.0515                 0.1450
 IR Inten    --      0.9125                 0.6295                 1.4314

                      4                      5                      6
                      A                      A                      A
 Frequencies --    283.1834               322.3512               398.3830
 Red. masses --      1.0722                 2.8381                 4.6259
 Frc consts  --      0.0507                 0.1738                 0.4326
 IR Inten    --     79.3704                 4.0439                22.0892

                      7                      8                      9
                      A                      A                      A
 Frequencies --    422.1385               489.1538               575.3060
 Red. masses --      2.2188                 2.8118                 2.9351
 Frc consts  --      0.2330                 0.3964                 0.5724
 IR Inten    --      2.2406                 6.1544                 2.3139

                     10                     11                     12
                      A                      A                      A
 Frequencies --    606.1590               643.2899               726.6860
 Red. masses --      4.8524                 3.0900                 1.6522
 Frc consts  --      1.0505                 0.7534                 0.5141
 IR Inten    --      3.7391                 8.4483                14.7826

                     13                     14                     15
                      A                      A                      A
 Frequencies --    771.2161               830.9998               885.0759
 Red. masses --      3.9931                 2.5720                 2.1925
 Frc consts  --      1.3993                 1.0465                 1.0119
 IR Inten    --      1.4827                10.5383                 6.0282

                     16                     17                     18
                      A                      A                      A
 Frequencies --    926.7324               948.2179               963.3934
 Red. masses --      1.8036                 2.4326                 2.9069
 Frc consts  --      0.9127                 1.2886                 1.5896
 IR Inten    --      5.3596                 4.6259                35.9298

                     19                     20                     21
                      A                      A                      A
 Frequencies --    972.3923               982.4455              1008.6714
 Red. masses --      1.9166                 1.3461                 1.9277
 Frc consts  --      1.0678                 0.7655                 1.1556
 IR Inten    --      8.6002                 2.5816                 7.9514

                     22                     23                     24
                      A                      A                      A
 Frequencies --   1017.7902              1048.7640              1090.9051
 Red. masses --      3.1430                 2.2133                 3.6631
 Frc consts  --      1.9183                 1.4343                 2.5685
 IR Inten    --     41.8080                44.8800                56.6365

                     25                     26                     27
                      A                      A                      A
 Frequencies --   1113.4669              1128.0121              1160.8101
 Red. masses --      2.2414                 1.2228                 2.2168
 Frc consts  --      1.6373                 0.9167                 1.7599
 IR Inten    --     23.6629                 6.7929                21.4499

                     28                     29                     30
                      A                      A                      A
 Frequencies --   1218.5640              1227.3571              1246.3716
 Red. masses --      1.4663                 1.4169                 1.3893
 Frc consts  --      1.2829                 1.2576                 1.2716
 IR Inten    --     11.8041                14.2023                21.5451

                     31                     32                     33
                      A                      A                      A
 Frequencies --   1278.7975              1298.7409              1311.8891
 Red. masses --      1.5396                 1.5577                 1.3524
 Frc consts  --      1.4834                 1.5481                 1.3714
 IR Inten    --      2.4968                19.4349                41.0303

                     34                     35                     36
                      A                      A                      A
 Frequencies --   1340.5467              1364.6015              1389.6315
 Red. masses --      1.2175                 1.6886                 1.3600
 Frc consts  --      1.2891                 1.8526                 1.5474
 IR Inten    --      4.7169                 3.2427                 6.6733

                     37                     38                     39
                      A                      A                      A
 Frequencies --   1393.5531              1471.9550              1485.9923
 Red. masses --      1.7416                 1.0953                 1.0979
 Frc consts  --      1.9927                 1.3983                 1.4283
 IR Inten    --      7.4926                 1.8694                 3.1514

                     40                     41                     42
                      A                      A                      A
 Frequencies --   1515.6395              1690.2285              2978.9949
 Red. masses --      1.0945                 6.3201                 1.0711
 Frc consts  --      1.4813                10.6382                 5.6006
 IR Inten    --      0.9808                 2.0738                54.1769

                     43                     44                     45
                      A                      A                      A
 Frequencies --   3018.2743              3050.0460              3055.5091
 Red. masses --      1.0590                 1.0995                 1.0623
 Frc consts  --      5.6840                 6.0263                 5.8434
 IR Inten    --     29.6248                15.5130                24.1520

                     46                     47                     48
                      A                      A                      A
 Frequencies --   3068.0138              3093.2686              3109.9841
 Red. masses --      1.0853                 1.0923                 1.1065
 Frc consts  --      6.0189                 6.1578                 6.3056
 IR Inten    --     22.4764                34.3679                25.5159

                     49                     50                     51
                      A                      A                      A
 Frequencies --   3176.9266              3208.3180              3808.4077
 Red. masses --      1.0861                 1.1024                 1.0662
 Frc consts  --      6.4585                 6.6858                 9.1113
 IR Inten    --     11.3685                18.1974                19.0676

 - Thermochemistry -
 -------------------
 Temperature   298.150 Kelvin.  Pressure   1.00000 Atm.
 Atom     1 has atomic number  8 and mass  15.99491

 Molecular mass:   126.06808 amu.
 Principal axes and moments of inertia in atomic units:
                           1         2         3
     Eigenvalues --   814.05475 930.685031238.35401
           X            0.99699   0.07651   0.01243
           Y           -0.07681   0.99672   0.02548
           Z           -0.01044  -0.02636   0.99960
 This molecule is an asymmetric top.
 Rotational symmetry number  1.
 Warning -- assumption of classical behavior for rotation
           may cause significant error
 Rotational temperatures (Kelvin)      0.10640     0.09306     0.06994
 Rotational constants (GHZ):           2.21698     1.93915     1.45737
 Zero-point vibrational energy     422525.0 (Joules/Mol)
                                  100.98591 (Kcal/Mol)
 Warning -- explicit consideration of  10 degrees of freedom as
           vibrations may cause significant error
 Vibrational temperatures:     92.29   261.68   399.24   407.44   463.79
          (Kelvin)            573.18   607.36   703.78   827.74   872.13
                              925.55  1045.54  1109.61  1195.62  1273.43
                             1333.36  1364.27  1386.11  1399.05  1413.52
                             1451.25  1464.37  1508.94  1569.57  1602.03
                             1622.96  1670.14  1753.24  1765.89  1793.25
                             1839.90  1868.60  1887.51  1928.75  1963.35
                             1999.37  2005.01  2117.81  2138.01  2180.66
                             2431.86  4286.10  4342.62  4388.33  4396.19
                             4414.18  4450.52  4474.57  4570.88  4616.05
                             5479.44

 Zero-point correction=                           0.160931 (Hartree/Particle)
 Thermal correction to Energy=                    0.168597
 Thermal correction to Enthalpy=                  0.169542
 Thermal correction to Gibbs Free Energy=         0.128785
 Sum of electronic and zero-point Energies=           -423.040550
 Sum of electronic and thermal Energies=              -423.032884
 Sum of electronic and thermal Enthalpies=            -423.031940
 Sum of electronic and thermal Free Energies=         -423.072697

                     E (Thermal)             CV                S
                      KCal/Mol        Cal/Mol-Kelvin    Cal/Mol-Kelvin
 Total                  105.796             30.632             85.780
 Electronic               0.000              0.000              0.000
 Translational            0.889              2.981             40.409
 Rotational               0.889              2.981             28.330
 Vibrational            104.019             24.671             17.041
 Vibration     1          0.597              1.971              4.325
 Vibration     2          0.630              1.864              2.309
 Vibration     3          0.678              1.715              1.549
 Vibration     4          0.682              1.705              1.514
 Vibration     5          0.707              1.631              1.298
 Vibration     6          0.765              1.474              0.969
 Vibration     7          0.784              1.422              0.885
 Vibration     8          0.845              1.274              0.686
 Vibration     9          0.932              1.085              0.494
 Vibration    10          0.965              1.019              0.439

 Normal termination of Gaussian 09 at Mon Jan 27 22:45:34 2020.
