 Gaussian 09, Revision D.01,
 Gaussian 09:  ES64L-G09RevD.01 24-Apr-2013

 -----------------------------
 # b3lyp 6-31G(2df,p) opt Freq
 -----------------------------

 -----
 titel
 -----
 Symbolic Z-matrix:
 Charge =  0 Multiplicity = 1

 SCF Done:  E(RB3LYP) =  -423.153781693     A.U. after   13 cycles
 Optimization completed.
    -- Stationary point found.
 Normal termination of Gaussian 09 at Mon Jan 27 22:04:24 2020.

 ----------------------------------------------------------------------
 #N Geom=AllCheck Guess=TCheck SCRF=Check GenChk RB3LYP/6-31G(2df,p) Fr
 eq
 ----------------------------------------------------------------------

 Structure from the checkpoint file:  "/scratch/puck/g09_2cf84ae4-32c0-4de6-af45-8be0c4c8e004/Gau-189505.chk"
 -----
 titel
 -----
 Charge =  0 Multiplicity = 1

                         Standard orientation:
 ---------------------------------------------------------------------
 Center     Atomic      Atomic             Coordinates (Angstroms)
 Number     Number       Type             X           Y           Z
 ---------------------------------------------------------------------
      1          6           0        0.996090    1.550746   -0.937747
      2          6           0        0.882771    0.987046    0.468672
      3          6           0        1.323181   -0.545326    0.597695
      4          8           0        2.210829   -1.108932   -0.322300
      5          6           0       -0.155762   -0.846530    0.494739
      6          6           0       -1.036883   -1.358754   -0.358685
      7          6           0       -2.204755   -0.386943   -0.448017
      8          8           0       -1.725546    0.840654    0.134134
      9          6           0       -0.569945    0.534960    0.894052
     10          1           0        0.575879    2.559054   -0.983007
     11          1           0        2.042922    1.598190   -1.252973
     12          1           0        0.444801    0.941517   -1.662126
     13          1           0        1.376044    1.640479    1.193549
     14          1           0        1.747215   -0.735509    1.587360
     15          1           0        1.807942   -1.043471   -1.195222
     16          1           0       -0.931365   -2.221376   -1.004669
     17          1           0       -2.494257   -0.194493   -1.489225
     18          1           0       -3.105244   -0.728792    0.087157
     19          1           0       -0.754381    0.719416    1.960229
 ---------------------------------------------------------------------

 SCF Done:  E(RB3LYP) =  -423.153781693     A.U. after    1 cycles

 The electronic state is 1-A.
 Alpha  occ. eigenvalues --  -19.14712 -19.13810 -10.24674 -10.23481 -10.22809
 Alpha  occ. eigenvalues --  -10.19479 -10.19035 -10.18694 -10.17896  -1.03678
 Alpha  occ. eigenvalues --   -1.02951  -0.84614  -0.77189  -0.71940  -0.67107
 Alpha  occ. eigenvalues --   -0.62083  -0.56986  -0.55496  -0.50790  -0.49036
 Alpha  occ. eigenvalues --   -0.45719  -0.45603  -0.43283  -0.41957  -0.40273
 Alpha  occ. eigenvalues --   -0.39274  -0.36994  -0.35771  -0.34192  -0.32903
 Alpha  occ. eigenvalues --   -0.30849  -0.27871  -0.25287  -0.23411
 Alpha virt. eigenvalues --   -0.00031   0.06996   0.10225   0.10749   0.11757
 Alpha virt. eigenvalues --    0.13736   0.15200   0.15914   0.16484   0.16810
 Alpha virt. eigenvalues --    0.17722   0.17978   0.18678   0.18971   0.21383

 Mulliken charges:
               1
     1  C   -0.401705
     2  C   -0.089113
     3  C    0.056535
     4  O   -0.417410
     5  C    0.166889
     6  C   -0.252220
     7  C   -0.104679
     8  O   -0.276294
     9  C    0.083894
    10  H    0.130128
    11  H    0.122634
    12  H    0.111451
    13  H    0.074598
    14  H    0.104779
    15  H    0.284260
    16  H    0.107757
    17  H    0.111800
    18  H    0.107092
    19  H    0.079604
 Sum of Mulliken charges =   0.00000

 Dipole moment (field-independent basis, Debye):
    X=             -0.2904    Y=             -0.3313    Z=             -0.6364  Tot=              0.7741
 Quadrupole moment (field-independent basis, Debye-Ang):
   XX=            -57.6928   YY=            -54.9462   ZZ=            -48.9018
   XY=              5.2875   XZ=              1.1327   YZ=              2.1815

  Exact polarizability:  88.033   6.870  72.302   7.263   5.732  71.124
 Approx polarizability: 126.483   9.045 107.849  16.882  13.176 113.836

                      1                      2                      3
                      A                      A                      A
 Frequencies --    110.2501               142.0986               188.9364
 Red. masses --      3.6158                 3.0639                 1.2854
 Frc consts  --      0.0259                 0.0365                 0.0270
 IR Inten    --      3.4487                 0.2279                 0.6882

                      4                      5                      6
                      A                      A                      A
 Frequencies --    222.4814               233.1496               272.5809
 Red. masses --      2.1957                 3.4974                 2.3556
 Frc consts  --      0.0640                 0.1120                 0.1031
 IR Inten    --      1.7159                 1.3075                 4.4609

                      7                      8                      9
                      A                      A                      A
 Frequencies --    364.7033               468.0975               495.9399
 Red. masses --      1.1558                 3.6782                 4.3003
 Frc consts  --      0.0906                 0.4749                 0.6232
 IR Inten    --     96.1885                 2.0432                 2.2169

                     10                     11                     12
                      A                      A                      A
 Frequencies --    547.1689               664.0683               712.1856
 Red. masses --      3.1337                 3.5908                 4.7789
 Frc consts  --      0.5528                 0.9330                 1.4281
 IR Inten    --      5.6901                 7.6975                 5.2571

                     13                     14                     15
                      A                      A                      A
 Frequencies --    780.3246               801.8639               806.7153
 Red. masses --      3.7569                 3.0793                 2.1605
 Frc consts  --      1.3478                 1.1665                 0.8284
 IR Inten    --      9.9712                10.7517                 2.6360

                     16                     17                     18
                      A                      A                      A
 Frequencies --    820.8885               907.0043               943.6381
 Red. masses --      1.8081                 2.8402                 2.2117
 Frc consts  --      0.7178                 1.3766                 1.1603
 IR Inten    --     13.0457                 7.8914                 9.7001

                     19                     20                     21
                      A                      A                      A
 Frequencies --    955.8908              1007.0842              1017.9041
 Red. masses --      2.9355                 2.6679                 1.7830
 Frc consts  --      1.5803                 1.5942                 1.0885
 IR Inten    --     30.4273                25.0839                24.4967

                     22                     23                     24
                      A                      A                      A
 Frequencies --   1036.5808              1078.2712              1112.8313
 Red. masses --      1.5731                 1.9513                 2.3081
 Frc consts  --      0.9959                 1.3367                 1.6841
 IR Inten    --      5.7398                 9.6800                19.8152

                     25                     26                     27
                      A                      A                      A
 Frequencies --   1133.7195              1153.8329              1158.8594
 Red. masses --      3.0170                 1.6094                 2.4711
 Frc consts  --      2.2848                 1.2624                 1.9552
 IR Inten    --     53.4411                26.5265               104.4681

                     28                     29                     30
                      A                      A                      A
 Frequencies --   1195.7321              1238.9039              1246.5128
 Red. masses --      1.0977                 1.5091                 1.5085
 Frc consts  --      0.9247                 1.3647                 1.3810
 IR Inten    --      1.8674                 0.9461                 8.5246

                     31                     32                     33
                      A                      A                      A
 Frequencies --   1279.6735              1295.1787              1338.9439
 Red. masses --      1.4847                 1.6284                 1.4859
 Frc consts  --      1.4325                 1.6094                 1.5695
 IR Inten    --      0.8795                 3.5955                 2.3864

                     34                     35                     36
                      A                      A                      A
 Frequencies --   1353.3997              1376.4550              1409.1511
 Red. masses --      1.3820                 1.3687                 1.2877
 Frc consts  --      1.4914                 1.5279                 1.5066
 IR Inten    --      4.1492                23.0899                 9.3956

                     37                     38                     39
                      A                      A                      A
 Frequencies --   1437.6102              1492.1639              1498.1659
 Red. masses --      1.2619                 1.0460                 1.0471
 Frc consts  --      1.5366                 1.3721                 1.3847
 IR Inten    --     61.8823                 5.3060                 2.7388

                     40                     41                     42
                      A                      A                      A
 Frequencies --   1516.2450              1714.2320              2973.8404
 Red. masses --      1.0882                 8.3479                 1.0690
 Frc consts  --      1.4740                14.4534                 5.5701
 IR Inten    --      0.9210                 1.2522                88.9711

                     43                     44                     45
                      A                      A                      A
 Frequencies --   3015.2101              3032.4438              3036.8629
 Red. masses --      1.0843                 1.0928                 1.0358
 Frc consts  --      5.8080                 5.9205                 5.6283
 IR Inten    --     47.7439                33.8789                19.0293

                     46                     47                     48
                      A                      A                      A
 Frequencies --   3063.1002              3079.2964              3103.0232
 Red. masses --      1.0861                 1.0859                 1.0996
 Frc consts  --      6.0042                 6.0666                 6.2384
 IR Inten    --     15.2007                48.3476                37.6040

                     49                     50                     51
                      A                      A                      A
 Frequencies --   3116.0742              3211.5842              3804.2366
 Red. masses --      1.1013                 1.0953                 1.0654
 Frc consts  --      6.3007                 6.6562                 9.0847
 IR Inten    --     13.8191                 5.0005                10.8755

 - Thermochemistry -
 -------------------
 Temperature   298.150 Kelvin.  Pressure   1.00000 Atm.
 Atom     1 has atomic number  6 and mass  12.00000

 Molecular mass:   126.06808 amu.
 Principal axes and moments of inertia in atomic units:
                           1         2         3
     Eigenvalues --   659.732081171.944631447.95263
           X            0.99824   0.05900   0.00563
           Y           -0.05899   0.99826  -0.00232
           Z           -0.00576   0.00198   0.99998
 This molecule is an asymmetric top.
 Rotational symmetry number  1.
 Warning -- assumption of classical behavior for rotation
           may cause significant error
 Rotational temperatures (Kelvin)      0.13129     0.07391     0.05982
 Rotational constants (GHZ):           2.73557     1.53995     1.24641
 Zero-point vibrational energy     418484.3 (Joules/Mol)
                                  100.02014 (Kcal/Mol)
 Warning -- explicit consideration of  10 degrees of freedom as
           vibrations may cause significant error
 Vibrational temperatures:    158.63   204.45   271.84   320.10   335.45
          (Kelvin)            392.18   524.73   673.49   713.55   787.25
                              955.45  1024.68  1122.71  1153.70  1160.68
                             1181.07  1304.98  1357.68  1375.31  1448.97
                             1464.54  1491.41  1551.39  1601.11  1631.17
                             1660.11  1667.34  1720.39  1782.50  1793.45
                             1841.16  1863.47  1926.44  1947.24  1980.41
                             2027.45  2068.40  2146.89  2155.52  2181.54
                             2466.39  4278.69  4338.21  4363.00  4369.36
                             4407.11  4430.42  4464.55  4483.33  4620.75
                             5473.44

 Zero-point correction=                           0.159392 (Hartree/Particle)
 Thermal correction to Energy=                    0.167710
 Thermal correction to Enthalpy=                  0.168654
 Thermal correction to Gibbs Free Energy=         0.126698
 Sum of electronic and zero-point Energies=           -422.994389
 Sum of electronic and thermal Energies=              -422.986071
 Sum of electronic and thermal Enthalpies=            -422.985127
 Sum of electronic and thermal Free Energies=         -423.027084

                     E (Thermal)             CV                S
                      KCal/Mol        Cal/Mol-Kelvin    Cal/Mol-Kelvin
 Total                  105.240             31.970             88.306
 Electronic               0.000              0.000              0.000
 Translational            0.889              2.981             40.409
 Rotational               0.889              2.981             28.506
 Vibrational            103.462             26.009             19.391
 Vibration     1          0.606              1.941              3.265
 Vibration     2          0.616              1.911              2.775
 Vibration     3          0.633              1.855              2.238
 Vibration     4          0.648              1.807              1.939
 Vibration     5          0.654              1.790              1.855
 Vibration     6          0.676              1.724              1.580
 Vibration     7          0.738              1.545              1.102
 Vibration     8          0.825              1.321              0.743
 Vibration     9          0.852              1.259              0.668
 Vibration    10          0.902              1.146              0.550

 Normal termination of Gaussian 09 at Mon Jan 27 22:50:02 2020.
