 Gaussian 09, Revision D.01,
 Gaussian 09:  ES64L-G09RevD.01 24-Apr-2013

 -----------------------------
 # b3lyp 6-31G(2df,p) opt Freq
 -----------------------------

 -----
 titel
 -----
 Symbolic Z-matrix:
 Charge =  0 Multiplicity = 1

 SCF Done:  E(RB3LYP) =  -423.208094655     A.U. after   14 cycles
 Optimization completed.
    -- Stationary point found.
 Normal termination of Gaussian 09 at Mon Jan 27 16:14:32 2020.

 ----------------------------------------------------------------------
 #N Geom=AllCheck Guess=TCheck SCRF=Check GenChk RB3LYP/6-31G(2df,p) Fr
 eq
 ----------------------------------------------------------------------

 Structure from the checkpoint file:  "/scratch/puck/g09_5f4bba27-a9af-460d-8f9f-0e36fbba2958/Gau-10827.chk"
 -----
 titel
 -----
 Charge =  0 Multiplicity = 1

                         Standard orientation:
 ---------------------------------------------------------------------
 Center     Atomic      Atomic             Coordinates (Angstroms)
 Number     Number       Type             X           Y           Z
 ---------------------------------------------------------------------
      1          6           0        0.878282    1.769773    0.235076
      2          6           0        0.940927    0.264410   -0.026756
      3          6           0        2.376596   -0.116518   -0.397179
      4          6           0        0.227084   -0.678908    0.998670
      5          6           0        0.008817   -1.706863   -0.130503
      6          6           0       -0.182983   -0.382903   -0.950137
      7          6           0       -1.416523    0.132972   -0.224325
      8          8           0       -2.437947    0.622199   -0.599650
      9          8           0       -1.103976   -0.086703    1.102079
     10          1           0        1.132355    2.323564   -0.675086
     11          1           0       -0.104461    2.102511    0.571858
     12          1           0        1.608090    2.050150    1.002518
     13          1           0        2.705848    0.473653   -1.258877
     14          1           0        3.051688    0.118786    0.433226
     15          1           0        2.515147   -1.169107   -0.647271
     16          1           0        0.599294   -0.907399    1.995874
     17          1           0        0.884326   -2.285509   -0.414067
     18          1           0       -0.860141   -2.358264   -0.020915
     19          1           0       -0.189974   -0.324140   -2.035774
 ---------------------------------------------------------------------

 SCF Done:  E(RB3LYP) =  -423.208094655     A.U. after    1 cycles

 The electronic state is 1-A.
 Alpha  occ. eigenvalues --  -19.17262 -19.12472 -10.29947 -10.25643 -10.22234
 Alpha  occ. eigenvalues --  -10.21442 -10.20710 -10.19261 -10.18249  -1.09914
 Alpha  occ. eigenvalues --   -1.02364  -0.86721  -0.76637  -0.70985  -0.69442
 Alpha  occ. eigenvalues --   -0.63963  -0.57426  -0.54475  -0.50379  -0.48999
 Alpha  occ. eigenvalues --   -0.47389  -0.45007  -0.43177  -0.40872  -0.40596
 Alpha  occ. eigenvalues --   -0.39626  -0.38187  -0.37500  -0.36899  -0.35297
 Alpha  occ. eigenvalues --   -0.33311  -0.32167  -0.28191  -0.25926
 Alpha virt. eigenvalues --    0.01456   0.07753   0.09650   0.10912   0.10939
 Alpha virt. eigenvalues --    0.12698   0.13714   0.14216   0.14952   0.15883
 Alpha virt. eigenvalues --    0.17147   0.18847   0.19351   0.20533   0.21395

 Mulliken charges:
               1
     1  C   -0.468487
     2  C    0.316646
     3  C   -0.466458
     4  C    0.062202
     5  C   -0.260554
     6  C   -0.220974
     7  C    0.450648
     8  O   -0.355531
     9  O   -0.247435
    10  H    0.123046
    11  H    0.150272
    12  H    0.118016
    13  H    0.127581
    14  H    0.124539
    15  H    0.120490
    16  H    0.092040
    17  H    0.118468
    18  H    0.122288
    19  H    0.093204
 Sum of Mulliken charges =   0.00000

 Dipole moment (field-independent basis, Debye):
    X=              4.1418    Y=             -1.4956    Z=             -0.1153  Tot=              4.4051
 Quadrupole moment (field-independent basis, Debye-Ang):
   XX=            -61.1745   YY=            -51.3913   ZZ=            -53.0176
   XY=              2.8067   XZ=             -0.1899   YZ=              0.2567

  Exact polarizability:  83.654  -1.283  73.506   2.987  -0.943  66.896
 Approx polarizability: 121.628  -7.018 105.474   7.477  -3.706 108.196

                      1                      2                      3
                      A                      A                      A
 Frequencies --    152.5623               155.8916               192.9931
 Red. masses --      4.5902                 1.0508                 2.6907
 Frc consts  --      0.0629                 0.0150                 0.0590
 IR Inten    --      1.7566                 0.1597                 0.8118

                      4                      5                      6
                      A                      A                      A
 Frequencies --    209.9777               321.7211               365.8964
 Red. masses --      1.0957                 3.7956                 2.6843
 Frc consts  --      0.0285                 0.2315                 0.2117
 IR Inten    --      0.1206                 1.5079                 0.8289

                      7                      8                      9
                      A                      A                      A
 Frequencies --    396.9429               469.3053               507.0128
 Red. masses --      2.5101                 3.4552                 2.6235
 Frc consts  --      0.2330                 0.4484                 0.3973
 IR Inten    --      0.2321                 3.3926                 0.8071

                     10                     11                     12
                      A                      A                      A
 Frequencies --    531.5629               631.6705               663.9780
 Red. masses --      4.1483                 3.5958                 4.6118
 Frc consts  --      0.6906                 0.8453                 1.1979
 IR Inten    --      1.7301                 1.3714                 2.2609

                     13                     14                     15
                      A                      A                      A
 Frequencies --    762.8479               796.9961               852.8187
 Red. masses --      5.1180                 3.4055                 3.0989
 Frc consts  --      1.7548                 1.2745                 1.3279
 IR Inten    --      1.8859                 6.3336                 7.5654

                     16                     17                     18
                      A                      A                      A
 Frequencies --    864.9766               887.1925               928.6005
 Red. masses --      2.9802                 2.1370                 2.9099
 Frc consts  --      1.3137                 0.9911                 1.4784
 IR Inten    --     20.5188                 8.5446                44.6546

                     19                     20                     21
                      A                      A                      A
 Frequencies --    963.3846               967.1240              1008.8616
 Red. masses --      1.5457                 2.0864                 2.8676
 Frc consts  --      0.8452                 1.1497                 1.7196
 IR Inten    --      4.8932                18.5950                 9.2996

                     22                     23                     24
                      A                      A                      A
 Frequencies --   1013.9908              1023.4294              1079.7623
 Red. masses --      1.4047                 1.5587                 1.6591
 Frc consts  --      0.8509                 0.9619                 1.1397
 IR Inten    --     10.1530                18.1751                16.4869

                     25                     26                     27
                      A                      A                      A
 Frequencies --   1114.7633              1132.4015              1181.5923
 Red. masses --      1.5601                 1.9312                 1.7626
 Frc consts  --      1.1423                 1.4591                 1.4499
 IR Inten    --     12.5940                20.5451                 2.4408

                     28                     29                     30
                      A                      A                      A
 Frequencies --   1192.8197              1218.1949              1239.2137
 Red. masses --      1.7751                 1.7120                 2.2014
 Frc consts  --      1.4880                 1.4968                 1.9918
 IR Inten    --      1.7570                 5.8051                11.4095

                     31                     32                     33
                      A                      A                      A
 Frequencies --   1269.5466              1289.0449              1329.6846
 Red. masses --      2.2663                 2.2067                 1.7380
 Frc consts  --      2.1521                 2.1604                 1.8105
 IR Inten    --      6.2611                13.2498                24.5536

                     34                     35                     36
                      A                      A                      A
 Frequencies --   1408.7742              1427.6193              1480.6377
 Red. masses --      1.2450                 1.2069                 1.0521
 Frc consts  --      1.4558                 1.4493                 1.3589
 IR Inten    --      5.2617                 3.8210                 1.0292

                     37                     38                     39
                      A                      A                      A
 Frequencies --   1484.9934              1498.8533              1510.6136
 Red. masses --      1.0582                 1.0743                 1.0586
 Frc consts  --      1.3748                 1.4220                 1.4233
 IR Inten    --      1.6199                 2.1005                11.9038

                     40                     41                     42
                      A                      A                      A
 Frequencies --   1518.5002              1910.6936              3035.2842
 Red. masses --      1.0768                12.6109                 1.0391
 Frc consts  --      1.4629                27.1256                 5.6402
 IR Inten    --      3.1996               397.2015                 9.7167

                     43                     44                     45
                      A                      A                      A
 Frequencies --   3040.9994              3092.1045              3092.3578
 Red. masses --      1.0392                 1.0688                 1.0940
 Frc consts  --      5.6621                 6.0206                 6.1637
 IR Inten    --     35.1163                13.2379                 2.4859

                     46                     47                     48
                      A                      A                      A
 Frequencies --   3097.8240              3130.5320              3138.8766
 Red. masses --      1.1000                 1.0987                 1.0978
 Frc consts  --      6.2196                 6.3441                 6.3725
 IR Inten    --     32.6859                26.5658                10.5500

                     49                     50                     51
                      A                      A                      A
 Frequencies --   3139.9448              3155.8587              3170.6649
 Red. masses --      1.0923                 1.0920                 1.1022
 Frc consts  --      6.3452                 6.4078                 6.5285
 IR Inten    --     31.0979                12.2804                19.3050

 - Thermochemistry -
 -------------------
 Temperature   298.150 Kelvin.  Pressure   1.00000 Atm.
 Atom     1 has atomic number  6 and mass  12.00000

 Molecular mass:   126.06808 amu.
 Principal axes and moments of inertia in atomic units:
                           1         2         3
     Eigenvalues --   637.476181139.430691322.33205
           X            0.99957   0.02817  -0.00854
           Y           -0.02787   0.99906   0.03306
           Z            0.00947  -0.03280   0.99942
 This molecule is an asymmetric top.
 Rotational symmetry number  1.
 Warning -- assumption of classical behavior for rotation
           may cause significant error
 Rotational temperatures (Kelvin)      0.13587     0.07601     0.06550
 Rotational constants (GHZ):           2.83107     1.58390     1.36482
 Zero-point vibrational energy     419003.4 (Joules/Mol)
                                  100.14421 (Kcal/Mol)
 Warning -- explicit consideration of  10 degrees of freedom as
           vibrations may cause significant error
 Vibrational temperatures:    219.50   224.29   277.67   302.11   462.88
          (Kelvin)            526.44   571.11   675.22   729.48   764.80
                              908.83   955.32  1097.57  1146.70  1227.01
                             1244.51  1276.47  1336.05  1386.09  1391.47
                             1451.53  1458.90  1472.48  1553.54  1603.89
                             1629.27  1700.05  1716.20  1752.71  1782.95
                             1826.59  1854.65  1913.12  2026.91  2054.02
                             2130.30  2136.57  2156.51  2173.43  2184.78
                             2749.06  4367.09  4375.31  4448.84  4449.21
                             4457.07  4504.13  4516.14  4517.67  4540.57
                             4561.87

 Zero-point correction=                           0.159590 (Hartree/Particle)
 Thermal correction to Energy=                    0.167602
 Thermal correction to Enthalpy=                  0.168546
 Thermal correction to Gibbs Free Energy=         0.127504
 Sum of electronic and zero-point Energies=           -423.048505
 Sum of electronic and thermal Energies=              -423.040493
 Sum of electronic and thermal Enthalpies=            -423.039549
 Sum of electronic and thermal Free Energies=         -423.080590

                     E (Thermal)             CV                S
                      KCal/Mol        Cal/Mol-Kelvin    Cal/Mol-Kelvin
 Total                  105.172             31.729             86.379
 Electronic               0.000              0.000              0.000
 Translational            0.889              2.981             40.409
 Rotational               0.889              2.981             28.354
 Vibrational            103.394             25.767             17.617
 Vibration     1          0.619              1.900              2.640
 Vibration     2          0.620              1.896              2.599
 Vibration     3          0.635              1.850              2.199
 Vibration     4          0.642              1.826              2.044
 Vibration     5          0.707              1.632              1.301
 Vibration     6          0.739              1.542              1.097
 Vibration     7          0.763              1.477              0.974
 Vibration     8          0.826              1.318              0.740
 Vibration     9          0.862              1.234              0.641
 Vibration    10          0.887              1.180              0.584

 Optimization completed.
    -- Stationary point found.
 Normal termination of Gaussian 09 at Mon Jan 27 18:22:59 2020.
