 Gaussian 09, Revision D.01,
 Gaussian 09:  ES64L-G09RevD.01 24-Apr-2013

 -----------------------------
 # b3lyp 6-31G(2df,p) opt Freq
 -----------------------------

 -----
 titel
 -----
 Symbolic Z-matrix:
 Charge =  0 Multiplicity = 1

 SCF Done:  E(RB3LYP) =  -423.148239381     A.U. after   14 cycles
 Optimization completed.
    -- Stationary point found.
 Normal termination of Gaussian 09 at Tue Jan 28 03:59:34 2020.

 ----------------------------------------------------------------------
 #N Geom=AllCheck Guess=TCheck SCRF=Check GenChk RB3LYP/6-31G(2df,p) Fr
 eq
 ----------------------------------------------------------------------

 Structure from the checkpoint file:  "/scratch/puck/g09_0a76a86a-cd52-4942-b5db-bf6e11cc950a/Gau-92456.chk"
 -----
 titel
 -----
 Charge =  0 Multiplicity = 1

                         Standard orientation:
 ---------------------------------------------------------------------
 Center     Atomic      Atomic             Coordinates (Angstroms)
 Number     Number       Type             X           Y           Z
 ---------------------------------------------------------------------
      1          6           0        3.104160   -0.059858    0.005214
      2          6           0        1.633624   -0.020681   -0.374504
      3          6           0        0.923146    1.239387    0.119211
      4          8           0       -0.466855    1.195735   -0.169138
      5          6           0       -1.078376    0.046595    0.413102
      6          6           0       -0.372027   -1.224104   -0.092210
      7          8           0        1.008688   -1.167279    0.202096
      8          6           0       -2.496677    0.038309    0.081705
      9          6           0       -3.664707   -0.022474   -0.191115
     10          1           0        3.643850    0.775505   -0.451067
     11          1           0        3.222064   -0.001316    1.091607
     12          1           0        3.556461   -0.993998   -0.337073
     13          1           0        1.521420   -0.068605   -1.471120
     14          1           0        1.086478    1.344528    1.205160
     15          1           0        1.311283    2.130936   -0.381779
     16          1           0       -0.955116    0.087544    1.509425
     17          1           0       -0.773026   -2.110186    0.406718
     18          1           0       -0.543609   -1.313854   -1.176037
     19          1           0       -4.699326   -0.061242   -0.427927
 ---------------------------------------------------------------------

 SCF Done:  E(RB3LYP) =  -423.148239381     A.U. after    1 cycles

 The electronic state is 1-A.
 Alpha  occ. eigenvalues --  -19.14805 -19.14571 -10.25713 -10.23603 -10.23345
 Alpha  occ. eigenvalues --  -10.23035 -10.18579 -10.18156 -10.18119  -1.05942
 Alpha  occ. eigenvalues --   -1.02147  -0.81066  -0.76293  -0.71404  -0.68573
 Alpha  occ. eigenvalues --   -0.64252  -0.58362  -0.54350  -0.50237  -0.49678
 Alpha  occ. eigenvalues --   -0.49383  -0.46940  -0.45398  -0.41600  -0.39925
 Alpha  occ. eigenvalues --   -0.39262  -0.37075  -0.36468  -0.35430  -0.30811
 Alpha  occ. eigenvalues --   -0.29025  -0.28035  -0.27401  -0.23770
 Alpha virt. eigenvalues --    0.03170   0.04913   0.09400   0.10609   0.11600
 Alpha virt. eigenvalues --    0.12420   0.12929   0.15626   0.15872   0.16481
 Alpha virt. eigenvalues --    0.17473   0.17931   0.18518   0.20073   0.21721

 Mulliken charges:
               1
     1  C   -0.408976
     2  C    0.126383
     3  C   -0.076558
     4  O   -0.266286
     5  C   -0.066867
     6  C   -0.093644
     7  O   -0.264698
     8  C    0.293621
     9  C   -0.415466
    10  H    0.118649
    11  H    0.126216
    12  H    0.130722
    13  H    0.073333
    14  H    0.091206
    15  H    0.111185
    16  H    0.099650
    17  H    0.118338
    18  H    0.103625
    19  H    0.199566
 Sum of Mulliken charges =   0.00000

 Dipole moment (field-independent basis, Debye):
    X=              0.5693    Y=             -0.1072    Z=             -0.0107  Tot=              0.5795
 Quadrupole moment (field-independent basis, Debye-Ang):
   XX=            -46.5700   YY=            -55.5343   ZZ=            -52.9491
   XY=              4.5316   XZ=             -0.3885   YZ=              0.9750

  Exact polarizability: 111.101   5.235  64.868   3.347   0.462  60.912
 Approx polarizability: 145.684   5.894  94.633   9.813  -1.959  95.545

                      1                      2                      3
                      A                      A                      A
 Frequencies --     84.4043               137.3313               201.4890
 Red. masses --      3.6422                 3.9291                 1.8657
 Frc consts  --      0.0153                 0.0437                 0.0446
 IR Inten    --      0.4809                 0.7128                 0.1436

                      4                      5                      6
                      A                      A                      A
 Frequencies --    209.8379               261.9242               297.5430
 Red. masses --      1.4220                 2.3727                 2.7234
 Frc consts  --      0.0369                 0.0959                 0.1421
 IR Inten    --      0.8259                10.1814                 0.2432

                      7                      8                      9
                      A                      A                      A
 Frequencies --    334.4965               392.3186               453.4743
 Red. masses --      3.4191                 5.1063                 6.0569
 Frc consts  --      0.2254                 0.4631                 0.7339
 IR Inten    --      0.9936                 0.1312                 1.2959

                     10                     11                     12
                      A                      A                      A
 Frequencies --    483.6478               528.6184               548.0824
 Red. masses --      2.2250                 5.4756                 3.5677
 Frc consts  --      0.3066                 0.9015                 0.6314
 IR Inten    --      3.0699                 6.1366                 2.4195

                     13                     14                     15
                      A                      A                      A
 Frequencies --    617.7471               630.7777               677.9823
 Red. masses --      3.3266                 1.2512                 1.2627
 Frc consts  --      0.7479                 0.2933                 0.3420
 IR Inten    --      4.8277                48.8338                33.6435

                     16                     17                     18
                      A                      A                      A
 Frequencies --    817.2260               877.5146               908.0763
 Red. masses --      2.7156                 2.4539                 1.8037
 Frc consts  --      1.0686                 1.1133                 0.8763
 IR Inten    --      2.6953                34.0574                 4.9304

                     19                     20                     21
                      A                      A                      A
 Frequencies --    947.4960              1021.3112              1041.4914
 Red. masses --      1.6256                 2.7912                 3.3532
 Frc consts  --      0.8599                 1.7154                 2.1430
 IR Inten    --     10.6490                 3.7521                 8.2513

                     22                     23                     24
                      A                      A                      A
 Frequencies --   1063.0873              1111.0790              1127.1510
 Red. masses --      4.2829                 2.2901                 5.3888
 Frc consts  --      2.8518                 1.6657                 4.0337
 IR Inten    --      2.4192                17.1282               143.3536

                     25                     26                     27
                      A                      A                      A
 Frequencies --   1140.9020              1161.1013              1166.0710
 Red. masses --      3.8653                 2.3857                 2.0084
 Frc consts  --      2.9643                 1.8950                 1.6090
 IR Inten    --    134.9007                18.5008                24.7397

                     28                     29                     30
                      A                      A                      A
 Frequencies --   1268.8742              1287.9792              1311.6932
 Red. masses --      1.1726                 1.2529                 1.2496
 Frc consts  --      1.1123                 1.2246                 1.2667
 IR Inten    --      0.6266                26.1971                 7.8535

                     31                     32                     33
                      A                      A                      A
 Frequencies --   1340.7344              1366.9881              1379.8443
 Red. masses --      1.3216                 1.2188                 1.2445
 Frc consts  --      1.3997                 1.3419                 1.3960
 IR Inten    --     10.8281                50.3911                 0.7559

                     34                     35                     36
                      A                      A                      A
 Frequencies --   1408.5720              1414.5443              1417.8082
 Red. masses --      1.3383                 1.2972                 1.4930
 Frc consts  --      1.5644                 1.5293                 1.7683
 IR Inten    --      2.9411                13.3694                 1.6105

                     37                     38                     39
                      A                      A                      A
 Frequencies --   1479.9010              1484.1751              1486.9913
 Red. masses --      1.0820                 1.0897                 1.0717
 Frc consts  --      1.3962                 1.4142                 1.3962
 IR Inten    --      0.4504                 5.3228                 3.8397

                     40                     41                     42
                      A                      A                      A
 Frequencies --   1501.3868              2245.3074              2952.9958
 Red. masses --      1.0588                 5.9077                 1.0794
 Frc consts  --      1.4062                17.5476                 5.5457
 IR Inten    --      2.9013                 1.3070                22.4143

                     43                     44                     45
                      A                      A                      A
 Frequencies --   2959.2722              2973.1235              2993.9649
 Red. masses --      1.0775                 1.0738                 1.0679
 Frc consts  --      5.5596                 5.5924                 5.6397
 IR Inten    --      7.1859                71.9418                54.1452

                     46                     47                     48
                      A                      A                      A
 Frequencies --   3044.0122              3090.2928              3101.0287
 Red. masses --      1.0352                 1.0939                 1.0965
 Frc consts  --      5.6518                 6.1551                 6.2128
 IR Inten    --     16.9130                25.3253                24.1579

                     49                     50                     51
                      A                      A                      A
 Frequencies --   3116.9659              3125.1836              3504.0391
 Red. masses --      1.1016                 1.1017                 1.1635
 Frc consts  --      6.3059                 6.3398                 8.4170
 IR Inten    --     26.9867                16.2483                67.6823

 - Thermochemistry -
 -------------------
 Temperature   298.150 Kelvin.  Pressure   1.00000 Atm.
 Atom     1 has atomic number  6 and mass  12.00000

 Molecular mass:   126.06808 amu.
 Principal axes and moments of inertia in atomic units:
                           1         2         3
     Eigenvalues --   393.950671820.366222107.54408
           X            0.99989   0.01481   0.00055
           Y           -0.01482   0.99966   0.02142
           Z           -0.00023  -0.02143   0.99977
 This molecule is an asymmetric top.
 Rotational symmetry number  1.
 Rotational temperatures (Kelvin)      0.21986     0.04758     0.04110
 Rotational constants (GHZ):           4.58113     0.99142     0.85632
 Zero-point vibrational energy     415689.5 (Joules/Mol)
                                   99.35218 (Kcal/Mol)
 Warning -- explicit consideration of  13 degrees of freedom as
           vibrations may cause significant error
 Vibrational temperatures:    121.44   197.59   289.90   301.91   376.85
          (Kelvin)            428.10   481.27   564.46   652.45   695.86
                              760.56   788.57   888.80   907.55   975.46
                             1175.80  1262.55  1306.52  1363.23  1469.44
                             1498.47  1529.54  1598.59  1621.72  1641.50
                             1670.56  1677.71  1825.62  1853.11  1887.23
                             1929.02  1966.79  1985.29  2026.62  2035.21
                             2039.91  2129.24  2135.39  2139.45  2160.16
                             3230.49  4248.70  4257.73  4277.66  4307.64
                             4379.65  4446.24  4461.68  4484.61  4496.44
                             5041.52

 Zero-point correction=                           0.158328 (Hartree/Particle)
 Thermal correction to Energy=                    0.167125
 Thermal correction to Enthalpy=                  0.168069
 Thermal correction to Gibbs Free Energy=         0.125099
 Sum of electronic and zero-point Energies=           -422.989912
 Sum of electronic and thermal Energies=              -422.981114
 Sum of electronic and thermal Enthalpies=            -422.980170
 Sum of electronic and thermal Free Energies=         -423.023140

                     E (Thermal)             CV                S
                      KCal/Mol        Cal/Mol-Kelvin    Cal/Mol-Kelvin
 Total                  104.873             33.580             90.439
 Electronic               0.000              0.000              0.000
 Translational            0.889              2.981             40.409
 Rotational               0.889              2.981             28.804
 Vibrational            103.095             27.618             21.226
 Vibration     1          0.601              1.960              3.786
 Vibration     2          0.614              1.916              2.841
 Vibration     3          0.638              1.838              2.119
 Vibration     4          0.642              1.826              2.045
 Vibration     5          0.669              1.743              1.649
 Vibration     6          0.691              1.678              1.431
 Vibration     7          0.716              1.607              1.238
 Vibration     8          0.760              1.487              0.991
 Vibration     9          0.812              1.353              0.785
 Vibration    10          0.840              1.286              0.700
 Vibration    11          0.884              1.187              0.590
 Vibration    12          0.903              1.144              0.548
 Vibration    13          0.978              0.994              0.420

 Optimization completed.
    -- Stationary point found.
 Normal termination of Gaussian 09 at Tue Jan 28 04:46:07 2020.
