 Gaussian 09, Revision D.01,
 Gaussian 09:  ES64L-G09RevD.01 24-Apr-2013

 -----------------------------
 # b3lyp 6-31G(2df,p) opt Freq
 -----------------------------

 -----
 titel
 -----
 Symbolic Z-matrix:
 Charge =  0 Multiplicity = 1

 SCF Done:  E(RB3LYP) =  -423.161581387     A.U. after   13 cycles
 Optimization completed.
    -- Stationary point found.
 Normal termination of Gaussian 09 at Mon Jan 27 18:08:49 2020.

 ----------------------------------------------------------------------
 #N Geom=AllCheck Guess=TCheck SCRF=Check GenChk RB3LYP/6-31G(2df,p) Fr
 eq
 ----------------------------------------------------------------------

 Structure from the checkpoint file:  "/scratch/puck/g09_64e5745b-5e94-4416-b22e-813f77d493b9/Gau-89199.chk"
 -----
 titel
 -----
 Charge =  0 Multiplicity = 1

                         Standard orientation:
 ---------------------------------------------------------------------
 Center     Atomic      Atomic             Coordinates (Angstroms)
 Number     Number       Type             X           Y           Z
 ---------------------------------------------------------------------
      1          8           0        2.275762   -0.351423   -0.514951
      2          6           0        0.992020   -0.081186   -0.002918
      3          6           0        0.395726   -1.169975    0.949360
      4          6           0       -0.803024   -1.387417   -0.016545
      5          6           0       -1.994956   -0.424301    0.202277
      6          6           0       -1.224669    0.693263   -0.557220
      7          8           0       -0.604924    1.637842    0.318407
      8          6           0        0.787233    1.376225    0.423866
      9          6           0       -0.159912   -0.346148   -1.001155
     10          1           0        2.901656   -0.331345    0.217549
     11          1           0        1.058134   -2.038728    0.981188
     12          1           0        0.155777   -0.859796    1.971070
     13          1           0       -1.027478   -2.418400   -0.287656
     14          1           0       -2.879423   -0.748828   -0.353967
     15          1           0       -2.283313   -0.186210    1.229662
     16          1           0       -1.783521    1.231798   -1.327307
     17          1           0        1.368747    2.025393   -0.248836
     18          1           0        1.097342    1.576732    1.457070
     19          1           0        0.070867   -0.504741   -2.052409
 ---------------------------------------------------------------------

 SCF Done:  E(RB3LYP) =  -423.161581387     A.U. after    1 cycles

 The electronic state is 1-A.
 Alpha  occ. eigenvalues --  -19.14329 -19.13247 -10.23622 -10.22717 -10.22010
 Alpha  occ. eigenvalues --  -10.18839 -10.18172 -10.18104 -10.17628  -1.03699
 Alpha  occ. eigenvalues --   -1.01990  -0.86114  -0.76127  -0.68655  -0.66974
 Alpha  occ. eigenvalues --   -0.61713  -0.57152  -0.53226  -0.51919  -0.47643
 Alpha  occ. eigenvalues --   -0.46325  -0.44873  -0.44794  -0.41713  -0.40560
 Alpha  occ. eigenvalues --   -0.38429  -0.36323  -0.33630  -0.32061  -0.31411
 Alpha  occ. eigenvalues --   -0.30158  -0.27564  -0.25780  -0.24065
 Alpha virt. eigenvalues --    0.06429   0.08298   0.09942   0.10942   0.12697
 Alpha virt. eigenvalues --    0.13920   0.14741   0.15660   0.16878   0.16947
 Alpha virt. eigenvalues --    0.17746   0.19039   0.20777   0.21836   0.22481

 Mulliken charges:
               1
     1  O   -0.489038
     2  C    0.385070
     3  C   -0.301924
     4  C   -0.027282
     5  C   -0.242224
     6  C    0.110467
     7  O   -0.275359
     8  C   -0.133698
     9  C   -0.111981
    10  H    0.278355
    11  H    0.104236
    12  H    0.095418
    13  H    0.069636
    14  H    0.098992
    15  H    0.099475
    16  H    0.078140
    17  H    0.094513
    18  H    0.094623
    19  H    0.072580
 Sum of Mulliken charges =   0.00000

 Dipole moment (field-independent basis, Debye):
    X=              0.5314    Y=             -1.0592    Z=              0.6640  Tot=              1.3584
 Quadrupole moment (field-independent basis, Debye-Ang):
   XX=            -50.3086   YY=            -55.7953   ZZ=            -52.3831
   XY=              2.1433   XZ=              5.4494   YZ=             -1.2876

  Exact polarizability:  81.779   2.875  71.367   3.282  -1.058  67.576
 Approx polarizability: 112.406   1.873 102.245   2.730   0.410 104.287

                      1                      2                      3
                      A                      A                      A
 Frequencies --    104.4371               227.2707               260.3761
 Red. masses --      3.1663                 1.2099                 2.2674
 Frc consts  --      0.0203                 0.0368                 0.0906
 IR Inten    --      4.1049                62.6181                15.9374

                      4                      5                      6
                      A                      A                      A
 Frequencies --    279.4459               372.8960               400.1541
 Red. masses --      2.8559                 2.3029                 2.8139
 Frc consts  --      0.1314                 0.1887                 0.2655
 IR Inten    --     16.1020                 4.0560                10.2396

                      7                      8                      9
                      A                      A                      A
 Frequencies --    422.5633               558.5173               601.7992
 Red. masses --      2.5168                 4.5066                 3.3746
 Frc consts  --      0.2648                 0.8283                 0.7201
 IR Inten    --      6.6135                 1.4024                 1.7693

                     10                     11                     12
                      A                      A                      A
 Frequencies --    650.0393               771.4178               777.1166
 Red. masses --      5.5357                 2.8323                 2.3003
 Frc consts  --      1.3782                 0.9931                 0.8185
 IR Inten    --      1.9271                 3.3293                 3.2736

                     13                     14                     15
                      A                      A                      A
 Frequencies --    817.7530               859.8259               894.5325
 Red. masses --      2.1493                 2.0254                 1.8812
 Frc consts  --      0.8468                 0.8822                 0.8869
 IR Inten    --      8.2843                 2.3883                 1.4396

                     16                     17                     18
                      A                      A                      A
 Frequencies --    908.9294               912.7033               939.4205
 Red. masses --      2.4670                 2.4994                 1.8366
 Frc consts  --      1.2008                 1.2267                 0.9550
 IR Inten    --      5.0712                 1.8265                 2.3480

                     19                     20                     21
                      A                      A                      A
 Frequencies --    969.2348              1004.4592              1031.5921
 Red. masses --      2.2984                 2.3080                 2.1324
 Frc consts  --      1.2721                 1.3720                 1.3370
 IR Inten    --     11.6657                 4.8678                 0.5023

                     22                     23                     24
                      A                      A                      A
 Frequencies --   1072.8454              1086.8602              1110.4659
 Red. masses --      1.7895                 2.6465                 1.9144
 Frc consts  --      1.2135                 1.8419                 1.3909
 IR Inten    --     76.5791                61.6000                27.0565

                     25                     26                     27
                      A                      A                      A
 Frequencies --   1139.6486              1150.0201              1176.5108
 Red. masses --      2.1096                 1.5492                 2.7722
 Frc consts  --      1.6143                 1.2071                 2.2609
 IR Inten    --     25.1260                 4.3241                 4.7919

                     28                     29                     30
                      A                      A                      A
 Frequencies --   1194.8179              1222.8410              1230.6556
 Red. masses --      1.5473                 1.4941                 1.3498
 Frc consts  --      1.3015                 1.3164                 1.2045
 IR Inten    --     45.5073                 1.1990                 1.5275

                     31                     32                     33
                      A                      A                      A
 Frequencies --   1244.5626              1261.6993              1277.5681
 Red. masses --      1.6075                 1.8172                 1.9435
 Frc consts  --      1.4670                 1.7044                 1.8690
 IR Inten    --      6.9392                21.5690                22.4918

                     34                     35                     36
                      A                      A                      A
 Frequencies --   1285.1893              1312.9582              1345.1924
 Red. masses --      1.6001                 1.4639                 1.3550
 Frc consts  --      1.5571                 1.4869                 1.4446
 IR Inten    --     14.1479                 1.9397                 8.0535

                     37                     38                     39
                      A                      A                      A
 Frequencies --   1346.7180              1403.8421              1459.7092
 Red. masses --      1.5187                 1.5968                 1.1124
 Frc consts  --      1.6228                 1.8541                 1.3965
 IR Inten    --     24.3649                 2.3572                 0.8144

                     40                     41                     42
                      A                      A                      A
 Frequencies --   1473.0353              1519.6394              2985.0895
 Red. masses --      1.1105                 1.0904                 1.0636
 Frc consts  --      1.4196                 1.4836                 5.5842
 IR Inten    --      2.7709                 1.5218                75.3576

                     43                     44                     45
                      A                      A                      A
 Frequencies --   3046.1666              3048.4760              3049.8233
 Red. masses --      1.0909                 1.0658                 1.0618
 Frc consts  --      5.9642                 5.8356                 5.8186
 IR Inten    --     10.4503                46.4161                39.1120

                     46                     47                     48
                      A                      A                      A
 Frequencies --   3066.2387              3103.7480              3107.8663
 Red. masses --      1.0862                 1.0984                 1.1074
 Frc consts  --      6.0171                 6.2344                 6.3022
 IR Inten    --     55.8181                22.7148                12.5039

                     49                     50                     51
                      A                      A                      A
 Frequencies --   3116.0572              3139.8198              3797.7389
 Red. masses --      1.0980                 1.0917                 1.0660
 Frc consts  --      6.2816                 6.3412                 9.0584
 IR Inten    --     44.6982                22.0965                17.8212

 - Thermochemistry -
 -------------------
 Temperature   298.150 Kelvin.  Pressure   1.00000 Atm.
 Atom     1 has atomic number  8 and mass  15.99491

 Molecular mass:   126.06808 amu.
 Principal axes and moments of inertia in atomic units:
                           1         2         3
     Eigenvalues --   664.74993 944.060511252.95879
           X            0.99832   0.05305   0.02327
           Y           -0.05259   0.99841  -0.02025
           Z           -0.02431   0.01899   0.99952
 This molecule is an asymmetric top.
 Rotational symmetry number  1.
 Warning -- assumption of classical behavior for rotation
           may cause significant error
 Rotational temperatures (Kelvin)      0.13030     0.09175     0.06913
 Rotational constants (GHZ):           2.71492     1.91168     1.44038
 Zero-point vibrational energy     421924.6 (Joules/Mol)
                                  100.84240 (Kcal/Mol)
 Warning -- explicit consideration of   9 degrees of freedom as
           vibrations may cause significant error
 Vibrational temperatures:    150.26   326.99   374.62   402.06   536.51
          (Kelvin)            575.73   607.97   803.58   865.85   935.26
                             1109.90  1118.10  1176.56  1237.10  1287.03
                             1307.75  1313.17  1351.61  1394.51  1445.19
                             1484.23  1543.58  1563.75  1597.71  1639.70
                             1654.62  1692.73  1719.07  1759.39  1770.64
                             1790.65  1815.30  1838.13  1849.10  1889.05
                             1935.43  1937.62  2019.81  2100.19  2119.37
                             2186.42  4294.87  4382.75  4386.07  4388.01
                             4411.63  4465.60  4471.52  4483.31  4517.49
                             5464.09

 Zero-point correction=                           0.160703 (Hartree/Particle)
 Thermal correction to Energy=                    0.168024
 Thermal correction to Enthalpy=                  0.168968
 Thermal correction to Gibbs Free Energy=         0.129235
 Sum of electronic and zero-point Energies=           -423.000879
 Sum of electronic and thermal Energies=              -422.993558
 Sum of electronic and thermal Enthalpies=            -422.992613
 Sum of electronic and thermal Free Energies=         -423.032347

                     E (Thermal)             CV                S
                      KCal/Mol        Cal/Mol-Kelvin    Cal/Mol-Kelvin
 Total                  105.437             29.841             83.626
 Electronic               0.000              0.000              0.000
 Translational            0.889              2.981             40.409
 Rotational               0.889              2.981             28.155
 Vibrational            103.659             23.880             15.063
 Vibration     1          0.605              1.946              3.370
 Vibration     2          0.651              1.799              1.900
 Vibration     3          0.668              1.745              1.659
 Vibration     4          0.680              1.712              1.537
 Vibration     5          0.744              1.528              1.068
 Vibration     6          0.766              1.470              0.962
 Vibration     7          0.785              1.421              0.883
 Vibration     8          0.914              1.121              0.527
 Vibration     9          0.960              1.028              0.447

 Optimization completed.
    -- Stationary point found.
 Normal termination of Gaussian 09 at Mon Jan 27 18:57:30 2020.
