 Gaussian 09, Revision D.01,
 Gaussian 09:  ES64L-G09RevD.01 24-Apr-2013

 -----------------------------
 # b3lyp 6-31G(2df,p) opt Freq
 -----------------------------

 -----
 titel
 -----
 Symbolic Z-matrix:
 Charge =  0 Multiplicity = 1

 SCF Done:  E(RB3LYP) =  -423.128540999     A.U. after   14 cycles
 Optimization completed.
    -- Stationary point found.
 Normal termination of Gaussian 09 at Mon Jan 27 14:11:21 2020.

 ----------------------------------------------------------------------
 #N Geom=AllCheck Guess=TCheck SCRF=Check GenChk RB3LYP/6-31G(2df,p) Fr
 eq
 ----------------------------------------------------------------------

 Structure from the checkpoint file:  "/scratch/puck/g09_c8d29aba-13dc-4253-a078-53919f9fd219/Gau-64247.chk"
 -----
 titel
 -----
 Charge =  0 Multiplicity = 1

                         Standard orientation:
 ---------------------------------------------------------------------
 Center     Atomic      Atomic             Coordinates (Angstroms)
 Number     Number       Type             X           Y           Z
 ---------------------------------------------------------------------
      1          6           0       -2.491578    1.169515    0.018721
      2          6           0       -1.495708    0.265621   -0.672372
      3          6           0       -1.475064   -1.227124   -0.382859
      4          6           0       -0.356507   -0.358293    0.095933
      5          8           0       -0.283727   -0.187167    1.490102
      6          6           0        1.030015   -0.482882   -0.522357
      7          8           0        1.728454   -1.587089    0.028541
      8          6           0        1.766318    0.779566   -0.324262
      9          6           0        2.336718    1.815152   -0.101865
     10          1           0       -2.608141    0.886867    1.068161
     11          1           0       -2.166480    2.215393   -0.014589
     12          1           0       -3.473703    1.111527   -0.461833
     13          1           0       -1.262363    0.545792   -1.697239
     14          1           0       -2.153659   -1.591786    0.380757
     15          1           0       -1.281279   -1.923472   -1.191300
     16          1           0        0.118995    0.677310    1.649328
     17          1           0        0.936059   -0.683134   -1.595394
     18          1           0        1.583704   -1.536160    0.982755
     19          1           0        2.863888    2.722380    0.064579
 ---------------------------------------------------------------------

 SCF Done:  E(RB3LYP) =  -423.128540999     A.U. after    1 cycles

 The electronic state is 1-A.
 Alpha  occ. eigenvalues --  -19.15592 -19.13846 -10.25927 -10.24397 -10.19607
 Alpha  occ. eigenvalues --  -10.18885 -10.18603 -10.18440 -10.17977  -1.04729
 Alpha  occ. eigenvalues --   -1.01730  -0.85899  -0.77227  -0.72138  -0.69377
 Alpha  occ. eigenvalues --   -0.59165  -0.58641  -0.54793  -0.52698  -0.49642
 Alpha  occ. eigenvalues --   -0.49195  -0.45718  -0.42961  -0.42310  -0.40087
 Alpha  occ. eigenvalues --   -0.39012  -0.36004  -0.34685  -0.32787  -0.30335
 Alpha  occ. eigenvalues --   -0.28755  -0.27889  -0.27165  -0.25614
 Alpha virt. eigenvalues --    0.03369   0.04056   0.07461   0.10189   0.11794
 Alpha virt. eigenvalues --    0.12668   0.12973   0.13605   0.14261   0.16269
 Alpha virt. eigenvalues --    0.16722   0.17356   0.18305   0.22009   0.23605

 Mulliken charges:
               1
     1  C   -0.421186
     2  C   -0.055071
     3  C   -0.349511
     4  C    0.391610
     5  O   -0.477660
     6  C   -0.109585
     7  O   -0.413773
     8  C    0.299399
     9  C   -0.456370
    10  H    0.130033
    11  H    0.117400
    12  H    0.120521
    13  H    0.087645
    14  H    0.123914
    15  H    0.119555
    16  H    0.289264
    17  H    0.113018
    18  H    0.289190
    19  H    0.201605
 Sum of Mulliken charges =   0.00000

 Dipole moment (field-independent basis, Debye):
    X=             -0.8312    Y=              1.8117    Z=              0.0304  Tot=              1.9935
 Quadrupole moment (field-independent basis, Debye-Ang):
   XX=            -54.8557   YY=            -51.5772   ZZ=            -51.7585
   XY=              4.6407   XZ=              2.7596   YZ=              1.4146

  Exact polarizability:  83.306   9.267  84.726   2.630   2.794  63.319
 Approx polarizability: 107.471  17.697 132.745   5.365   5.857  98.715

                      1                      2                      3
                      A                      A                      A
 Frequencies --     66.3069               103.3417               172.3370
 Red. masses --      4.2643                 3.5672                 3.4626
 Frc consts  --      0.0110                 0.0224                 0.0606
 IR Inten    --      2.2728                 0.9204                 1.5645

                      4                      5                      6
                      A                      A                      A
 Frequencies --    192.5734               199.0971               239.9528
 Red. masses --      1.4583                 2.0838                 3.5770
 Frc consts  --      0.0319                 0.0487                 0.1213
 IR Inten    --      0.2001                 0.2181                 2.9745

                      7                      8                      9
                      A                      A                      A
 Frequencies --    274.6180               341.8671               362.0109
 Red. masses --      2.7004                 3.8449                 2.3562
 Frc consts  --      0.1200                 0.2648                 0.1819
 IR Inten    --      5.0911                 1.2209                17.3423

                     10                     11                     12
                      A                      A                      A
 Frequencies --    402.2257               442.1494               478.2175
 Red. masses --      1.7685                 2.0201                 1.1625
 Frc consts  --      0.1686                 0.2327                 0.1566
 IR Inten    --     21.4171                 6.2711               177.5959

                     13                     14                     15
                      A                      A                      A
 Frequencies --    544.2757               565.2489               611.3303
 Red. masses --      4.4349                 5.1194                 3.8008
 Frc consts  --      0.7740                 0.9637                 0.8369
 IR Inten    --      7.6182                37.6767                 9.5176

                     16                     17                     18
                      A                      A                      A
 Frequencies --    652.0034               663.4011               792.3391
 Red. masses --      1.2467                 1.2487                 2.3040
 Frc consts  --      0.3123                 0.3238                 0.8522
 IR Inten    --     40.8899                38.6019                 5.0963

                     19                     20                     21
                      A                      A                      A
 Frequencies --    819.0006               889.2577               896.6220
 Red. masses --      3.3257                 1.3526                 2.1297
 Frc consts  --      1.3143                 0.6302                 1.0088
 IR Inten    --     22.8752                 5.6215                12.6646

                     22                     23                     24
                      A                      A                      A
 Frequencies --    955.7599               978.3885              1012.7040
 Red. masses --      3.6974                 2.0956                 1.4292
 Frc consts  --      1.9900                 1.1819                 0.8636
 IR Inten    --     11.0006                28.9896                15.1903

                     25                     26                     27
                      A                      A                      A
 Frequencies --   1053.0438              1068.3980              1089.7656
 Red. masses --      1.7674                 2.7341                 2.2402
 Frc consts  --      1.1547                 1.8388                 1.5675
 IR Inten    --     13.6511               108.7768                17.8161

                     28                     29                     30
                      A                      A                      A
 Frequencies --   1135.5268              1185.5651              1219.1719
 Red. masses --      1.7383                 1.6211                 1.4129
 Frc consts  --      1.3206                 1.3425                 1.2373
 IR Inten    --      4.9250                 1.9594                10.6816

                     31                     32                     33
                      A                      A                      A
 Frequencies --   1256.7234              1289.9193              1311.0950
 Red. masses --      2.0128                 1.9371                 1.2861
 Frc consts  --      1.8730                 1.8991                 1.3026
 IR Inten    --      6.5011                74.9686                39.1630

                     34                     35                     36
                      A                      A                      A
 Frequencies --   1367.9973              1406.6044              1419.7902
 Red. masses --      1.4578                 1.2540                 1.3264
 Frc consts  --      1.6074                 1.4618                 1.5753
 IR Inten    --     18.1299                16.5885                30.3056

                     37                     38                     39
                      A                      A                      A
 Frequencies --   1438.1745              1489.4812              1498.2132
 Red. masses --      1.3580                 1.3359                 1.0980
 Frc consts  --      1.6549                 1.7463                 1.4521
 IR Inten    --     30.5947                10.9130                 0.8755

                     40                     41                     42
                      A                      A                      A
 Frequencies --   1507.3818              2223.8921              3033.4224
 Red. masses --      1.2321                 5.8969                 1.0366
 Frc consts  --      1.6495                17.1830                 5.6198
 IR Inten    --      3.3130                 1.3234                33.1842

                     43                     44                     45
                      A                      A                      A
 Frequencies --   3054.1852              3091.8991              3115.1170
 Red. masses --      1.0841                 1.1008                 1.0958
 Frc consts  --      5.9582                 6.2002                 6.2649
 IR Inten    --     13.2033                22.8406                 3.1107

                     46                     47                     48
                      A                      A                      A
 Frequencies --   3134.3960              3135.2491              3224.1287
 Red. masses --      1.0808                 1.0647                 1.1170
 Frc consts  --      6.2558                 6.1663                 6.8411
 IR Inten    --     22.4519                 9.5228                 4.9527

                     49                     50                     51
                      A                      A                      A
 Frequencies --   3499.9648              3753.0471              3769.2572
 Red. masses --      1.1620                 1.0654                 1.0654
 Frc consts  --      8.3866                 8.8414                 8.9179
 IR Inten    --     62.7537                21.9716                32.9695

 - Thermochemistry -
 -------------------
 Temperature   298.150 Kelvin.  Pressure   1.00000 Atm.
 Atom     1 has atomic number  6 and mass  12.00000

 Molecular mass:   126.06808 amu.
 Principal axes and moments of inertia in atomic units:
                           1         2         3
     Eigenvalues --   754.338791415.065421744.08216
           X            0.99995  -0.00626   0.00775
           Y            0.00609   0.99975   0.02163
           Z           -0.00788  -0.02158   0.99974
 This molecule is an asymmetric top.
 Rotational symmetry number  1.
 Warning -- assumption of classical behavior for rotation
           may cause significant error
 Rotational temperatures (Kelvin)      0.11482     0.06121     0.04966
 Rotational constants (GHZ):           2.39248     1.27538     1.03478
 Zero-point vibrational energy     409281.0 (Joules/Mol)
                                   97.82050 (Kcal/Mol)
 Warning -- explicit consideration of  15 degrees of freedom as
           vibrations may cause significant error
 Vibrational temperatures:     95.40   148.69   247.95   277.07   286.46
          (Kelvin)            345.24   395.11   491.87   520.85   578.71
                              636.15   688.05   783.09   813.27   879.57
                              938.09   954.49  1140.00  1178.36  1279.44
                             1290.04  1375.12  1407.68  1457.05  1515.09
                             1537.18  1567.93  1633.77  1705.76  1754.11
                             1808.14  1855.90  1886.37  1968.24  2023.79
                             2042.76  2069.21  2143.03  2155.59  2168.78
                             3199.68  4364.41  4394.29  4448.55  4481.95
                             4509.69  4510.92  4638.80  5035.66  5399.79
                             5423.11

 Zero-point correction=                           0.155887 (Hartree/Particle)
 Thermal correction to Energy=                    0.165871
 Thermal correction to Enthalpy=                  0.166815
 Thermal correction to Gibbs Free Energy=         0.121317
 Sum of electronic and zero-point Energies=           -422.972654
 Sum of electronic and thermal Energies=              -422.962670
 Sum of electronic and thermal Enthalpies=            -422.961726
 Sum of electronic and thermal Free Energies=         -423.007224

                     E (Thermal)             CV                S
                      KCal/Mol        Cal/Mol-Kelvin    Cal/Mol-Kelvin
 Total                  104.086             37.507             95.758
 Electronic               0.000              0.000              0.000
 Translational            0.889              2.981             40.409
 Rotational               0.889              2.981             29.011
 Vibrational            102.308             31.545             26.339
 Vibration     1          0.598              1.970              4.260
 Vibration     2          0.605              1.947              3.390
 Vibration     3          0.626              1.877              2.410
 Vibration     4          0.635              1.850              2.203
 Vibration     5          0.637              1.841              2.141
 Vibration     6          0.657              1.779              1.803
 Vibration     7          0.677              1.720              1.567
 Vibration     8          0.721              1.592              1.203
 Vibration     9          0.736              1.551              1.113
 Vibration    10          0.768              1.465              0.955
 Vibration    11          0.802              1.378              0.820
 Vibration    12          0.835              1.298              0.715
 Vibration    13          0.899              1.152              0.556
 Vibration    14          0.921              1.106              0.513
 Vibration    15          0.970              1.008              0.431

 Optimization completed.
    -- Stationary point found.
 Normal termination of Gaussian 09 at Mon Jan 27 15:05:19 2020.
