 Gaussian 09, Revision D.01,
 Gaussian 09:  ES64L-G09RevD.01 24-Apr-2013

 -----------------------------
 # b3lyp 6-31G(2df,p) opt Freq
 -----------------------------

 -----
 titel
 -----
 Symbolic Z-matrix:
 Charge =  0 Multiplicity = 1

 SCF Done:  E(RB3LYP) =  -423.143672462     A.U. after   14 cycles
 Optimization completed.
    -- Stationary point found.
 Normal termination of Gaussian 09 at Mon Jan 27 23:47:10 2020.

 ----------------------------------------------------------------------
 #N Geom=AllCheck Guess=TCheck SCRF=Check GenChk RB3LYP/6-31G(2df,p) Fr
 eq
 ----------------------------------------------------------------------

 Structure from the checkpoint file:  "/scratch/puck/g09_da9bda85-b7a5-4d2d-98eb-9ca751091af9/Gau-186090.chk"
 -----
 titel
 -----
 Charge =  0 Multiplicity = 1

                         Standard orientation:
 ---------------------------------------------------------------------
 Center     Atomic      Atomic             Coordinates (Angstroms)
 Number     Number       Type             X           Y           Z
 ---------------------------------------------------------------------
      1          6           0        2.225317   -0.385689   -0.208959
      2          6           0        0.810191   -0.158924   -0.726668
      3          6           0       -0.182927   -1.315025   -0.475554
      4          8           0       -0.129129   -1.462782    0.977971
      5          6           0       -0.841791   -0.222283    0.980245
      6          6           0       -1.543700   -0.512444   -0.360614
      7          6           0       -1.330263    0.939164   -0.819994
      8          6           0       -0.055534    0.853337    0.063673
      9          8           0        0.636801    1.959021    0.536698
     10          1           0        2.796049    0.545919   -0.247153
     11          1           0        2.209157   -0.739925    0.823142
     12          1           0        2.746110   -1.130229   -0.820950
     13          1           0        0.834767    0.118884   -1.786272
     14          1           0       -0.074119   -2.255647   -1.014617
     15          1           0       -1.299946    0.070636    1.925403
     16          1           0       -2.480246   -1.057840   -0.446699
     17          1           0       -1.201535    1.170742   -1.880646
     18          1           0       -2.101796    1.587880   -0.389918
     19          1           0        0.022430    2.530851    1.007584
 ---------------------------------------------------------------------

 SCF Done:  E(RB3LYP) =  -423.143672462     A.U. after    1 cycles

 The electronic state is 1-A.
 Alpha  occ. eigenvalues --  -19.14788 -19.13283 -10.23904 -10.23736 -10.23253
 Alpha  occ. eigenvalues --  -10.19463 -10.18584 -10.18473 -10.16217  -1.05530
 Alpha  occ. eigenvalues --   -1.02931  -0.85211  -0.75995  -0.68047  -0.65055
 Alpha  occ. eigenvalues --   -0.64655  -0.56101  -0.54465  -0.53145  -0.46968
 Alpha  occ. eigenvalues --   -0.46485  -0.44239  -0.41727  -0.40752  -0.39179
 Alpha  occ. eigenvalues --   -0.38452  -0.35820  -0.35326  -0.34267  -0.32644
 Alpha  occ. eigenvalues --   -0.29746  -0.29457  -0.27284  -0.22794
 Alpha virt. eigenvalues --    0.06916   0.08944   0.10642   0.11948   0.12555
 Alpha virt. eigenvalues --    0.14632   0.15286   0.16177   0.16519   0.17234
 Alpha virt. eigenvalues --    0.17787   0.18764   0.19627   0.21079   0.22126

 Mulliken charges:
               1
     1  C   -0.423880
     2  C    0.002517
     3  C    0.056351
     4  O   -0.287797
     5  C    0.031621
     6  C   -0.079133
     7  C   -0.323589
     8  C    0.358439
     9  O   -0.484750
    10  H    0.126133
    11  H    0.136268
    12  H    0.104188
    13  H    0.070593
    14  H    0.077958
    15  H    0.079508
    16  H    0.081997
    17  H    0.101399
    18  H    0.090612
    19  H    0.281564
 Sum of Mulliken charges =   0.00000

 Dipole moment (field-independent basis, Debye):
    X=             -1.7598    Y=              1.1232    Z=             -0.7343  Tot=              2.2130
 Quadrupole moment (field-independent basis, Debye-Ang):
   XX=            -53.0293   YY=            -52.8853   ZZ=            -52.0887
   XY=             -2.8920   XZ=             -1.9445   YZ=              5.0664

  Exact polarizability:  78.604  -2.675  74.438  -1.539   2.522  67.959
 Approx polarizability: 107.557  -2.210 111.758  -1.913   2.195 107.919

                      1                      2                      3
                      A                      A                      A
 Frequencies --    192.4374               205.1069               232.0654
 Red. masses --      1.0891                 2.7785                 2.9033
 Frc consts  --      0.0238                 0.0689                 0.0921
 IR Inten    --      0.2137                 1.2006                 4.1025

                      4                      5                      6
                      A                      A                      A
 Frequencies --    268.7759               339.5626               373.3197
 Red. masses --      1.2443                 3.7396                 2.7126
 Frc consts  --      0.0530                 0.2540                 0.2227
 IR Inten    --     70.5900                27.9944                 1.0496

                      7                      8                      9
                      A                      A                      A
 Frequencies --    436.5369               506.1920               558.3647
 Red. masses --      2.1158                 3.6467                 4.8809
 Frc consts  --      0.2376                 0.5505                 0.8966
 IR Inten    --      2.8792                 3.2550                 3.3241

                     10                     11                     12
                      A                      A                      A
 Frequencies --    657.2014               695.4776               720.5077
 Red. masses --      4.3342                 4.0834                 3.9877
 Frc consts  --      1.1029                 1.1637                 1.2197
 IR Inten    --     10.2917                 9.4960                 1.8298

                     13                     14                     15
                      A                      A                      A
 Frequencies --    806.7495               819.9701               844.5885
 Red. masses --      2.5705                 2.1841                 3.2118
 Frc consts  --      0.9857                 0.8652                 1.3499
 IR Inten    --      5.3610                 6.0997                 4.3646

                     16                     17                     18
                      A                      A                      A
 Frequencies --    852.8040               903.6444               945.6142
 Red. masses --      1.7334                 3.3654                 2.0649
 Frc consts  --      0.7428                 1.6191                 1.0879
 IR Inten    --     11.1858                27.1844                 0.5742

                     19                     20                     21
                      A                      A                      A
 Frequencies --    964.7403               993.9556              1006.7855
 Red. masses --      3.4373                 1.9798                 1.5442
 Frc consts  --      1.8849                 1.1524                 0.9222
 IR Inten    --     24.4367                14.1035                13.7428

                     22                     23                     24
                      A                      A                      A
 Frequencies --   1034.0905              1058.0719              1083.8206
 Red. masses --      2.1176                 1.5214                 1.4874
 Frc consts  --      1.3342                 1.0035                 1.0294
 IR Inten    --     12.8343                10.5562                18.5647

                     25                     26                     27
                      A                      A                      A
 Frequencies --   1099.3590              1114.0090              1145.0931
 Red. masses --      1.7129                 1.6592                 2.5076
 Frc consts  --      1.2197                 1.2132                 1.9372
 IR Inten    --      2.0703                 4.3717                 2.1600

                     28                     29                     30
                      A                      A                      A
 Frequencies --   1184.9376              1197.0939              1220.4587
 Red. masses --      1.5652                 1.6371                 1.5046
 Frc consts  --      1.2949                 1.3822                 1.3204
 IR Inten    --     15.1281                 6.5088                 3.2881

                     31                     32                     33
                      A                      A                      A
 Frequencies --   1238.5062              1263.3389              1284.0400
 Red. masses --      1.7543                 1.8728                 1.8236
 Frc consts  --      1.5854                 1.7611                 1.7715
 IR Inten    --     10.4526                50.2562                 5.4774

                     34                     35                     36
                      A                      A                      A
 Frequencies --   1310.8693              1327.2777              1364.1812
 Red. masses --      2.2687                 1.5567                 1.5029
 Frc consts  --      2.2969                 1.6157                 1.6478
 IR Inten    --    103.1640                21.7508                 1.6349

                     37                     38                     39
                      A                      A                      A
 Frequencies --   1399.7599              1409.3687              1490.2224
 Red. masses --      1.6051                 1.4472                 1.0549
 Frc consts  --      1.8529                 1.6937                 1.3803
 IR Inten    --      1.3288                 1.9383                 3.1605

                     40                     41                     42
                      A                      A                      A
 Frequencies --   1499.3885              1507.1952              3039.6701
 Red. masses --      1.1311                 1.0603                 1.0608
 Frc consts  --      1.4982                 1.4191                 5.7746
 IR Inten    --      4.3831                 6.3265                 7.3068

                     43                     44                     45
                      A                      A                      A
 Frequencies --   3040.5537              3046.5001              3099.4364
 Red. masses --      1.0519                 1.0685                 1.1064
 Frc consts  --      5.7297                 5.8427                 6.2624
 IR Inten    --     53.9088                25.9752                29.8614

                     46                     47                     48
                      A                      A                      A
 Frequencies --   3109.0208              3117.1421              3125.1883
 Red. masses --      1.0976                 1.0902                 1.0913
 Frc consts  --      6.2510                 6.2415                 6.2796
 IR Inten    --     16.3601                46.0032                31.8434

                     49                     50                     51
                      A                      A                      A
 Frequencies --   3141.7505              3151.3027              3817.6812
 Red. masses --      1.1002                 1.0931                 1.0660
 Frc consts  --      6.3981                 6.3957                 9.1543
 IR Inten    --     11.4751                32.0627                22.7378

 - Thermochemistry -
 -------------------
 Temperature   298.150 Kelvin.  Pressure   1.00000 Atm.
 Atom     1 has atomic number  6 and mass  12.00000

 Molecular mass:   126.06808 amu.
 Principal axes and moments of inertia in atomic units:
                           1         2         3
     Eigenvalues --   795.38754 839.849151171.69343
           X            0.89203  -0.45186  -0.00970
           Y            0.45195   0.89162   0.02730
           Z           -0.00368  -0.02874   0.99958
 This molecule is an asymmetric top.
 Rotational symmetry number  1.
 Warning -- assumption of classical behavior for rotation
           may cause significant error
 Rotational temperatures (Kelvin)      0.10890     0.10313     0.07392
 Rotational constants (GHZ):           2.26901     2.14889     1.54028
 Zero-point vibrational energy     420150.8 (Joules/Mol)
                                  100.41845 (Kcal/Mol)
 Warning -- explicit consideration of   9 degrees of freedom as
           vibrations may cause significant error
 Vibrational temperatures:    276.87   295.10   333.89   386.71   488.55
          (Kelvin)            537.12   628.08   728.30   803.36   945.57
                             1000.64  1036.65  1160.73  1179.75  1215.17
                             1226.99  1300.14  1360.53  1388.04  1430.08
                             1448.54  1487.82  1522.33  1559.37  1581.73
                             1602.81  1647.53  1704.86  1722.35  1755.97
                             1781.93  1817.66  1847.44  1886.05  1909.65
                             1962.75  2013.94  2027.76  2144.09  2157.28
                             2168.52  4373.40  4374.67  4383.23  4459.39
                             4473.18  4484.87  4496.44  4520.27  4534.02
                             5492.78

 Zero-point correction=                           0.160027 (Hartree/Particle)
 Thermal correction to Energy=                    0.167497
 Thermal correction to Enthalpy=                  0.168442
 Thermal correction to Gibbs Free Energy=         0.128720
 Sum of electronic and zero-point Energies=           -422.983645
 Sum of electronic and thermal Energies=              -422.976175
 Sum of electronic and thermal Enthalpies=            -422.975231
 Sum of electronic and thermal Free Energies=         -423.014953

                     E (Thermal)             CV                S
                      KCal/Mol        Cal/Mol-Kelvin    Cal/Mol-Kelvin
 Total                  105.106             30.789             83.602
 Electronic               0.000              0.000              0.000
 Translational            0.889              2.981             40.409
 Rotational               0.889              2.981             28.150
 Vibrational            103.329             24.828             15.043
 Vibration     1          0.634              1.850              2.204
 Vibration     2          0.640              1.833              2.087
 Vibration     3          0.653              1.792              1.863
 Vibration     4          0.673              1.731              1.604
 Vibration     5          0.719              1.596              1.214
 Vibration     6          0.745              1.527              1.066
 Vibration     7          0.797              1.391              0.838
 Vibration     8          0.861              1.236              0.643
 Vibration     9          0.914              1.121              0.527

 Normal termination of Gaussian 09 at Tue Jan 28 00:34:19 2020.
