 Gaussian 09, Revision D.01,
 Gaussian 09:  ES64L-G09RevD.01 24-Apr-2013

 -----------------------------
 # b3lyp 6-31G(2df,p) opt Freq
 -----------------------------

 -----
 titel
 -----
 Symbolic Z-matrix:
 Charge =  0 Multiplicity = 1

 SCF Done:  E(RB3LYP) =  -423.123520082     A.U. after   13 cycles
 Optimization completed.
    -- Stationary point found.
 Normal termination of Gaussian 09 at Tue Jan 28 01:55:58 2020.

 ----------------------------------------------------------------------
 #N Geom=AllCheck Guess=TCheck SCRF=Check GenChk RB3LYP/6-31G(2df,p) Fr
 eq
 ----------------------------------------------------------------------

 Structure from the checkpoint file:  "/scratch/puck/g09_07773df7-71cf-4c02-9c5d-e3c3b3bc13a6/Gau-26472.chk"
 -----
 titel
 -----
 Charge =  0 Multiplicity = 1

                         Standard orientation:
 ---------------------------------------------------------------------
 Center     Atomic      Atomic             Coordinates (Angstroms)
 Number     Number       Type             X           Y           Z
 ---------------------------------------------------------------------
      1          8           0        2.764269   -1.045447   -0.276985
      2          6           0        2.088572    0.171480   -0.410044
      3          6           0        1.752792    1.047702    0.771145
      4          6           0        0.661659    0.325712    0.008844
      5          6           0       -0.517517    0.949374   -0.760720
      6          6           0       -1.426929   -0.044305   -0.024872
      7          6           0       -2.755586    0.169530    0.547922
      8          8           0       -2.555156   -0.672623   -0.598062
      9          6           0       -0.230118   -0.797986    0.572452
     10          1           0        2.472742   -1.472870    0.534782
     11          1           0        2.407494    0.658623   -1.326687
     12          1           0        1.999168    0.678254    1.763737
     13          1           0        1.842837    2.124675    0.662501
     14          1           0       -0.715738    2.010205   -0.582153
     15          1           0       -0.485791    0.768291   -1.840013
     16          1           0       -3.042958   -0.348708    1.462358
     17          1           0       -3.286517    1.101202    0.354803
     18          1           0       -0.239278   -0.939077    1.657536
     19          1           0       -0.062105   -1.765074    0.085147
 ---------------------------------------------------------------------

 SCF Done:  E(RB3LYP) =  -423.123520082     A.U. after    1 cycles

 The electronic state is 1-A.
 Alpha  occ. eigenvalues --  -19.14999 -19.14493 -10.24434 -10.23663 -10.23264
 Alpha  occ. eigenvalues --  -10.19940 -10.19070 -10.18808 -10.18675  -1.07167
 Alpha  occ. eigenvalues --   -1.02953  -0.86980  -0.79222  -0.67971  -0.66332
 Alpha  occ. eigenvalues --   -0.61611  -0.58226  -0.54135  -0.51187  -0.49474
 Alpha  occ. eigenvalues --   -0.47440  -0.46817  -0.44263  -0.41214  -0.40186
 Alpha  occ. eigenvalues --   -0.38446  -0.37570  -0.35569  -0.34963  -0.32554
 Alpha  occ. eigenvalues --   -0.29957  -0.27651  -0.26264  -0.23786
 Alpha virt. eigenvalues --    0.06724   0.06964   0.09829   0.10302   0.11503
 Alpha virt. eigenvalues --    0.11916   0.13352   0.14702   0.15379   0.15734
 Alpha virt. eigenvalues --    0.16973   0.18097   0.19787   0.23079   0.24222

 Mulliken charges:
               1
     1  O   -0.424020
     2  C    0.088555
     3  C   -0.397047
     4  C    0.302773
     5  C   -0.397665
     6  C    0.465296
     7  C   -0.261644
     8  O   -0.267456
     9  C   -0.407591
    10  H    0.286535
    11  H    0.108489
    12  H    0.107990
    13  H    0.115794
    14  H    0.106498
    15  H    0.118258
    16  H    0.114481
    17  H    0.115413
    18  H    0.104326
    19  H    0.121017
 Sum of Mulliken charges =   0.00000

 Dipole moment (field-independent basis, Debye):
    X=             -0.0967    Y=              1.3511    Z=              2.0324  Tot=              2.4424
 Quadrupole moment (field-independent basis, Debye-Ang):
   XX=            -60.6153   YY=            -51.8596   ZZ=            -51.5086
   XY=             -1.7006   XZ=             -1.1289   YZ=             -3.7844

  Exact polarizability:  90.787  -0.945  70.680  -2.557  -2.376  67.967
 Approx polarizability: 115.003  -1.647 105.560  -2.954   0.568 104.904

                      1                      2                      3
                      A                      A                      A
 Frequencies --     37.6831                77.0560               144.2423
 Red. masses --      4.0144                 1.0545                 3.6998
 Frc consts  --      0.0034                 0.0037                 0.0454
 IR Inten    --      4.5710               107.6668                 1.1076

                      4                      5                      6
                      A                      A                      A
 Frequencies --    196.9924               270.7598               315.7749
 Red. masses --      3.8371                 3.3844                 2.2632
 Frc consts  --      0.0877                 0.1462                 0.1330
 IR Inten    --      7.2606                 1.2312                 3.5430

                      7                      8                      9
                      A                      A                      A
 Frequencies --    360.0137               397.8308               416.0776
 Red. masses --      3.4731                 1.9289                 3.5759
 Frc consts  --      0.2652                 0.1799                 0.3647
 IR Inten    --      1.6616                 1.6025                 1.7666

                     10                     11                     12
                      A                      A                      A
 Frequencies --    444.0845               545.7947               669.5957
 Red. masses --      2.1166                 3.6439                 3.1122
 Frc consts  --      0.2459                 0.6395                 0.8221
 IR Inten    --      4.6666                 5.8281                 4.3932

                     13                     14                     15
                      A                      A                      A
 Frequencies --    783.5362               833.2136               838.4720
 Red. masses --      2.4834                 1.9530                 1.8608
 Frc consts  --      0.8983                 0.7989                 0.7708
 IR Inten    --     12.9982                10.6585                25.8682

                     16                     17                     18
                      A                      A                      A
 Frequencies --    873.5760               874.1799               879.8004
 Red. masses --      2.4880                 3.2697                 1.5045
 Frc consts  --      1.1187                 1.4722                 0.6861
 IR Inten    --      6.4729                 6.9687                 1.8466

                     19                     20                     21
                      A                      A                      A
 Frequencies --    936.8992               958.9016              1001.9645
 Red. masses --      1.6743                 3.9672                 2.4886
 Frc consts  --      0.8659                 2.1492                 1.4720
 IR Inten    --      6.5039                19.0958                25.4219

                     22                     23                     24
                      A                      A                      A
 Frequencies --   1022.0141              1068.9388              1098.0294
 Red. masses --      1.3471                 1.1909                 1.2154
 Frc consts  --      0.8290                 0.8017                 0.8634
 IR Inten    --      1.9962                 5.6168                 4.3911

                     25                     26                     27
                      A                      A                      A
 Frequencies --   1108.3439              1126.5745              1140.5381
 Red. masses --      2.4160                 1.2768                 2.6624
 Frc consts  --      1.7486                 0.9548                 2.0405
 IR Inten    --     51.0820                 4.0882                66.9055

                     28                     29                     30
                      A                      A                      A
 Frequencies --   1157.4778              1160.0128              1205.4946
 Red. masses --      1.7136                 1.8550                 1.5293
 Frc consts  --      1.3526                 1.4707                 1.3094
 IR Inten    --      3.4026                 4.6522                14.1167

                     31                     32                     33
                      A                      A                      A
 Frequencies --   1217.4392              1232.1090              1239.5965
 Red. masses --      1.6511                 2.1117                 1.4721
 Frc consts  --      1.4418                 1.8888                 1.3327
 IR Inten    --      2.3918                 1.9791                 2.0527

                     34                     35                     36
                      A                      A                      A
 Frequencies --   1312.2808              1351.3766              1430.4852
 Red. masses --      1.7026                 1.9890                 1.9388
 Frc consts  --      1.7275                 2.1402                 2.3375
 IR Inten    --      3.8777                 2.5778                20.8683

                     37                     38                     39
                      A                      A                      A
 Frequencies --   1436.7855              1465.9697              1486.4765
 Red. masses --      1.2774                 1.0914                 1.1662
 Frc consts  --      1.5537                 1.3820                 1.5183
 IR Inten    --     39.9199                 2.7729                 4.3189

                     40                     41                     42
                      A                      A                      A
 Frequencies --   1488.7024              1538.1635              3035.9232
 Red. masses --      1.7623                 1.6701                 1.0570
 Frc consts  --      2.3012                 2.3281                 5.7398
 IR Inten    --     51.7232                15.7671                29.6139

                     43                     44                     45
                      A                      A                      A
 Frequencies --   3046.1812              3076.9380              3088.5494
 Red. masses --      1.0583                 1.0503                 1.1074
 Frc consts  --      5.7861                 5.8589                 6.2237
 IR Inten    --     14.9047                25.6634                17.5186

                     46                     47                     48
                      A                      A                      A
 Frequencies --   3096.9871              3107.8816              3159.2921
 Red. masses --      1.1075                 1.0544                 1.0901
 Frc consts  --      6.2584                 6.0004                 6.4104
 IR Inten    --     16.1962                12.2682                11.9843

                     49                     50                     51
                      A                      A                      A
 Frequencies --   3163.4959              3195.1677              3821.2487
 Red. masses --      1.1194                 1.1152                 1.0658
 Frc consts  --      6.6005                 6.7080                 9.1693
 IR Inten    --     22.1755                11.2632                15.3432

 - Thermochemistry -
 -------------------
 Temperature   298.150 Kelvin.  Pressure   1.00000 Atm.
 Atom     1 has atomic number  8 and mass  15.99491

 Molecular mass:   126.06808 amu.
 Principal axes and moments of inertia in atomic units:
                           1         2         3
     Eigenvalues --   431.849121877.015731990.24763
           X            0.99999  -0.00244  -0.00389
           Y            0.00201   0.99426  -0.10699
           Z            0.00413   0.10698   0.99425
 This molecule is an asymmetric top.
 Rotational symmetry number  1.
 Rotational temperatures (Kelvin)      0.20056     0.04614     0.04352
 Rotational constants (GHZ):           4.17910     0.96149     0.90679
 Zero-point vibrational energy     412322.4 (Joules/Mol)
                                   98.54742 (Kcal/Mol)
 Warning -- explicit consideration of  11 degrees of freedom as
           vibrations may cause significant error
 Vibrational temperatures:     54.22   110.87   207.53   283.43   389.56
          (Kelvin)            454.33   517.98   572.39   598.64   638.94
                              785.28   963.40  1127.33  1198.81  1206.37
                             1256.88  1257.75  1265.83  1347.99  1379.64
                             1441.60  1470.45  1537.96  1579.82  1594.66
                             1620.89  1640.98  1665.35  1669.00  1734.44
                             1751.62  1772.73  1783.50  1888.08  1944.33
                             2058.15  2067.21  2109.20  2138.71  2141.91
                             2213.07  4368.01  4382.77  4427.02  4443.73
                             4455.87  4471.54  4545.51  4551.56  4597.13
                             5497.92

 Zero-point correction=                           0.157045 (Hartree/Particle)
 Thermal correction to Energy=                    0.165972
 Thermal correction to Enthalpy=                  0.166916
 Thermal correction to Gibbs Free Energy=         0.122591
 Sum of electronic and zero-point Energies=           -422.966475
 Sum of electronic and thermal Energies=              -422.957548
 Sum of electronic and thermal Enthalpies=            -422.956604
 Sum of electronic and thermal Free Energies=         -423.000929

                     E (Thermal)             CV                S
                      KCal/Mol        Cal/Mol-Kelvin    Cal/Mol-Kelvin
 Total                  104.149             33.337             93.290
 Electronic               0.000              0.000              0.000
 Translational            0.889              2.981             40.409
 Rotational               0.889              2.981             28.869
 Vibrational            102.371             27.375             24.012
 Vibration     1          0.594              1.982              5.377
 Vibration     2          0.599              1.964              3.965
 Vibration     3          0.616              1.909              2.747
 Vibration     4          0.636              1.844              2.161
 Vibration     5          0.674              1.727              1.591
 Vibration     6          0.703              1.644              1.332
 Vibration     7          0.735              1.555              1.122
 Vibration     8          0.764              1.475              0.971
 Vibration     9          0.779              1.435              0.905
 Vibration    10          0.804              1.374              0.814
 Vibration    11          0.901              1.149              0.553

 Normal termination of Gaussian 09 at Tue Jan 28 02:41:37 2020.
