 Gaussian 09, Revision D.01,
 Gaussian 09:  ES64L-G09RevD.01 24-Apr-2013

 -----------------------------
 # b3lyp 6-31G(2df,p) opt Freq
 -----------------------------

 -----
 titel
 -----
 Symbolic Z-matrix:
 Charge =  0 Multiplicity = 1

 SCF Done:  E(RB3LYP) =  -423.150351435     A.U. after   14 cycles
 Optimization completed.
    -- Stationary point found.
 Normal termination of Gaussian 09 at Tue Jan 28 08:21:07 2020.

 ----------------------------------------------------------------------
 #N Geom=AllCheck Guess=TCheck SCRF=Check GenChk RB3LYP/6-31G(2df,p) Fr
 eq
 ----------------------------------------------------------------------

 Structure from the checkpoint file:  "/scratch/puck/g09_edbe8584-c648-4b29-971a-ad095b4bd0dc/Gau-106568.chk"
 -----
 titel
 -----
 Charge =  0 Multiplicity = 1

                         Standard orientation:
 ---------------------------------------------------------------------
 Center     Atomic      Atomic             Coordinates (Angstroms)
 Number     Number       Type             X           Y           Z
 ---------------------------------------------------------------------
      1          6           0        2.876213   -0.453165   -0.395362
      2          6           0        1.584918   -0.866480    0.315372
      3          6           0        0.355110   -0.034469   -0.113347
      4          6           0        0.483958    1.367302    0.450726
      5          8           0        0.829911    2.335990   -0.173861
      6          6           0       -0.958456   -0.699305    0.380649
      7          8           0       -1.086973   -2.035733   -0.089251
      8          6           0       -2.124965    0.113511    0.027370
      9          6           0       -3.063615    0.784140   -0.310956
     10          1           0        3.112065    0.602247   -0.229118
     11          1           0        3.721038   -1.049333   -0.037996
     12          1           0        2.794052   -0.603834   -1.476970
     13          1           0        1.355944   -1.917045    0.114088
     14          1           0        1.710713   -0.781279    1.403958
     15          1           0        0.322105    0.049239   -1.205734
     16          1           0        0.274160    1.437537    1.545359
     17          1           0       -0.905646   -0.793300    1.473286
     18          1           0       -1.348659   -1.993683   -1.016081
     19          1           0       -3.898254    1.378180   -0.592609
 ---------------------------------------------------------------------

 SCF Done:  E(RB3LYP) =  -423.150351435     A.U. after    1 cycles

 The electronic state is 1-A.
 Alpha  occ. eigenvalues --  -19.15777 -19.14160 -10.27301 -10.27260 -10.20448
 Alpha  occ. eigenvalues --  -10.19530 -10.19500 -10.19182 -10.17948  -1.04885
 Alpha  occ. eigenvalues --   -1.04115  -0.82499  -0.77384  -0.72948  -0.67036
 Alpha  occ. eigenvalues --   -0.62030  -0.57974  -0.56048  -0.51482  -0.48792
 Alpha  occ. eigenvalues --   -0.47971  -0.45022  -0.44646  -0.42457  -0.39716
 Alpha  occ. eigenvalues --   -0.38332  -0.37291  -0.36397  -0.34879  -0.34337
 Alpha  occ. eigenvalues --   -0.30504  -0.28506  -0.27868  -0.24924
 Alpha virt. eigenvalues --   -0.02819   0.02633   0.03959   0.08356   0.10325
 Alpha virt. eigenvalues --    0.11117   0.11839   0.13678   0.14478   0.15977
 Alpha virt. eigenvalues --    0.16268   0.17361   0.18671   0.19859   0.21679

 Mulliken charges:
               1
     1  C   -0.397379
     2  C   -0.201417
     3  C   -0.073433
     4  C    0.164708
     5  O   -0.251806
     6  C   -0.068200
     7  O   -0.414427
     8  C    0.277064
     9  C   -0.420664
    10  H    0.134970
    11  H    0.117357
    12  H    0.120324
    13  H    0.126598
    14  H    0.099037
    15  H    0.093240
    16  H    0.074782
    17  H    0.122988
    18  H    0.288946
    19  H    0.207312
 Sum of Mulliken charges =   0.00000

 Dipole moment (field-independent basis, Debye):
    X=             -0.6515    Y=             -1.3809    Z=             -0.0941  Tot=              1.5297
 Quadrupole moment (field-independent basis, Debye-Ang):
   XX=            -49.5121   YY=            -62.1992   ZZ=            -50.2982
   XY=             -5.7498   XZ=              3.5155   YZ=              3.3606

  Exact polarizability:  93.104  -9.672  77.870   3.259  -2.301  64.182
 Approx polarizability: 122.188 -16.462 122.533   7.869 -10.705 102.494

                      1                      2                      3
                      A                      A                      A
 Frequencies --     52.7507                63.7674                92.4412
 Red. masses --      5.0503                 4.8503                 2.0407
 Frc consts  --      0.0083                 0.0116                 0.0103
 IR Inten    --      1.7317                 5.7909                 0.3544

                      4                      5                      6
                      A                      A                      A
 Frequencies --    115.0784               192.3848               206.7623
 Red. masses --      3.6267                 2.8206                 1.6269
 Frc consts  --      0.0283                 0.0615                 0.0410
 IR Inten    --      0.8779                 3.3967                 0.1443

                      7                      8                      9
                      A                      A                      A
 Frequencies --    241.4834               258.7058               299.9061
 Red. masses --      2.2122                 2.4211                 1.3017
 Frc consts  --      0.0760                 0.0955                 0.0690
 IR Inten    --     17.3719                 3.5435                60.0788

                     10                     11                     12
                      A                      A                      A
 Frequencies --    338.4773               378.1563               415.1458
 Red. masses --      2.3101                 3.3731                 6.0546
 Frc consts  --      0.1559                 0.2842                 0.6148
 IR Inten    --     33.9870                 5.9262                 6.2934

                     13                     14                     15
                      A                      A                      A
 Frequencies --    483.0675               582.1544               588.7761
 Red. masses --      4.5777                 6.2164                 3.4327
 Frc consts  --      0.6294                 1.2413                 0.7011
 IR Inten    --      3.8399                15.1447                 0.6188

                     16                     17                     18
                      A                      A                      A
 Frequencies --    639.3063               684.9627               778.6104
 Red. masses --      1.2237                 1.2489                 1.2007
 Frc consts  --      0.2947                 0.3452                 0.4289
 IR Inten    --     45.0274                31.5996                12.7016

                     19                     20                     21
                      A                      A                      A
 Frequencies --    875.3695               922.2085               967.7910
 Red. masses --      2.8223                 2.3586                 1.7024
 Frc consts  --      1.2742                 1.1819                 0.9395
 IR Inten    --      3.1262                20.9711                12.3643

                     22                     23                     24
                      A                      A                      A
 Frequencies --    981.5427              1037.3922              1066.1578
 Red. masses --      2.1726                 3.3750                 4.1608
 Frc consts  --      1.2333                 2.1400                 2.7866
 IR Inten    --     18.4233                14.7386                82.8355

                     25                     26                     27
                      A                      A                      A
 Frequencies --   1105.3211              1116.0502              1157.4348
 Red. masses --      2.6327                 2.1276                 1.8955
 Frc consts  --      1.8951                 1.5614                 1.4962
 IR Inten    --     17.4486                22.2493                20.1726

                     28                     29                     30
                      A                      A                      A
 Frequencies --   1224.4633              1258.9474              1285.0813
 Red. masses --      1.3139                 1.3288                 1.3488
 Frc consts  --      1.1607                 1.2409                 1.3123
 IR Inten    --     10.3784                 2.0638                 8.4066

                     31                     32                     33
                      A                      A                      A
 Frequencies --   1327.3092              1355.4081              1365.7457
 Red. masses --      1.2448                 1.3193                 1.3709
 Frc consts  --      1.2921                 1.4280                 1.5066
 IR Inten    --      3.2695                 2.6218                 3.9521

                     34                     35                     36
                      A                      A                      A
 Frequencies --   1417.6453              1419.9720              1432.9546
 Red. masses --      1.2117                 1.2320                 1.1992
 Frc consts  --      1.4348                 1.4636                 1.4508
 IR Inten    --     28.3501                34.9244                 3.6094

                     37                     38                     39
                      A                      A                      A
 Frequencies --   1493.7079              1498.6777              1506.9984
 Red. masses --      1.0577                 1.0389                 1.0701
 Frc consts  --      1.3905                 1.3748                 1.4318
 IR Inten    --      0.7215                 5.2105                 3.1159

                     40                     41                     42
                      A                      A                      A
 Frequencies --   1831.8346              2232.6373              2841.3760
 Red. masses --     10.3860                 5.8954                 1.0809
 Frc consts  --     20.5339                17.3141                 5.1418
 IR Inten    --    145.6143                 2.7701                93.2587

                     43                     44                     45
                      A                      A                      A
 Frequencies --   3014.1739              3026.7598              3038.7417
 Red. masses --      1.0689                 1.0820                 1.0359
 Frc consts  --      5.7218                 5.8402                 5.6356
 IR Inten    --     16.5748                10.4715                22.4519

                     46                     47                     48
                      A                      A                      A
 Frequencies --   3055.7670              3084.2846              3106.6328
 Red. masses --      1.0837                 1.0928                 1.1015
 Frc consts  --      5.9621                 6.1250                 6.2635
 IR Inten    --     24.1344                 1.6025                31.3554

                     49                     50                     51
                      A                      A                      A
 Frequencies --   3115.7811              3500.2670              3803.8826
 Red. masses --      1.1011                 1.1630                 1.0662
 Frc consts  --      6.2981                 8.3950                 9.0898
 IR Inten    --     23.5212                66.8949                29.2159

 - Thermochemistry -
 -------------------
 Temperature   298.150 Kelvin.  Pressure   1.00000 Atm.
 Atom     1 has atomic number  6 and mass  12.00000

 Molecular mass:   126.06808 amu.
 Principal axes and moments of inertia in atomic units:
                           1         2         3
     Eigenvalues --   842.747461489.092072182.76634
           X            0.99867  -0.05156  -0.00033
           Y            0.05156   0.99863   0.00858
           Z           -0.00011  -0.00858   0.99996
 This molecule is an asymmetric top.
 Rotational symmetry number  1.
 Warning -- assumption of classical behavior for rotation
           may cause significant error
 Rotational temperatures (Kelvin)      0.10278     0.05817     0.03968
 Rotational constants (GHZ):           2.14150     1.21197     0.82681
 Zero-point vibrational energy     406014.1 (Joules/Mol)
                                   97.03969 (Kcal/Mol)
 Warning -- explicit consideration of  15 degrees of freedom as
           vibrations may cause significant error
 Vibrational temperatures:     75.90    91.75   133.00   165.57   276.80
          (Kelvin)            297.48   347.44   372.22   431.50   486.99
                              544.08   597.30   695.03   837.59   847.12
                              919.82   985.51  1120.25  1259.46  1326.85
                             1392.43  1412.22  1492.57  1533.96  1590.31
                             1605.75  1665.29  1761.73  1811.34  1848.94
                             1909.70  1950.13  1965.00  2039.67  2043.02
                             2061.70  2149.11  2156.26  2168.23  2635.60
                             3212.26  4088.10  4336.72  4354.83  4372.07
                             4396.56  4437.59  4469.75  4482.91  5036.10
                             5472.93

 Zero-point correction=                           0.154643 (Hartree/Particle)
 Thermal correction to Energy=                    0.165421
 Thermal correction to Enthalpy=                  0.166366
 Thermal correction to Gibbs Free Energy=         0.118081
 Sum of electronic and zero-point Energies=           -422.995709
 Sum of electronic and thermal Energies=              -422.984930
 Sum of electronic and thermal Enthalpies=            -422.983986
 Sum of electronic and thermal Free Energies=         -423.032271

                     E (Thermal)             CV                S
                      KCal/Mol        Cal/Mol-Kelvin    Cal/Mol-Kelvin
 Total                  103.803             37.821            101.624
 Electronic               0.000              0.000              0.000
 Translational            0.889              2.981             40.409
 Rotational               0.889              2.981             29.395
 Vibrational            102.026             31.859             31.821
 Vibration     1          0.596              1.977              4.712
 Vibration     2          0.597              1.972              4.337
 Vibration     3          0.602              1.955              3.608
 Vibration     4          0.608              1.937              3.181
 Vibration     5          0.634              1.850              2.205
 Vibration     6          0.641              1.830              2.072
 Vibration     7          0.658              1.777              1.792
 Vibration     8          0.668              1.748              1.670
 Vibration     9          0.692              1.674              1.417
 Vibration    10          0.719              1.599              1.219
 Vibration    11          0.748              1.517              1.047
 Vibration    12          0.779              1.437              0.909
 Vibration    13          0.839              1.288              0.702
 Vibration    14          0.939              1.070              0.481
 Vibration    15          0.946              1.056              0.469

 Optimization completed.
    -- Stationary point found.
 Normal termination of Gaussian 09 at Tue Jan 28 09:04:31 2020.
