 Gaussian 09, Revision D.01,
 Gaussian 09:  ES64L-G09RevD.01 24-Apr-2013

 -----------------------------
 # b3lyp 6-31G(2df,p) opt Freq
 -----------------------------

 -----
 titel
 -----
 Symbolic Z-matrix:
 Charge =  0 Multiplicity = 1

 SCF Done:  E(RB3LYP) =  -423.199436961     A.U. after   14 cycles
 Optimization completed.
    -- Stationary point found.
 Normal termination of Gaussian 09 at Tue Jan 28 03:54:56 2020.

 ----------------------------------------------------------------------
 #N Geom=AllCheck Guess=TCheck SCRF=Check GenChk RB3LYP/6-31G(2df,p) Fr
 eq
 ----------------------------------------------------------------------

 Structure from the checkpoint file:  "/scratch/puck/g09_997e9430-aad1-4f03-b8bd-e2b209ba3700/Gau-116359.chk"
 -----
 titel
 -----
 Charge =  0 Multiplicity = 1

                         Standard orientation:
 ---------------------------------------------------------------------
 Center     Atomic      Atomic             Coordinates (Angstroms)
 Number     Number       Type             X           Y           Z
 ---------------------------------------------------------------------
      1          6           0        1.679555   -1.269741   -0.876860
      2          6           0        1.020930   -0.707268    0.390809
      3          6           0        1.580308    0.684203    0.797195
      4          6           0        0.768413    1.710948   -0.018089
      5          6           0       -0.598957    1.059505   -0.208531
      6          8           0       -1.619037    1.586604   -0.569427
      7          6           0       -0.455913   -0.408449    0.164767
      8          6           0       -1.579514   -1.078705    0.849483
      9          8           0       -1.290310   -1.341260   -0.516738
     10          1           0        1.623692   -0.562903   -1.712057
     11          1           0        2.735704   -1.490403   -0.694697
     12          1           0        1.178986   -2.188897   -1.191120
     13          1           0        1.154206   -1.427877    1.203261
     14          1           0        1.413882    0.850665    1.866889
     15          1           0        2.656328    0.757749    0.621125
     16          1           0        0.677197    2.696101    0.444550
     17          1           0        1.201212    1.866385   -1.014519
     18          1           0       -1.359585   -1.887759    1.545283
     19          1           0       -2.495771   -0.518773    1.027968
 ---------------------------------------------------------------------

 SCF Done:  E(RB3LYP) =  -423.199436961     A.U. after    1 cycles

 The electronic state is 1-A.
 Alpha  occ. eigenvalues --  -19.16367 -19.13373 -10.26863 -10.24483 -10.24401
 Alpha  occ. eigenvalues --  -10.20286 -10.19787 -10.19637 -10.18237  -1.08674
 Alpha  occ. eigenvalues --   -1.04067  -0.84529  -0.74740  -0.69539  -0.66861
 Alpha  occ. eigenvalues --   -0.65328  -0.58172  -0.53534  -0.49370  -0.48997
 Alpha  occ. eigenvalues --   -0.46826  -0.45435  -0.42187  -0.41535  -0.40569
 Alpha  occ. eigenvalues --   -0.40194  -0.38266  -0.37849  -0.35921  -0.33920
 Alpha  occ. eigenvalues --   -0.33678  -0.30358  -0.28736  -0.23805
 Alpha virt. eigenvalues --   -0.03232   0.07649   0.09713   0.10862   0.11722
 Alpha virt. eigenvalues --    0.12402   0.13328   0.15433   0.16350   0.17423
 Alpha virt. eigenvalues --    0.17895   0.18472   0.19100   0.19984   0.21584

 Mulliken charges:
               1
     1  C   -0.391441
     2  C   -0.113008
     3  C   -0.237060
     4  C   -0.332463
     5  C    0.349039
     6  O   -0.315443
     7  C    0.358865
     8  C   -0.236389
     9  O   -0.271859
    10  H    0.118632
    11  H    0.115119
    12  H    0.137942
    13  H    0.078745
    14  H    0.108275
    15  H    0.107546
    16  H    0.131080
    17  H    0.139331
    18  H    0.118327
    19  H    0.134764
 Sum of Mulliken charges =   0.00000

 Dipole moment (field-independent basis, Debye):
    X=              2.7883    Y=             -0.5033    Z=              2.1890  Tot=              3.5804
 Quadrupole moment (field-independent basis, Debye-Ang):
   XX=            -55.4426   YY=            -55.0652   ZZ=            -52.1778
   XY=              3.3506   XZ=             -4.3719   YZ=             -1.0037

  Exact polarizability:  82.768   1.885  78.119  -2.595  -3.441  64.433
 Approx polarizability: 117.908   0.847 110.987   0.150  -5.241 100.979

                      1                      2                      3
                      A                      A                      A
 Frequencies --     61.4328               157.8105               200.2833
 Red. masses --      4.1618                 2.2705                 2.5932
 Frc consts  --      0.0093                 0.0333                 0.0613
 IR Inten    --      1.7545                 1.8798                 1.7402

                      4                      5                      6
                      A                      A                      A
 Frequencies --    228.4670               259.8392               268.4433
 Red. masses --      1.1376                 2.8595                 5.6135
 Frc consts  --      0.0350                 0.1138                 0.2383
 IR Inten    --      0.7616                 2.7174                 3.5036

                      7                      8                      9
                      A                      A                      A
 Frequencies --    322.8107               459.8488               469.4683
 Red. masses --      2.5336                 3.0384                 3.8844
 Frc consts  --      0.1556                 0.3785                 0.5044
 IR Inten    --      1.0113                 3.6868                 0.1005

                     10                     11                     12
                      A                      A                      A
 Frequencies --    548.1085               577.8314               650.1955
 Red. masses --      2.3794                 4.1560                 4.7210
 Frc consts  --      0.4212                 0.8176                 1.1759
 IR Inten    --      3.7971                 4.3893                 3.8110

                     13                     14                     15
                      A                      A                      A
 Frequencies --    698.1557               790.0391               845.5585
 Red. masses --      3.0314                 2.0156                 1.7124
 Frc consts  --      0.8706                 0.7412                 0.7213
 IR Inten    --     11.4609                 4.4844                 0.5512

                     16                     17                     18
                      A                      A                      A
 Frequencies --    879.0215               893.9986               941.8974
 Red. masses --      2.8343                 4.6030                 2.3416
 Frc consts  --      1.2903                 2.1675                 1.2239
 IR Inten    --     10.7492                20.2849                10.3038

                     19                     20                     21
                      A                      A                      A
 Frequencies --    968.5693               982.7712              1035.1863
 Red. masses --      1.7285                 2.1723                 1.5045
 Frc consts  --      0.9554                 1.2361                 0.9499
 IR Inten    --      5.2693                 3.1137                 3.0361

                     22                     23                     24
                      A                      A                      A
 Frequencies --   1054.2374              1076.0519              1113.7097
 Red. masses --      2.3277                 1.7524                 1.9259
 Frc consts  --      1.5243                 1.1955                 1.4074
 IR Inten    --     43.5388                 6.0163                15.4988

                     25                     26                     27
                      A                      A                      A
 Frequencies --   1135.4435              1172.4456              1193.0981
 Red. masses --      1.3017                 1.3697                 1.6017
 Frc consts  --      0.9887                 1.1093                 1.3433
 IR Inten    --      3.5016                 2.6517                 2.4429

                     28                     29                     30
                      A                      A                      A
 Frequencies --   1197.7410              1250.4968              1286.6712
 Red. masses --      1.7562                 2.8830                 1.3675
 Frc consts  --      1.4844                 2.6562                 1.3339
 IR Inten    --      8.2935                21.6805                 3.2689

                     31                     32                     33
                      A                      A                      A
 Frequencies --   1298.6762              1331.6707              1355.7093
 Red. masses --      1.4955                 1.6105                 1.3706
 Frc consts  --      1.4861                 1.6827                 1.4843
 IR Inten    --      0.6215                 1.1963                 4.5257

                     34                     35                     36
                      A                      A                      A
 Frequencies --   1403.8221              1416.6712              1449.9287
 Red. masses --      1.6037                 1.7375                 1.0861
 Frc consts  --      1.8620                 2.0546                 1.3453
 IR Inten    --     10.7339                 8.1731                 7.3071

                     37                     38                     39
                      A                      A                      A
 Frequencies --   1493.2154              1500.6558              1502.0984
 Red. masses --      1.0576                 1.0825                 1.0639
 Frc consts  --      1.3894                 1.4363                 1.4143
 IR Inten    --      5.2202                 0.9175                 2.2643

                     40                     41                     42
                      A                      A                      A
 Frequencies --   1511.3392              1847.0552              3035.9879
 Red. masses --      1.3106                12.6894                 1.0496
 Frc consts  --      1.7638                25.5065                 5.7000
 IR Inten    --      7.4014               160.6222                10.5176

                     43                     44                     45
                      A                      A                      A
 Frequencies --   3040.8172              3045.3547              3058.4985
 Red. masses --      1.0558                 1.0677                 1.0794
 Frc consts  --      5.7520                 5.8342                 5.9488
 IR Inten    --     12.5850                14.2719                27.2850

                     46                     47                     48
                      A                      A                      A
 Frequencies --   3081.8173              3098.5518              3104.1345
 Red. masses --      1.0494                 1.0995                 1.1002
 Frc consts  --      5.8722                 6.2196                 6.2461
 IR Inten    --     25.8368                17.9762                37.7440

                     49                     50                     51
                      A                      A                      A
 Frequencies --   3111.8644              3124.5071              3180.0855
 Red. masses --      1.0970                 1.1012                 1.1201
 Frc consts  --      6.2591                 6.3341                 6.6742
 IR Inten    --     12.8150                14.6229                12.4121

 - Thermochemistry -
 -------------------
 Temperature   298.150 Kelvin.  Pressure   1.00000 Atm.
 Atom     1 has atomic number  6 and mass  12.00000

 Molecular mass:   126.06808 amu.
 Principal axes and moments of inertia in atomic units:
                           1         2         3
     Eigenvalues --   865.06550 974.520811465.65899
           X            0.99767   0.05897  -0.03443
           Y           -0.05883   0.99826   0.00510
           Z            0.03467  -0.00306   0.99939
 This molecule is an asymmetric top.
 Rotational symmetry number  1.
 Warning -- assumption of classical behavior for rotation
           may cause significant error
 Rotational temperatures (Kelvin)      0.10012     0.08888     0.05910
 Rotational constants (GHZ):           2.08625     1.85193     1.23135
 Zero-point vibrational energy     416970.9 (Joules/Mol)
                                   99.65844 (Kcal/Mol)
 Warning -- explicit consideration of  11 degrees of freedom as
           vibrations may cause significant error
 Vibrational temperatures:     88.39   227.05   288.16   328.71   373.85
          (Kelvin)            386.23   464.45   661.62   675.46   788.60
                              831.37   935.49  1004.49  1136.69  1216.57
                             1264.71  1286.26  1355.18  1393.55  1413.99
                             1489.40  1516.81  1548.20  1602.38  1633.65
                             1686.89  1716.60  1723.28  1799.18  1851.23
                             1868.50  1915.97  1950.56  2019.78  2038.27
                             2086.12  2148.40  2159.11  2161.18  2174.48
                             2657.50  4368.10  4375.05  4381.58  4400.49
                             4434.04  4458.12  4466.15  4477.27  4495.46
                             4575.43

 Zero-point correction=                           0.158816 (Hartree/Particle)
 Thermal correction to Energy=                    0.167280
 Thermal correction to Enthalpy=                  0.168224
 Thermal correction to Gibbs Free Energy=         0.125691
 Sum of electronic and zero-point Energies=           -423.040621
 Sum of electronic and thermal Energies=              -423.032157
 Sum of electronic and thermal Enthalpies=            -423.031213
 Sum of electronic and thermal Free Energies=         -423.073746

                     E (Thermal)             CV                S
                      KCal/Mol        Cal/Mol-Kelvin    Cal/Mol-Kelvin
 Total                  104.970             32.220             89.518
 Electronic               0.000              0.000              0.000
 Translational            0.889              2.981             40.409
 Rotational               0.889              2.981             28.604
 Vibrational            103.192             26.259             20.506
 Vibration     1          0.597              1.973              4.411
 Vibration     2          0.621              1.894              2.576
 Vibration     3          0.638              1.839              2.130
 Vibration     4          0.651              1.798              1.891
 Vibration     5          0.668              1.746              1.663
 Vibration     6          0.673              1.731              1.606
 Vibration     7          0.708              1.630              1.296
 Vibration     8          0.818              1.339              0.767
 Vibration     9          0.827              1.318              0.739
 Vibration    10          0.903              1.144              0.548
 Vibration    11          0.934              1.079              0.489

 Optimization completed.
    -- Stationary point found.
 Normal termination of Gaussian 09 at Tue Jan 28 04:36:49 2020.
