 Gaussian 09, Revision D.01,
 Gaussian 09:  ES64L-G09RevD.01 24-Apr-2013

 -----------------------------
 # b3lyp 6-31G(2df,p) opt Freq
 -----------------------------

 -----
 titel
 -----
 Symbolic Z-matrix:
 Charge =  0 Multiplicity = 1

 SCF Done:  E(RB3LYP) =  -423.098740188     A.U. after   14 cycles
 Optimization completed.
    -- Stationary point found.
 Normal termination of Gaussian 09 at Mon Jan 27 23:03:44 2020.

 ----------------------------------------------------------------------
 #N Geom=AllCheck Guess=TCheck SCRF=Check GenChk RB3LYP/6-31G(2df,p) Fr
 eq
 ----------------------------------------------------------------------

 Structure from the checkpoint file:  "/scratch/puck/g09_765ed255-d14a-471e-9fa2-36a544c0d608/Gau-29550.chk"
 -----
 titel
 -----
 Charge =  0 Multiplicity = 1

                         Standard orientation:
 ---------------------------------------------------------------------
 Center     Atomic      Atomic             Coordinates (Angstroms)
 Number     Number       Type             X           Y           Z
 ---------------------------------------------------------------------
      1          8           0        1.018504    1.933499   -0.088376
      2          6           0        1.619995    0.667044    0.014119
      3          6           0        1.096364   -0.443167   -0.931007
      4          6           0        1.803834   -1.436869    0.039011
      5          6           0        1.046972   -0.437085    0.961977
      6          6           0       -0.166766   -0.611010   -0.015738
      7          6           0       -1.346877    0.322034   -0.055584
      8          6           0       -2.583200   -0.039874    0.654743
      9          8           0       -2.490092   -0.200979   -0.757013
     10          1           0        1.355147    2.483907    0.625393
     11          1           0        2.713923    0.764069    0.042879
     12          1           0        1.128906   -0.447559   -2.020815
     13          1           0        1.430247   -2.461715    0.031930
     14          1           0        2.896011   -1.405313    0.066489
     15          1           0        1.024393   -0.436013    2.053514
     16          1           0       -0.563918   -1.632644   -0.025061
     17          1           0       -1.154449    1.371192   -0.244340
     18          1           0       -2.620526   -0.965418    1.229864
     19          1           0       -3.258962    0.742880    0.998139
 ---------------------------------------------------------------------

 SCF Done:  E(RB3LYP) =  -423.098740188     A.U. after    1 cycles

 The electronic state is 1-A.
 Alpha  occ. eigenvalues --  -19.14664 -19.13784 -10.24143 -10.22330 -10.22170
 Alpha  occ. eigenvalues --  -10.20232 -10.20178 -10.19494 -10.19319  -1.05677
 Alpha  occ. eigenvalues --   -1.03226  -0.90901  -0.71078  -0.65882  -0.64898
 Alpha  occ. eigenvalues --   -0.63030  -0.59684  -0.54786  -0.52237  -0.50032
 Alpha  occ. eigenvalues --   -0.47317  -0.47115  -0.41699  -0.40932  -0.38837
 Alpha  occ. eigenvalues --   -0.36442  -0.35123  -0.34727  -0.33062  -0.31973
 Alpha  occ. eigenvalues --   -0.30425  -0.28008  -0.26692  -0.25326
 Alpha virt. eigenvalues --    0.07238   0.09578   0.10858   0.12045   0.12837
 Alpha virt. eigenvalues --    0.13497   0.14457   0.14677   0.15596   0.15783
 Alpha virt. eigenvalues --    0.17034   0.17688   0.19956   0.20520   0.21327

 Mulliken charges:
               1
     1  O   -0.432897
     2  C    0.155095
     3  C   -0.098982
     4  C   -0.230469
     5  C   -0.128276
     6  C    0.051257
     7  C    0.011998
     8  C   -0.182544
     9  O   -0.239579
    10  H    0.285813
    11  H    0.066248
    12  H    0.080971
    13  H    0.102555
    14  H    0.092077
    15  H    0.068319
    16  H    0.070561
    17  H    0.115325
    18  H    0.103496
    19  H    0.109031
 Sum of Mulliken charges =   0.00000

 Dipole moment (field-independent basis, Debye):
    X=              2.1151    Y=              0.4014    Z=              2.4449  Tot=              3.2576
 Quadrupole moment (field-independent basis, Debye-Ang):
   XX=            -53.8896   YY=            -50.6305   ZZ=            -53.1980
   XY=              0.5609   XZ=             -3.0496   YZ=              2.5606

  Exact polarizability:  89.635  -1.392  74.097  -3.796   0.404  65.790
 Approx polarizability: 117.651   1.094 108.809  -1.941   0.584 106.775

                      1                      2                      3
                      A                      A                      A
 Frequencies --     58.0301               158.9294               195.2788
 Red. masses --      3.3374                 3.1777                 5.0519
 Frc consts  --      0.0066                 0.0473                 0.1135
 IR Inten    --      1.0962                 1.1121                 1.8512

                      4                      5                      6
                      A                      A                      A
 Frequencies --    261.9637               297.3480               343.0848
 Red. masses --      1.0663                 4.3415                 3.3276
 Frc consts  --      0.0431                 0.2262                 0.2308
 IR Inten    --     98.8566                 8.4853                 7.8313

                      7                      8                      9
                      A                      A                      A
 Frequencies --    374.5798               478.0965               528.7383
 Red. masses --      6.2428                 3.4444                 2.3511
 Frc consts  --      0.5161                 0.4639                 0.3873
 IR Inten    --      6.7758                 1.4944                 3.8702

                     10                     11                     12
                      A                      A                      A
 Frequencies --    628.0838               752.4422               828.0140
 Red. masses --      4.6326                 3.0771                 2.9998
 Frc consts  --      1.0767                 1.0264                 1.2117
 IR Inten    --      4.7805                 0.1768                 7.1399

                     13                     14                     15
                      A                      A                      A
 Frequencies --    840.2054               855.8158               891.7862
 Red. masses --      3.0493                 2.6448                 2.1764
 Frc consts  --      1.2683                 1.1413                 1.0198
 IR Inten    --     18.9014                 1.7660                 1.0114

                     16                     17                     18
                      A                      A                      A
 Frequencies --    895.1295               899.3062               931.3231
 Red. masses --      2.0076                 2.5007                 3.1003
 Frc consts  --      0.9478                 1.1916                 1.5844
 IR Inten    --      5.9819                24.5438                15.5543

                     19                     20                     21
                      A                      A                      A
 Frequencies --    998.2948              1025.4104              1034.9033
 Red. masses --      2.1060                 1.0205                 1.5467
 Frc consts  --      1.2366                 0.6322                 0.9760
 IR Inten    --      7.3396                 0.5728                19.3055

                     22                     23                     24
                      A                      A                      A
 Frequencies --   1076.5569              1084.1665              1104.1810
 Red. masses --      1.3029                 1.3924                 2.7530
 Frc consts  --      0.8897                 0.9643                 1.9776
 IR Inten    --      0.5931                 4.3905                 3.6716

                     25                     26                     27
                      A                      A                      A
 Frequencies --   1110.1592              1150.9538              1160.4105
 Red. masses --      1.4237                 1.4554                 1.3198
 Frc consts  --      1.0338                 1.1359                 1.0471
 IR Inten    --      0.1417                 1.3833                 0.3734

                     28                     29                     30
                      A                      A                      A
 Frequencies --   1166.0114              1177.9852              1192.2672
 Red. masses --      3.2030                 1.6162                 1.9785
 Frc consts  --      2.5658                 1.3213                 1.6571
 IR Inten    --     87.3581                 4.3574                 4.0650

                     31                     32                     33
                      A                      A                      A
 Frequencies --   1212.4828              1225.9907              1233.1263
 Red. masses --      1.3984                 1.4828                 1.8370
 Frc consts  --      1.2112                 1.3131                 1.6458
 IR Inten    --     14.3973                18.0636                 5.9105

                     34                     35                     36
                      A                      A                      A
 Frequencies --   1269.0075              1285.7535              1319.5422
 Red. masses --      1.7256                 1.5807                 1.4106
 Frc consts  --      1.6373                 1.5396                 1.4471
 IR Inten    --     26.7205                17.6292                 8.6664

                     37                     38                     39
                      A                      A                      A
 Frequencies --   1342.0039              1453.0463              1463.8359
 Red. masses --      1.4779                 1.3370                 1.4143
 Frc consts  --      1.5682                 1.6631                 1.7855
 IR Inten    --     21.8815                 6.5513                 1.0860

                     40                     41                     42
                      A                      A                      A
 Frequencies --   1520.7528              1528.5941              3005.7196
 Red. masses --      1.1459                 1.3191                 1.0839
 Frc consts  --      1.5613                 1.8160                 5.7694
 IR Inten    --      1.4214                 2.5759                75.2186

                     43                     44                     45
                      A                      A                      A
 Frequencies --   3040.1128              3062.1289              3072.9796
 Red. masses --      1.0836                 1.0560                 1.0501
 Frc consts  --      5.9007                 5.8337                 5.8428
 IR Inten    --     23.6014                49.6706                29.9852

                     46                     47                     48
                      A                      A                      A
 Frequencies --   3094.4762              3114.5148              3133.7350
 Red. masses --      1.0909                 1.0928                 1.1093
 Frc consts  --      6.1546                 6.2458                 6.4185
 IR Inten    --     69.4601                35.2256                31.9228

                     49                     50                     51
                      A                      A                      A
 Frequencies --   3155.5301              3198.7403              3822.7533
 Red. masses --      1.1184                 1.0895                 1.0662
 Frc consts  --      6.5611                 6.5677                 9.1800
 IR Inten    --     24.6264                10.4218                31.9295

 - Thermochemistry -
 -------------------
 Temperature   298.150 Kelvin.  Pressure   1.00000 Atm.
 Atom     1 has atomic number  8 and mass  15.99491

 Molecular mass:   126.06808 amu.
 Principal axes and moments of inertia in atomic units:
                           1         2         3
     Eigenvalues --   605.130341445.438991713.38302
           X            0.99975  -0.01536  -0.01636
           Y            0.01551   0.99984   0.00926
           Z            0.01622  -0.00951   0.99982
 This molecule is an asymmetric top.
 Rotational symmetry number  1.
 Warning -- assumption of classical behavior for rotation
           may cause significant error
 Rotational temperatures (Kelvin)      0.14313     0.05992     0.05055
 Rotational constants (GHZ):           2.98240     1.24858     1.05332
 Zero-point vibrational energy     419017.7 (Joules/Mol)
                                  100.14762 (Kcal/Mol)
 Warning -- explicit consideration of   9 degrees of freedom as
           vibrations may cause significant error
 Vibrational temperatures:     83.49   228.66   280.96   376.91   427.82
          (Kelvin)            493.62   538.94   687.87   760.74   903.67
                             1082.60  1191.33  1208.87  1231.33  1283.08
                             1287.89  1293.90  1339.96  1436.32  1475.34
                             1488.99  1548.92  1559.87  1588.67  1597.27
                             1655.96  1669.57  1677.63  1694.86  1715.40
                             1744.49  1763.92  1774.19  1825.82  1849.91
                             1898.52  1930.84  2090.61  2106.13  2188.02
                             2199.30  4324.55  4374.04  4405.72  4421.33
                             4452.26  4481.09  4508.74  4540.10  4602.27
                             5500.08

 Zero-point correction=                           0.159595 (Hartree/Particle)
 Thermal correction to Energy=                    0.167548
 Thermal correction to Enthalpy=                  0.168492
 Thermal correction to Gibbs Free Energy=         0.126745
 Sum of electronic and zero-point Energies=           -422.939145
 Sum of electronic and thermal Energies=              -422.931193
 Sum of electronic and thermal Enthalpies=            -422.930248
 Sum of electronic and thermal Free Energies=         -422.971996

                     E (Thermal)             CV                S
                      KCal/Mol        Cal/Mol-Kelvin    Cal/Mol-Kelvin
 Total                  105.138             30.942             87.865
 Electronic               0.000              0.000              0.000
 Translational            0.889              2.981             40.409
 Rotational               0.889              2.981             28.796
 Vibrational            103.360             24.981             18.660
 Vibration     1          0.596              1.974              4.523
 Vibration     2          0.621              1.893              2.562
 Vibration     3          0.636              1.846              2.177
 Vibration     4          0.669              1.742              1.649
 Vibration     5          0.691              1.679              1.432
 Vibration     6          0.722              1.589              1.198
 Vibration     7          0.746              1.524              1.061
 Vibration     8          0.835              1.299              0.715
 Vibration     9          0.884              1.186              0.590

 Optimization completed.
    -- Stationary point found.
 Normal termination of Gaussian 09 at Mon Jan 27 23:48:41 2020.
