 Gaussian 09, Revision D.01,
 Gaussian 09:  ES64L-G09RevD.01 24-Apr-2013

 -----------------------------
 # b3lyp 6-31G(2df,p) opt Freq
 -----------------------------

 -----
 titel
 -----
 Symbolic Z-matrix:
 Charge =  0 Multiplicity = 1

 SCF Done:  E(RB3LYP) =  -423.173199208     A.U. after   14 cycles
 Optimization completed.
    -- Stationary point found.
 Normal termination of Gaussian 09 at Tue Jan 28 13:29:17 2020.

 ----------------------------------------------------------------------
 #N Geom=AllCheck Guess=TCheck SCRF=Check GenChk RB3LYP/6-31G(2df,p) Fr
 eq
 ----------------------------------------------------------------------

 Structure from the checkpoint file:  "/scratch/puck/g09_acabae3d-fa5d-4461-822f-b3a0f5085d31/Gau-31140.chk"
 -----
 titel
 -----
 Charge =  0 Multiplicity = 1

                         Standard orientation:
 ---------------------------------------------------------------------
 Center     Atomic      Atomic             Coordinates (Angstroms)
 Number     Number       Type             X           Y           Z
 ---------------------------------------------------------------------
      1          8           0        2.561298   -1.121408    0.762755
      2          6           0        2.290573   -0.120249   -0.206045
      3          6           0        1.127499    0.752124    0.212528
      4          8           0        0.461154    1.489533   -0.815490
      5          6           0       -0.275373    0.452229   -0.142529
      6          6           0       -1.473675    0.871500    0.719550
      7          6           0       -2.488204   -0.296768    0.604067
      8          6           0       -1.927733   -1.148016   -0.510696
      9          6           0       -0.724361   -0.739358   -0.914074
     10          1           0        1.781507   -1.683758    0.820991
     11          1           0        3.201431    0.483377   -0.278154
     12          1           0        2.098681   -0.540636   -1.203155
     13          1           0        1.292954    1.309508    1.137346
     14          1           0       -1.189707    1.084549    1.752705
     15          1           0       -1.888564    1.791941    0.298385
     16          1           0       -2.553995   -0.872200    1.536633
     17          1           0       -3.506219    0.046786    0.388442
     18          1           0       -2.460105   -2.004188   -0.910214
     19          1           0       -0.127953   -1.189155   -1.697910
 ---------------------------------------------------------------------

 SCF Done:  E(RB3LYP) =  -423.173199208     A.U. after    1 cycles

 The electronic state is 1-A.
 Alpha  occ. eigenvalues --  -19.14795 -19.13945 -10.24324 -10.23189 -10.23007
 Alpha  occ. eigenvalues --  -10.19497 -10.19472 -10.18872 -10.18808  -1.06804
 Alpha  occ. eigenvalues --   -1.01920  -0.84413  -0.72587  -0.71978  -0.69097
 Alpha  occ. eigenvalues --   -0.61402  -0.57818  -0.53911  -0.51361  -0.50652
 Alpha  occ. eigenvalues --   -0.46628  -0.44639  -0.44304  -0.42756  -0.39675
 Alpha  occ. eigenvalues --   -0.37623  -0.36354  -0.36124  -0.35319  -0.33632
 Alpha  occ. eigenvalues --   -0.31837  -0.28120  -0.26001  -0.24393
 Alpha virt. eigenvalues --    0.00215   0.06627   0.09395   0.10285   0.11672
 Alpha virt. eigenvalues --    0.12523   0.13758   0.14486   0.15842   0.17092
 Alpha virt. eigenvalues --    0.18044   0.18962   0.19808   0.21468   0.23225

 Mulliken charges:
               1
     1  O   -0.414310
     2  C   -0.102438
     3  C   -0.055862
     4  O   -0.303118
     5  C    0.419827
     6  C   -0.309559
     7  C   -0.269470
     8  C   -0.068959
     9  C   -0.161111
    10  H    0.286195
    11  H    0.118208
    12  H    0.096587
    13  H    0.091209
    14  H    0.109488
    15  H    0.127215
    16  H    0.113830
    17  H    0.113687
    18  H    0.102121
    19  H    0.106460
 Sum of Mulliken charges =   0.00000

 Dipole moment (field-independent basis, Debye):
    X=             -1.9101    Y=             -1.2449    Z=              0.5853  Tot=              2.3539
 Quadrupole moment (field-independent basis, Debye-Ang):
   XX=            -54.6008   YY=            -53.7266   ZZ=            -53.9214
   XY=              2.6629   XZ=             -2.6640   YZ=              3.4318

  Exact polarizability:  98.464   8.710  69.811  -4.725   4.275  65.015
 Approx polarizability: 137.052  16.494 105.744  -6.961  -0.548 101.145

                      1                      2                      3
                      A                      A                      A
 Frequencies --     40.9547                69.5860               133.7111
 Red. masses --      3.2965                 2.6166                 3.2940
 Frc consts  --      0.0033                 0.0075                 0.0347
 IR Inten    --      0.8108                 1.7777                 0.2285

                      4                      5                      6
                      A                      A                      A
 Frequencies --    202.9017               287.6561               340.5814
 Red. masses --      2.3722                 2.2547                 1.6330
 Frc consts  --      0.0575                 0.1099                 0.1116
 IR Inten    --      1.8183                 9.4364                32.1158

                      7                      8                      9
                      A                      A                      A
 Frequencies --    371.3920               413.1516               490.9116
 Red. masses --      2.1949                 3.1362                 6.9467
 Frc consts  --      0.1784                 0.3154                 0.9864
 IR Inten    --     71.8559                 4.9948                 2.1444

                     10                     11                     12
                      A                      A                      A
 Frequencies --    521.7586               552.3280               712.7397
 Red. masses --      3.1654                 2.6543                 2.2078
 Frc consts  --      0.5077                 0.4771                 0.6608
 IR Inten    --      7.8273                 2.3901                 6.7650

                     13                     14                     15
                      A                      A                      A
 Frequencies --    758.4297               788.8576               825.7336
 Red. masses --      3.0250                 1.7936                 5.2336
 Frc consts  --      1.0252                 0.6576                 2.1025
 IR Inten    --      7.2768                29.6118                 9.9642

                     16                     17                     18
                      A                      A                      A
 Frequencies --    853.7401               923.0768               947.2687
 Red. masses --      1.5367                 2.5700                 1.8254
 Frc consts  --      0.6599                 1.2902                 0.9651
 IR Inten    --      1.6755                 4.4432                 3.8429

                     19                     20                     21
                      A                      A                      A
 Frequencies --    972.9751               975.7044              1002.3246
 Red. masses --      1.5158                 1.9559                 2.6498
 Frc consts  --      0.8454                 1.0970                 1.5685
 IR Inten    --      6.7787                17.3921                10.4918

                     22                     23                     24
                      A                      A                      A
 Frequencies --   1056.3444              1066.6159              1092.1223
 Red. masses --      2.3139                 3.6126                 1.8955
 Frc consts  --      1.5213                 2.4215                 1.3321
 IR Inten    --      7.7920               105.4343                10.9973

                     25                     26                     27
                      A                      A                      A
 Frequencies --   1101.8863              1136.0600              1172.7290
 Red. masses --      1.8920                 1.2620                 1.2167
 Frc consts  --      1.3535                 0.9597                 0.9859
 IR Inten    --      6.2144                 1.2935                 0.8686

                     28                     29                     30
                      A                      A                      A
 Frequencies --   1207.4814              1225.0566              1242.4193
 Red. masses --      1.3734                 1.8787                 1.2535
 Frc consts  --      1.1798                 1.6612                 1.1400
 IR Inten    --     17.1598                 3.3660                 2.3893

                     31                     32                     33
                      A                      A                      A
 Frequencies --   1279.5351              1305.7774              1327.9804
 Red. masses --      1.3306                 1.4383                 1.6502
 Frc consts  --      1.2835                 1.4449                 1.7146
 IR Inten    --      1.2995                10.6343                 0.4942

                     34                     35                     36
                      A                      A                      A
 Frequencies --   1359.5114              1393.9349              1419.4170
 Red. masses --      1.3705                 1.5525                 1.2796
 Frc consts  --      1.4924                 1.7774                 1.5189
 IR Inten    --      0.9663                14.1803                49.3246

                     37                     38                     39
                      A                      A                      A
 Frequencies --   1477.3707              1478.4182              1497.5534
 Red. masses --      1.2905                 2.2358                 1.1303
 Frc consts  --      1.6595                 2.8792                 1.4936
 IR Inten    --      0.1225                 4.8096                 2.7638

                     40                     41                     42
                      A                      A                      A
 Frequencies --   1508.1772              1676.9922              3010.0867
 Red. masses --      1.0854                 6.3689                 1.0661
 Frc consts  --      1.4546                10.5529                 5.6911
 IR Inten    --      2.4738                 3.8165                37.1342

                     43                     44                     45
                      A                      A                      A
 Frequencies --   3023.8290              3054.6387              3065.9324
 Red. masses --      1.0647                 1.0931                 1.0650
 Frc consts  --      5.7358                 6.0094                 5.8981
 IR Inten    --     35.1486                13.9866                21.3668

                     46                     47                     48
                      A                      A                      A
 Frequencies --   3072.5110              3089.9675              3109.0226
 Red. masses --      1.0920                 1.0920                 1.1045
 Frc consts  --      6.0736                 6.1432                 6.2900
 IR Inten    --     18.8340                42.8940                20.9744

                     49                     50                     51
                      A                      A                      A
 Frequencies --   3190.7352              3220.7664              3808.1648
 Red. masses --      1.0868                 1.1023                 1.0662
 Frc consts  --      6.5187                 6.7368                 9.1097
 IR Inten    --      6.5527                10.7441                11.9592

 - Thermochemistry -
 -------------------
 Temperature   298.150 Kelvin.  Pressure   1.00000 Atm.
 Atom     1 has atomic number  8 and mass  15.99491

 Molecular mass:   126.06808 amu.
 Principal axes and moments of inertia in atomic units:
                           1         2         3
     Eigenvalues --   611.166651591.912441793.87002
           X            0.99982   0.00789  -0.01743
           Y           -0.00616   0.99524   0.09724
           Z            0.01811  -0.09711   0.99511
 This molecule is an asymmetric top.
 Rotational symmetry number  1.
 Warning -- assumption of classical behavior for rotation
           may cause significant error
 Rotational temperatures (Kelvin)      0.14172     0.05441     0.04828
 Rotational constants (GHZ):           2.95294     1.13369     1.00606
 Zero-point vibrational energy     417836.6 (Joules/Mol)
                                   99.86534 (Kcal/Mol)
 Warning -- explicit consideration of  11 degrees of freedom as
           vibrations may cause significant error
 Vibrational temperatures:     58.92   100.12   192.38   291.93   413.87
          (Kelvin)            490.02   534.35   594.43   706.31   750.69
                              794.68  1025.47  1091.21  1134.99  1188.04
                             1228.34  1328.10  1362.91  1399.89  1403.82
                             1442.12  1519.84  1534.62  1571.32  1585.37
                             1634.53  1687.29  1737.29  1762.58  1787.56
                             1840.96  1878.72  1910.67  1956.03  2005.56
                             2042.22  2125.60  2127.11  2154.64  2169.93
                             2412.81  4330.84  4350.61  4394.94  4411.19
                             4420.65  4445.77  4473.18  4590.75  4633.96
                             5479.09

 Zero-point correction=                           0.159146 (Hartree/Particle)
 Thermal correction to Energy=                    0.167827
 Thermal correction to Enthalpy=                  0.168771
 Thermal correction to Gibbs Free Energy=         0.124788
 Sum of electronic and zero-point Energies=           -423.014054
 Sum of electronic and thermal Energies=              -423.005372
 Sum of electronic and thermal Enthalpies=            -423.004428
 Sum of electronic and thermal Free Energies=         -423.048411

                     E (Thermal)             CV                S
                      KCal/Mol        Cal/Mol-Kelvin    Cal/Mol-Kelvin
 Total                  105.313             32.358             92.571
 Electronic               0.000              0.000              0.000
 Translational            0.889              2.981             40.409
 Rotational               0.889              2.981             28.947
 Vibrational            103.536             26.396             23.215
 Vibration     1          0.594              1.981              5.212
 Vibration     2          0.598              1.969              4.165
 Vibration     3          0.613              1.920              2.892
 Vibration     4          0.639              1.836              2.107
 Vibration     5          0.685              1.697              1.488
 Vibration     6          0.720              1.594              1.209
 Vibration     7          0.743              1.531              1.074
 Vibration     8          0.777              1.442              0.916
 Vibration     9          0.847              1.270              0.681
 Vibration    10          0.877              1.202              0.606
 Vibration    11          0.908              1.135              0.539

 Normal termination of Gaussian 09 at Tue Jan 28 14:10:16 2020.
