 Gaussian 09, Revision D.01,
 Gaussian 09:  ES64L-G09RevD.01 24-Apr-2013

 -----------------------------
 # b3lyp 6-31G(2df,p) opt Freq
 -----------------------------

 -----
 titel
 -----
 Symbolic Z-matrix:
 Charge =  0 Multiplicity = 1

 SCF Done:  E(RB3LYP) =  -423.166309577     A.U. after   13 cycles
 Optimization completed.
    -- Stationary point found.
 Normal termination of Gaussian 09 at Tue Jan 28 13:59:51 2020.

 ----------------------------------------------------------------------
 #N Geom=AllCheck Guess=TCheck SCRF=Check GenChk RB3LYP/6-31G(2df,p) Fr
 eq
 ----------------------------------------------------------------------

 Structure from the checkpoint file:  "/scratch/puck/g09_27c6246b-ef25-4619-bb6b-2557ae487075/Gau-9655.chk"
 -----
 titel
 -----
 Charge =  0 Multiplicity = 1

                         Standard orientation:
 ---------------------------------------------------------------------
 Center     Atomic      Atomic             Coordinates (Angstroms)
 Number     Number       Type             X           Y           Z
 ---------------------------------------------------------------------
      1          8           0       -2.930352    0.770544   -0.043505
      2          6           0       -2.271003   -0.486837   -0.104520
      3          6           0       -0.782211   -0.378108   -0.346221
      4          6           0        0.166017   -1.358264    0.327682
      5          6           0        1.499129   -1.491341   -0.337449
      6          6           0        2.184025   -0.347561   -0.293003
      7          6           0        1.438818    0.741699    0.465971
      8          8           0        1.353807    1.977964   -0.232149
      9          6           0        0.096131    0.078208    0.795760
     10          1           0       -2.809041    1.210633   -0.890726
     11          1           0       -2.452730   -0.956557    0.868231
     12          1           0       -2.726942   -1.136833   -0.868060
     13          1           0       -0.503719   -0.082882   -1.357791
     14          1           0       -0.249879   -2.179562    0.901260
     15          1           0        1.822266   -2.405617   -0.823187
     16          1           0        3.147199   -0.156493   -0.751776
     17          1           0        1.967113    1.000534    1.392092
     18          1           0        0.837801    1.820632   -1.030489
     19          1           0       -0.405143    0.351304    1.716364
 ---------------------------------------------------------------------

 SCF Done:  E(RB3LYP) =  -423.166309577     A.U. after    1 cycles

 The electronic state is 1-A.
 Alpha  occ. eigenvalues --  -19.13541 -19.13203 -10.23415 -10.23218 -10.19903
 Alpha  occ. eigenvalues --  -10.19877 -10.18996 -10.18924 -10.17888  -1.01655
 Alpha  occ. eigenvalues --   -1.01409  -0.88917  -0.77475  -0.69629  -0.68739
 Alpha  occ. eigenvalues --   -0.59880  -0.57147  -0.54730  -0.52811  -0.50199
 Alpha  occ. eigenvalues --   -0.46742  -0.44288  -0.43366  -0.42771  -0.40780
 Alpha  occ. eigenvalues --   -0.38778  -0.36839  -0.33732  -0.33306  -0.31474
 Alpha  occ. eigenvalues --   -0.29433  -0.27307  -0.26374  -0.23504
 Alpha virt. eigenvalues --    0.00368   0.06555   0.09176   0.10051   0.12476
 Alpha virt. eigenvalues --    0.13432   0.13834   0.14895   0.16028   0.16828
 Alpha virt. eigenvalues --    0.17709   0.18571   0.19549   0.22293   0.23487

 Mulliken charges:
               1
     1  O   -0.411013
     2  C   -0.096980
     3  C   -0.056846
     4  C   -0.100130
     5  C   -0.085618
     6  C   -0.131435
     7  C    0.079419
     8  O   -0.430124
     9  C   -0.068773
    10  H    0.280249
    11  H    0.107951
    12  H    0.089730
    13  H    0.067359
    14  H    0.090133
    15  H    0.100319
    16  H    0.101345
    17  H    0.094885
    18  H    0.272729
    19  H    0.096799
 Sum of Mulliken charges =   0.00000

 Dipole moment (field-independent basis, Debye):
    X=             -0.0042    Y=             -1.8034    Z=             -1.4967  Tot=              2.3436
 Quadrupole moment (field-independent basis, Debye-Ang):
   XX=            -57.8053   YY=            -55.4328   ZZ=            -49.1374
   XY=             -1.1928   XZ=              2.8024   YZ=             -2.7678

  Exact polarizability:  87.519   3.087  79.146  -0.638   0.853  62.710
 Approx polarizability: 116.526   9.255 126.893   0.717   1.038  99.327

                      1                      2                      3
                      A                      A                      A
 Frequencies --     58.9719               114.1320               168.7266
 Red. masses --      2.6609                 5.2911                 3.4472
 Frc consts  --      0.0055                 0.0406                 0.0578
 IR Inten    --      4.9124                 2.0155                 2.2860

                      4                      5                      6
                      A                      A                      A
 Frequencies --    213.2450               224.0873               306.7133
 Red. masses --      2.3899                 1.2134                 1.2310
 Frc consts  --      0.0640                 0.0359                 0.0682
 IR Inten    --      9.7330               107.3150                45.4953

                      7                      8                      9
                      A                      A                      A
 Frequencies --    335.5758               365.5285               465.4080
 Red. masses --      2.9307                 3.8347                 2.6879
 Frc consts  --      0.1945                 0.3019                 0.3430
 IR Inten    --     47.7317                 0.6880                 6.5239

                     10                     11                     12
                      A                      A                      A
 Frequencies --    494.6299               576.1541               692.0408
 Red. masses --      3.3798                 4.6336                 4.1003
 Frc consts  --      0.4872                 0.9063                 1.1570
 IR Inten    --      6.5056                 0.1057                 3.7097

                     13                     14                     15
                      A                      A                      A
 Frequencies --    753.3367               810.9322               823.5044
 Red. masses --      1.8030                 2.6193                 2.1702
 Frc consts  --      0.6029                 1.0149                 0.8671
 IR Inten    --     14.0926                 0.6797                30.7403

                     16                     17                     18
                      A                      A                      A
 Frequencies --    851.9109               930.1339               947.9684
 Red. masses --      2.0388                 1.9155                 4.4976
 Frc consts  --      0.8718                 0.9764                 2.3813
 IR Inten    --      5.4962                 6.2991                13.6274

                     19                     20                     21
                      A                      A                      A
 Frequencies --    963.4613               971.5801              1004.8436
 Red. masses --      2.0018                 1.4353                 2.1667
 Frc consts  --      1.0948                 0.7983                 1.2890
 IR Inten    --     17.1001                 1.4807                 8.4281

                     22                     23                     24
                      A                      A                      A
 Frequencies --   1052.6927              1054.6036              1077.8052
 Red. masses --      2.2715                 2.5817                 1.7595
 Frc consts  --      1.4831                 1.6917                 1.2043
 IR Inten    --      4.3727                84.4278                39.5301

                     25                     26                     27
                      A                      A                      A
 Frequencies --   1078.0855              1090.3474              1112.7319
 Red. masses --      1.7189                 1.3114                 2.2051
 Frc consts  --      1.1771                 0.9186                 1.6087
 IR Inten    --     68.4008                 5.8232                14.4362

                     28                     29                     30
                      A                      A                      A
 Frequencies --   1139.1133              1172.9907              1224.4956
 Red. masses --      1.3074                 1.2639                 1.6004
 Frc consts  --      0.9995                 1.0246                 1.4138
 IR Inten    --     26.9160                20.7068                13.8789

                     31                     32                     33
                      A                      A                      A
 Frequencies --   1264.0063              1291.6835              1299.6612
 Red. masses --      1.3372                 1.5481                 1.4433
 Frc consts  --      1.2588                 1.5218                 1.4364
 IR Inten    --      8.5203                 2.1072                 0.7816

                     34                     35                     36
                      A                      A                      A
 Frequencies --   1321.6905              1368.7361              1379.3498
 Red. masses --      1.3405                 1.6523                 1.2935
 Frc consts  --      1.3797                 1.8238                 1.4500
 IR Inten    --      6.4556                10.1428                 3.8675

                     37                     38                     39
                      A                      A                      A
 Frequencies --   1416.8257              1424.4080              1438.1585
 Red. masses --      1.4311                 1.3314                 1.7352
 Frc consts  --      1.6926                 1.5916                 2.1145
 IR Inten    --     32.1243                44.5446                56.1365

                     40                     41                     42
                      A                      A                      A
 Frequencies --   1502.8321              1668.0235              2979.1856
 Red. masses --      1.0884                 6.4637                 1.0700
 Frc consts  --      1.4483                10.5959                 5.5951
 IR Inten    --      0.6357                 3.3188                70.2788

                     43                     44                     45
                      A                      A                      A
 Frequencies --   3031.4545              3067.4104              3102.7973
 Red. masses --      1.0839                 1.0913                 1.0881
 Frc consts  --      5.8688                 6.0498                 6.1722
 IR Inten    --     34.4895                13.3139                26.0007

                     46                     47                     48
                      A                      A                      A
 Frequencies --   3166.9487              3185.3108              3187.9017
 Red. masses --      1.0885                 1.0861                 1.0911
 Frc consts  --      6.4323                 6.4925                 6.5334
 IR Inten    --     10.9367                12.6106                 9.0287

                     49                     50                     51
                      A                      A                      A
 Frequencies --   3212.4747              3800.6497              3817.7783
 Red. masses --      1.1040                 1.0656                 1.0662
 Frc consts  --      6.7128                 9.0689                 9.1565
 IR Inten    --     16.7699                 5.5129                17.1642

 - Thermochemistry -
 -------------------
 Temperature   298.150 Kelvin.  Pressure   1.00000 Atm.
 Atom     1 has atomic number  8 and mass  15.99491

 Molecular mass:   126.06808 amu.
 Principal axes and moments of inertia in atomic units:
                           1         2         3
     Eigenvalues --   646.161081478.033021920.05148
           X            0.99999   0.00485   0.00143
           Y           -0.00484   0.99998  -0.00433
           Z           -0.00145   0.00432   0.99999
 This molecule is an asymmetric top.
 Rotational symmetry number  1.
 Warning -- assumption of classical behavior for rotation
           may cause significant error
 Rotational temperatures (Kelvin)      0.13404     0.05860     0.04511
 Rotational constants (GHZ):           2.79302     1.22104     0.93994
 Zero-point vibrational energy     418711.1 (Joules/Mol)
                                  100.07437 (Kcal/Mol)
 Warning -- explicit consideration of  11 degrees of freedom as
           vibrations may cause significant error
 Vibrational temperatures:     84.85   164.21   242.76   306.81   322.41
          (Kelvin)            441.29   482.82   525.91   669.62   711.66
                              828.96   995.69  1083.88  1166.75  1184.84
                             1225.71  1338.25  1363.91  1386.20  1397.89
                             1445.74  1514.59  1517.34  1550.72  1551.12
                             1568.76  1600.97  1638.93  1687.67  1761.77
                             1818.62  1858.44  1869.92  1901.62  1969.30
                             1984.57  2038.49  2049.40  2069.19  2162.24
                             2399.91  4286.38  4361.58  4413.31  4464.23
                             4556.53  4582.95  4586.67  4622.03  5468.28
                             5492.92

 Zero-point correction=                           0.159479 (Hartree/Particle)
 Thermal correction to Energy=                    0.168240
 Thermal correction to Enthalpy=                  0.169184
 Thermal correction to Gibbs Free Energy=         0.125690
 Sum of electronic and zero-point Energies=           -423.006831
 Sum of electronic and thermal Energies=              -422.998070
 Sum of electronic and thermal Enthalpies=            -422.997126
 Sum of electronic and thermal Free Energies=         -423.040620

                     E (Thermal)             CV                S
                      KCal/Mol        Cal/Mol-Kelvin    Cal/Mol-Kelvin
 Total                  105.572             33.051             91.542
 Electronic               0.000              0.000              0.000
 Translational            0.889              2.981             40.409
 Rotational               0.889              2.981             28.996
 Vibrational            103.795             27.090             22.137
 Vibration     1          0.596              1.974              4.491
 Vibration     2          0.607              1.938              3.197
 Vibration     3          0.625              1.881              2.450
 Vibration     4          0.644              1.821              2.016
 Vibration     5          0.649              1.804              1.926
 Vibration     6          0.697              1.661              1.380
 Vibration     7          0.717              1.604              1.233
 Vibration     8          0.739              1.543              1.098
 Vibration     9          0.823              1.327              0.751
 Vibration    10          0.850              1.262              0.672
 Vibration    11          0.933              1.083              0.493

 Optimization completed.
    -- Stationary point found.
 Normal termination of Gaussian 09 at Tue Jan 28 14:48:25 2020.
