 Gaussian 09, Revision D.01,
 Gaussian 09:  ES64L-G09RevD.01 24-Apr-2013

 -----------------------------
 # b3lyp 6-31G(2df,p) opt Freq
 -----------------------------

 -----
 titel
 -----
 Symbolic Z-matrix:
 Charge =  0 Multiplicity = 1

 SCF Done:  E(RB3LYP) =  -423.156895237     A.U. after   14 cycles
 Optimization completed.
    -- Stationary point found.
 Normal termination of Gaussian 09 at Tue Jan 28 00:02:45 2020.

 ----------------------------------------------------------------------
 #N Geom=AllCheck Guess=TCheck SCRF=Check GenChk RB3LYP/6-31G(2df,p) Fr
 eq
 ----------------------------------------------------------------------

 Structure from the checkpoint file:  "/scratch/puck/g09_79d94060-07de-4c01-848e-9b34ed054d5e/Gau-181361.chk"
 -----
 titel
 -----
 Charge =  0 Multiplicity = 1

                         Standard orientation:
 ---------------------------------------------------------------------
 Center     Atomic      Atomic             Coordinates (Angstroms)
 Number     Number       Type             X           Y           Z
 ---------------------------------------------------------------------
      1          6           0        2.489203   -0.261360   -0.209198
      2          6           0        1.008941   -0.185126    0.031669
      3          6           0        0.027816   -1.222622   -0.486742
      4          8           0       -1.203334   -0.840346   -1.047786
      5          6           0       -1.925983   -0.130437   -0.034954
      6          6           0       -0.887420    0.189962    1.039944
      7          6           0        0.095763   -1.007067    0.981191
      8          6           0        0.255718    1.072586    0.428889
      9          8           0       -0.034381    1.969112   -0.621132
     10          1           0        2.761030    0.274158   -1.125684
     11          1           0        3.053027    0.184156    0.619210
     12          1           0        2.823935   -1.298250   -0.318545
     13          1           0        0.446784   -2.108239   -0.951000
     14          1           0       -2.345765    0.775287   -0.483390
     15          1           0       -2.742752   -0.754448    0.356659
     16          1           0       -1.299818    0.500418    1.999667
     17          1           0        0.334296   -1.726148    1.753090
     18          1           0        0.801198    1.579839    1.237585
     19          1           0       -0.314445    2.807475   -0.241043
 ---------------------------------------------------------------------

 SCF Done:  E(RB3LYP) =  -423.156895237     A.U. after    1 cycles

 The electronic state is 1-A.
 Alpha  occ. eigenvalues --  -19.13610 -19.12892 -10.23373 -10.22828 -10.21813
 Alpha  occ. eigenvalues --  -10.19269 -10.19027 -10.18810 -10.17792  -1.03745
 Alpha  occ. eigenvalues --   -1.01529  -0.88110  -0.75657  -0.71579  -0.66868
 Alpha  occ. eigenvalues --   -0.60308  -0.57538  -0.53544  -0.51859  -0.47949
 Alpha  occ. eigenvalues --   -0.47125  -0.44182  -0.42292  -0.40867  -0.40305
 Alpha  occ. eigenvalues --   -0.39526  -0.37272  -0.34175  -0.33376  -0.31915
 Alpha  occ. eigenvalues --   -0.30821  -0.27096  -0.25610  -0.21891
 Alpha virt. eigenvalues --    0.07099   0.10471   0.10777   0.12044   0.13312
 Alpha virt. eigenvalues --    0.13881   0.14661   0.15821   0.17050   0.17500
 Alpha virt. eigenvalues --    0.18076   0.18504   0.19380   0.19919   0.21782

 Mulliken charges:
               1
     1  C   -0.512969
     2  C    0.273626
     3  C    0.078371
     4  O   -0.265914
     5  C   -0.062192
     6  C   -0.154847
     7  C   -0.174996
     8  C    0.088218
     9  O   -0.431486
    10  H    0.134989
    11  H    0.113393
    12  H    0.117082
    13  H    0.099187
    14  H    0.105235
    15  H    0.087219
    16  H    0.068178
    17  H    0.089082
    18  H    0.065896
    19  H    0.281927
 Sum of Mulliken charges =   0.00000

 Dipole moment (field-independent basis, Debye):
    X=              0.5143    Y=              0.8306    Z=              2.5527  Tot=              2.7332
 Quadrupole moment (field-independent basis, Debye-Ang):
   XX=            -51.8763   YY=            -47.7316   ZZ=            -55.4232
   XY=             -3.3013   XZ=             -2.3709   YZ=              1.6161

  Exact polarizability:  83.542  -1.505  74.670  -2.276   0.252  65.769
 Approx polarizability: 111.260  -0.656 109.590  -1.984  -0.435 106.255

                      1                      2                      3
                      A                      A                      A
 Frequencies --    156.7155               177.9804               216.0189
 Red. masses --      3.9800                 1.1258                 2.9142
 Frc consts  --      0.0576                 0.0210                 0.0801
 IR Inten    --      0.0305                 1.0300                 1.7041

                      4                      5                      6
                      A                      A                      A
 Frequencies --    250.0346               266.6089               267.7928
 Red. masses --      3.6011                 1.0755                 2.4619
 Frc consts  --      0.1326                 0.0450                 0.1040
 IR Inten    --      4.9311                87.5831                 4.7225

                      7                      8                      9
                      A                      A                      A
 Frequencies --    362.6749               503.6911               552.6036
 Red. masses --      2.9103                 3.6850                 3.6837
 Frc consts  --      0.2255                 0.5508                 0.6628
 IR Inten    --     14.1204                 2.7701                 3.3150

                     10                     11                     12
                      A                      A                      A
 Frequencies --    581.8362               712.4308               732.1207
 Red. masses --      4.2907                 4.5217                 3.1248
 Frc consts  --      0.8558                 1.3522                 0.9868
 IR Inten    --      3.4924                 2.1024                 2.9235

                     13                     14                     15
                      A                      A                      A
 Frequencies --    800.9579               841.9943               855.3031
 Red. masses --      3.7743                 4.0288                 2.7855
 Frc consts  --      1.4266                 1.6828                 1.2006
 IR Inten    --      6.7867                 4.8053                 5.1662

                     16                     17                     18
                      A                      A                      A
 Frequencies --    874.1449               898.3568               926.0566
 Red. masses --      1.9974                 1.4296                 2.2797
 Frc consts  --      0.8992                 0.6797                 1.1519
 IR Inten    --      3.8222                10.8691                14.4872

                     19                     20                     21
                      A                      A                      A
 Frequencies --    975.1723              1012.5349              1020.8544
 Red. masses --      2.1950                 1.4489                 1.8195
 Frc consts  --      1.2298                 0.8752                 1.1172
 IR Inten    --     14.4466                13.9667                11.5402

                     22                     23                     24
                      A                      A                      A
 Frequencies --   1029.1398              1067.7876              1092.1615
 Red. masses --      1.7437                 2.2691                 1.8319
 Frc consts  --      1.0881                 1.5243                 1.2875
 IR Inten    --      8.4581                20.2297                32.2473

                     25                     26                     27
                      A                      A                      A
 Frequencies --   1111.4042              1130.3021              1171.1137
 Red. masses --      3.0296                 4.4573                 1.5854
 Frc consts  --      2.2049                 3.3552                 1.2812
 IR Inten    --     34.3375               147.5374                 4.0531

                     28                     29                     30
                      A                      A                      A
 Frequencies --   1199.2782              1219.0626              1242.5025
 Red. masses --      1.6216                 1.2894                 1.6645
 Frc consts  --      1.3741                 1.1289                 1.5140
 IR Inten    --     13.0707                 4.5576                 6.8806

                     31                     32                     33
                      A                      A                      A
 Frequencies --   1260.7842              1273.3434              1287.9350
 Red. masses --      1.4767                 2.0906                 1.3748
 Frc consts  --      1.3830                 1.9972                 1.3437
 IR Inten    --     44.9264                 7.0659                 1.3073

                     34                     35                     36
                      A                      A                      A
 Frequencies --   1340.8330              1377.2966              1409.9204
 Red. masses --      1.6571                 1.5278                 1.4908
 Frc consts  --      1.7553                 1.7075                 1.7460
 IR Inten    --      5.0917                 1.3771                12.6631

                     37                     38                     39
                      A                      A                      A
 Frequencies --   1415.3420              1461.9386              1485.7429
 Red. masses --      1.4579                 2.0671                 1.0489
 Frc consts  --      1.7207                 2.6029                 1.3642
 IR Inten    --      9.3077                 9.1839                 5.5173

                     40                     41                     42
                      A                      A                      A
 Frequencies --   1497.5801              1504.4704              2994.1650
 Red. masses --      1.0629                 1.1070                 1.0739
 Frc consts  --      1.4045                 1.4763                 5.6721
 IR Inten    --      6.6283                 2.0872               103.0530

                     43                     44                     45
                      A                      A                      A
 Frequencies --   2996.1647              3021.7038              3079.3719
 Red. masses --      1.0797                 1.0361                 1.0949
 Frc consts  --      5.7106                 5.5740                 6.1172
 IR Inten    --     32.3679                38.6722                26.3847

                     46                     47                     48
                      A                      A                      A
 Frequencies --   3082.6381              3095.9887              3117.4844
 Red. masses --      1.0999                 1.1005                 1.0893
 Frc consts  --      6.1583                 6.2150                 6.2373
 IR Inten    --     23.3633                18.1254                33.1003

                     49                     50                     51
                      A                      A                      A
 Frequencies --   3182.5247              3204.6599              3820.5625
 Red. masses --      1.0900                 1.0962                 1.0663
 Frc consts  --      6.5047                 6.6328                 9.1701
 IR Inten    --     13.6515                12.3094                22.2567

 - Thermochemistry -
 -------------------
 Temperature   298.150 Kelvin.  Pressure   1.00000 Atm.
 Atom     1 has atomic number  6 and mass  12.00000

 Molecular mass:   126.06808 amu.
 Principal axes and moments of inertia in atomic units:
                           1         2         3
     Eigenvalues --   734.03658 968.854631235.18155
           X            0.99805  -0.05790  -0.02334
           Y            0.05820   0.99823   0.01229
           Z            0.02258  -0.01363   0.99965
 This molecule is an asymmetric top.
 Rotational symmetry number  1.
 Warning -- assumption of classical behavior for rotation
           may cause significant error
 Rotational temperatures (Kelvin)      0.11800     0.08940     0.07012
 Rotational constants (GHZ):           2.45865     1.86276     1.46111
 Zero-point vibrational energy     419644.5 (Joules/Mol)
                                  100.29745 (Kcal/Mol)
 Warning -- explicit consideration of  10 degrees of freedom as
           vibrations may cause significant error
 Vibrational temperatures:    225.48   256.07   310.80   359.74   383.59
          (Kelvin)            385.29   521.81   724.70   795.07   837.13
                             1025.03  1053.36  1152.40  1211.44  1230.59
                             1257.70  1292.53  1332.39  1403.05  1456.81
                             1468.78  1480.70  1536.31  1571.37  1599.06
                             1626.25  1684.97  1725.49  1753.96  1787.68
                             1813.98  1832.05  1853.05  1929.16  1981.62
                             2028.56  2036.36  2103.40  2137.65  2154.68
                             2164.59  4307.93  4310.81  4347.55  4430.52
                             4435.22  4454.43  4485.36  4578.94  4610.79
                             5496.93

 Zero-point correction=                           0.159834 (Hartree/Particle)
 Thermal correction to Energy=                    0.167747
 Thermal correction to Enthalpy=                  0.168692
 Thermal correction to Gibbs Free Energy=         0.127894
 Sum of electronic and zero-point Energies=           -422.997061
 Sum of electronic and thermal Energies=              -422.989148
 Sum of electronic and thermal Enthalpies=            -422.988204
 Sum of electronic and thermal Free Energies=         -423.029001

                     E (Thermal)             CV                S
                      KCal/Mol        Cal/Mol-Kelvin    Cal/Mol-Kelvin
 Total                  105.263             31.281             85.866
 Electronic               0.000              0.000              0.000
 Translational            0.889              2.981             40.409
 Rotational               0.889              2.981             28.265
 Vibrational            103.486             25.319             17.193
 Vibration     1          0.620              1.895              2.589
 Vibration     2          0.628              1.869              2.349
 Vibration     3          0.645              1.817              1.992
 Vibration     4          0.663              1.763              1.730
 Vibration     5          0.672              1.734              1.618
 Vibration     6          0.673              1.732              1.610
 Vibration     7          0.737              1.549              1.111
 Vibration     8          0.859              1.242              0.649
 Vibration     9          0.908              1.134              0.539
 Vibration    10          0.939              1.071              0.482

 Normal termination of Gaussian 09 at Tue Jan 28 00:51:15 2020.
