 Gaussian 09, Revision D.01,
 Gaussian 09:  ES64L-G09RevD.01 24-Apr-2013

 -----------------------------
 # b3lyp 6-31G(2df,p) opt Freq
 -----------------------------

 -----
 titel
 -----
 Symbolic Z-matrix:
 Charge =  0 Multiplicity = 1

 SCF Done:  E(RB3LYP) =  -423.151853745     A.U. after   13 cycles
 Optimization completed.
    -- Stationary point found.
 Normal termination of Gaussian 09 at Mon Jan 27 11:28:25 2020.

 ----------------------------------------------------------------------
 #N Geom=AllCheck Guess=TCheck SCRF=Check GenChk RB3LYP/6-31G(2df,p) Fr
 eq
 ----------------------------------------------------------------------

 Structure from the checkpoint file:  "/scratch/puck/g09_564dfe90-c447-4d93-893d-3ee10d201797/Gau-61258.chk"
 -----
 titel
 -----
 Charge =  0 Multiplicity = 1

                         Standard orientation:
 ---------------------------------------------------------------------
 Center     Atomic      Atomic             Coordinates (Angstroms)
 Number     Number       Type             X           Y           Z
 ---------------------------------------------------------------------
      1          6           0        0.210284    1.916985    0.664089
      2          6           0       -0.553797    1.255112   -0.482337
      3          6           0       -1.858457    0.494652   -0.266038
      4          6           0       -1.593572   -1.011446   -0.369289
      5          8           0       -0.694489   -1.462555    0.641794
      6          6           0        0.545840   -0.806216    0.692880
      7          6           0        1.661905   -1.099909   -0.348517
      8          8           0        1.857614    0.323352   -0.561633
      9          6           0        0.647219    0.603776    0.134484
     10          1           0        0.813204    2.780655    0.404180
     11          1           0       -0.240607    1.958504    1.652258
     12          1           0       -0.406750    1.708860   -1.457566
     13          1           0       -2.282909    0.709870    0.721471
     14          1           0       -2.608616    0.786766   -1.007965
     15          1           0       -2.507683   -1.590827   -0.212557
     16          1           0       -1.208606   -1.253573   -1.372567
     17          1           0        0.905779   -0.912564    1.719858
     18          1           0        2.572330   -1.585886    0.013159
     19          1           0        1.302337   -1.605899   -1.253190
 ---------------------------------------------------------------------

 SCF Done:  E(RB3LYP) =  -423.151853745     A.U. after    1 cycles

 The electronic state is 1-A.
 Alpha  occ. eigenvalues --  -19.14484 -19.13839 -10.23766 -10.23508 -10.23068
 Alpha  occ. eigenvalues --  -10.22870 -10.19034 -10.18905 -10.18820  -1.05399
 Alpha  occ. eigenvalues --   -1.02634  -0.85871  -0.76669  -0.72214  -0.64626
 Alpha  occ. eigenvalues --   -0.63253  -0.59031  -0.52922  -0.50470  -0.49918
 Alpha  occ. eigenvalues --   -0.49101  -0.44481  -0.43731  -0.41734  -0.41068
 Alpha  occ. eigenvalues --   -0.38794  -0.37355  -0.35795  -0.34625  -0.33090
 Alpha  occ. eigenvalues --   -0.31187  -0.28460  -0.24761  -0.22649
 Alpha virt. eigenvalues --    0.07142   0.09632   0.09869   0.10966   0.12291
 Alpha virt. eigenvalues --    0.13579   0.14431   0.15384   0.15522   0.17261
 Alpha virt. eigenvalues --    0.17659   0.18916   0.19551   0.20200   0.23100

 Mulliken charges:
               1
     1  C   -0.388394
     2  C   -0.112948
     3  C   -0.233224
     4  C   -0.074442
     5  O   -0.264350
     6  C    0.012952
     7  C   -0.126340
     8  O   -0.313800
     9  C    0.431416
    10  H    0.126664
    11  H    0.115406
    12  H    0.098139
    13  H    0.108214
    14  H    0.104868
    15  H    0.109140
    16  H    0.093053
    17  H    0.097949
    18  H    0.110376
    19  H    0.105319
 Sum of Mulliken charges =   0.00000

 Dipole moment (field-independent basis, Debye):
    X=             -1.1195    Y=              0.1133    Z=             -0.1601  Tot=              1.1365
 Quadrupole moment (field-independent basis, Debye-Ang):
   XX=            -53.6932   YY=            -53.4788   ZZ=            -52.3233
   XY=             -2.7800   XZ=              2.9008   YZ=              1.9676

  Exact polarizability:  80.331  -2.524  77.167   2.858   3.346  65.846
 Approx polarizability: 111.043  -1.469 107.554   2.666   2.387 102.291

                      1                      2                      3
                      A                      A                      A
 Frequencies --    132.1793               180.1331               249.6903
 Red. masses --      2.7180                 3.1526                 2.1990
 Frc consts  --      0.0280                 0.0603                 0.0808
 IR Inten    --      3.6719                 1.2761                 0.6091

                      4                      5                      6
                      A                      A                      A
 Frequencies --    346.3841               396.2490               414.1258
 Red. masses --      3.0136                 2.9981                 2.4584
 Frc consts  --      0.2130                 0.2774                 0.2484
 IR Inten    --      2.5486                 5.3670                 1.9075

                      7                      8                      9
                      A                      A                      A
 Frequencies --    451.2128               483.2044               570.6941
 Red. masses --      3.9849                 2.9557                 3.1747
 Frc consts  --      0.4780                 0.4066                 0.6092
 IR Inten    --      3.7955                 2.7770                 2.1287

                     10                     11                     12
                      A                      A                      A
 Frequencies --    653.4874               749.3092               793.0906
 Red. masses --      3.1385                 2.4465                 2.0187
 Frc consts  --      0.7897                 0.8093                 0.7481
 IR Inten    --      4.3562                 3.5630                 1.2438

                     13                     14                     15
                      A                      A                      A
 Frequencies --    860.1911               874.9031               881.4122
 Red. masses --      2.0202                 1.7939                 2.0906
 Frc consts  --      0.8807                 0.8090                 0.9569
 IR Inten    --      7.8283                 4.3954                15.1222

                     16                     17                     18
                      A                      A                      A
 Frequencies --    934.7030               961.0842               977.8178
 Red. masses --      1.7764                 2.3154                 4.4118
 Frc consts  --      0.9144                 1.2601                 2.4853
 IR Inten    --      7.5324                 5.1723                43.7058

                     19                     20                     21
                      A                      A                      A
 Frequencies --    997.2085              1009.1137              1049.1354
 Red. masses --      5.3639                 2.4245                 1.4335
 Frc consts  --      3.1427                 1.4546                 0.9296
 IR Inten    --     24.3659                42.6586                10.7080

                     22                     23                     24
                      A                      A                      A
 Frequencies --   1064.7187              1091.9088              1107.3497
 Red. masses --      1.7072                 2.5312                 2.6606
 Frc consts  --      1.1403                 1.7781                 1.9222
 IR Inten    --      9.3500                20.1928                 6.0874

                     25                     26                     27
                      A                      A                      A
 Frequencies --   1138.8426              1149.5904              1177.0601
 Red. masses --      1.8660                 1.3261                 2.6017
 Frc consts  --      1.4259                 1.0326                 2.1238
 IR Inten    --     10.3704                 9.1432                62.5178

                     28                     29                     30
                      A                      A                      A
 Frequencies --   1200.7615              1245.2751              1251.3995
 Red. masses --      2.1497                 1.3392                 1.4034
 Frc consts  --      1.8262                 1.2235                 1.2948
 IR Inten    --     48.1455                12.0407                23.9415

                     31                     32                     33
                      A                      A                      A
 Frequencies --   1286.8379              1312.0455              1336.4504
 Red. masses --      1.3003                 1.4299                 1.4053
 Frc consts  --      1.2686                 1.4503                 1.4789
 IR Inten    --      8.2655                 5.4979                 2.3972

                     34                     35                     36
                      A                      A                      A
 Frequencies --   1357.1290              1387.1383              1406.9773
 Red. masses --      1.4423                 1.3291                 1.5168
 Frc consts  --      1.5651                 1.5067                 1.7691
 IR Inten    --      2.6762                 3.8271                15.0100

                     37                     38                     39
                      A                      A                      A
 Frequencies --   1424.9881              1470.4618              1485.5115
 Red. masses --      1.5385                 1.2162                 1.4165
 Frc consts  --      1.8407                 1.5494                 1.8417
 IR Inten    --      8.4518                 0.6480                18.5661

                     40                     41                     42
                      A                      A                      A
 Frequencies --   1502.5254              1521.9804              2982.5641
 Red. masses --      1.1075                 1.2400                 1.0700
 Frc consts  --      1.4732                 1.6923                 5.6080
 IR Inten    --      0.9866                 7.7846                38.1390

                     43                     44                     45
                      A                      A                      A
 Frequencies --   3025.1886              3036.8139              3069.3204
 Red. masses --      1.0602                 1.0610                 1.0882
 Frc consts  --      5.7168                 5.7651                 6.0403
 IR Inten    --     58.7347                25.5937                15.9217

                     46                     47                     48
                      A                      A                      A
 Frequencies --   3083.3890              3089.3232              3095.5611
 Red. masses --      1.1013                 1.0946                 1.1047
 Frc consts  --      6.1689                 6.1551                 6.2368
 IR Inten    --     25.2372                47.7406                48.5543

                     49                     50                     51
                      A                      A                      A
 Frequencies --   3116.4354              3157.7364              3209.5634
 Red. masses --      1.0557                 1.0891                 1.1142
 Frc consts  --      6.0412                 6.3984                 6.7626
 IR Inten    --     10.6345                 7.9176                 5.3434

 - Thermochemistry -
 -------------------
 Temperature   298.150 Kelvin.  Pressure   1.00000 Atm.
 Atom     1 has atomic number  6 and mass  12.00000

 Molecular mass:   126.06808 amu.
 Principal axes and moments of inertia in atomic units:
                           1         2         3
     Eigenvalues --   746.02257 906.003721348.17240
           X            0.99539  -0.09356   0.02089
           Y            0.09287   0.99517   0.03173
           Z           -0.02376  -0.02965   0.99928
 This molecule is an asymmetric top.
 Rotational symmetry number  1.
 Warning -- assumption of classical behavior for rotation
           may cause significant error
 Rotational temperatures (Kelvin)      0.11610     0.09560     0.06425
 Rotational constants (GHZ):           2.41915     1.99198     1.33866
 Zero-point vibrational energy     423180.0 (Joules/Mol)
                                  101.14245 (Kcal/Mol)
 Warning -- explicit consideration of   9 degrees of freedom as
           vibrations may cause significant error
 Vibrational temperatures:    190.18   259.17   359.25   498.37   570.11
          (Kelvin)            595.83   649.19   695.22   821.10   940.22
                             1078.09  1141.08  1237.62  1258.79  1268.15
                             1344.83  1382.78  1406.86  1434.76  1451.89
                             1509.47  1531.89  1571.01  1593.23  1638.54
                             1654.00  1693.52  1727.63  1791.67  1800.48
                             1851.47  1887.74  1922.85  1952.60  1995.78
                             2024.32  2050.24  2115.66  2137.32  2161.80
                             2189.79  4291.24  4352.57  4369.29  4416.06
                             4436.30  4444.84  4453.82  4483.85  4543.27
                             4617.84

 Zero-point correction=                           0.161181 (Hartree/Particle)
 Thermal correction to Energy=                    0.168405
 Thermal correction to Enthalpy=                  0.169350
 Thermal correction to Gibbs Free Energy=         0.129770
 Sum of electronic and zero-point Energies=           -422.990673
 Sum of electronic and thermal Energies=              -422.983448
 Sum of electronic and thermal Enthalpies=            -422.982504
 Sum of electronic and thermal Free Energies=         -423.022084

                     E (Thermal)             CV                S
                      KCal/Mol        Cal/Mol-Kelvin    Cal/Mol-Kelvin
 Total                  105.676             29.349             83.302
 Electronic               0.000              0.000              0.000
 Translational            0.889              2.981             40.409
 Rotational               0.889              2.981             28.301
 Vibrational            103.899             23.387             14.593
 Vibration     1          0.612              1.921              2.914
 Vibration     2          0.629              1.867              2.327
 Vibration     3          0.662              1.763              1.733
 Vibration     4          0.724              1.583              1.183
 Vibration     5          0.763              1.478              0.977
 Vibration     6          0.778              1.440              0.912
 Vibration     7          0.810              1.358              0.792
 Vibration     8          0.839              1.287              0.701
 Vibration     9          0.927              1.095              0.503

 Optimization completed.
    -- Stationary point found.
 Normal termination of Gaussian 09 at Mon Jan 27 13:41:32 2020.
