 Gaussian 09, Revision D.01,
 Gaussian 09:  ES64L-G09RevD.01 24-Apr-2013

 -----------------------------
 # b3lyp 6-31G(2df,p) opt Freq
 -----------------------------

 -----
 titel
 -----
 Symbolic Z-matrix:
 Charge =  0 Multiplicity = 1

 SCF Done:  E(RB3LYP) =  -423.130725824     A.U. after   14 cycles
 Optimization completed.
    -- Stationary point found.
 Normal termination of Gaussian 09 at Tue Jan 28 02:24:30 2020.

 ----------------------------------------------------------------------
 #N Geom=AllCheck Guess=TCheck SCRF=Check GenChk RB3LYP/6-31G(2df,p) Fr
 eq
 ----------------------------------------------------------------------

 Structure from the checkpoint file:  "/scratch/puck/g09_f305e182-40c2-46fe-852e-a39088b29e50/Gau-86277.chk"
 -----
 titel
 -----
 Charge =  0 Multiplicity = 1

                         Standard orientation:
 ---------------------------------------------------------------------
 Center     Atomic      Atomic             Coordinates (Angstroms)
 Number     Number       Type             X           Y           Z
 ---------------------------------------------------------------------
      1          6           0       -2.636632    0.179635    0.451534
      2          6           0       -1.454243    0.054380   -0.497111
      3          8           0       -0.550687    1.178325   -0.331241
      4          6           0        0.685572    0.577730   -0.027269
      5          6           0        1.792516    1.565853    0.184179
      6          6           0        0.473125   -0.670108    0.897817
      7          8           0        1.591598   -1.366256    0.255392
      8          6           0        0.869647   -0.741278   -0.856162
      9          6           0       -0.508384   -1.107384   -0.232340
     10          1           0       -3.164429    1.121245    0.276251
     11          1           0       -3.342541   -0.643203    0.296942
     12          1           0       -2.306276    0.161819    1.494659
     13          1           0       -1.809396    0.052345   -1.536737
     14          1           0        1.946398    2.170395   -0.714628
     15          1           0        1.553199    2.241994    1.010348
     16          1           0        2.714177    1.027571    0.416562
     17          1           0        0.375966   -0.746034    1.980953
     18          1           0        1.242627   -0.901425   -1.868199
     19          1           0       -0.866618   -2.134228   -0.273246
 ---------------------------------------------------------------------

 SCF Done:  E(RB3LYP) =  -423.130725824     A.U. after    1 cycles

 The electronic state is 1-A.
 Alpha  occ. eigenvalues --  -19.14105 -19.13496 -10.24430 -10.24170 -10.24145
 Alpha  occ. eigenvalues --  -10.23732 -10.19956 -10.18127 -10.17769  -1.07517
 Alpha  occ. eigenvalues --   -1.02709  -0.79164  -0.77742  -0.72444  -0.65763
 Alpha  occ. eigenvalues --   -0.64017  -0.58108  -0.53592  -0.52210  -0.48547
 Alpha  occ. eigenvalues --   -0.46192  -0.44077  -0.42028  -0.40839  -0.39609
 Alpha  occ. eigenvalues --   -0.38440  -0.37380  -0.36306  -0.34188  -0.33809
 Alpha  occ. eigenvalues --   -0.32893  -0.31474  -0.24482  -0.23398
 Alpha virt. eigenvalues --    0.07397   0.10293   0.11385   0.12079   0.12461
 Alpha virt. eigenvalues --    0.12849   0.13722   0.14576   0.16204   0.16365
 Alpha virt. eigenvalues --    0.17361   0.18518   0.19044   0.19948   0.20090

 Mulliken charges:
               1
     1  C   -0.397955
     2  C    0.099746
     3  O   -0.327247
     4  C    0.452762
     5  C   -0.499228
     6  C   -0.012290
     7  O   -0.320145
     8  C   -0.018208
     9  C   -0.090413
    10  H    0.129948
    11  H    0.116566
    12  H    0.119677
    13  H    0.083011
    14  H    0.127874
    15  H    0.127495
    16  H    0.141297
    17  H    0.091022
    18  H    0.090395
    19  H    0.085694
 Sum of Mulliken charges =   0.00000

 Dipole moment (field-independent basis, Debye):
    X=             -1.3513    Y=             -0.0564    Z=             -0.2230  Tot=              1.3708
 Quadrupole moment (field-independent basis, Debye-Ang):
   XX=            -53.4500   YY=            -56.6247   ZZ=            -50.0620
   XY=              4.8956   XZ=             -0.8830   YZ=              1.4865

  Exact polarizability:  83.972   3.059  71.211  -0.264   1.115  68.762
 Approx polarizability: 112.839  -0.664 107.069   1.036   0.003 108.467

                      1                      2                      3
                      A                      A                      A
 Frequencies --    141.8821               215.6660               223.5386
 Red. masses --      3.1468                 1.3138                 1.6072
 Frc consts  --      0.0373                 0.0360                 0.0473
 IR Inten    --      0.3402                 0.5413                 0.7225

                      4                      5                      6
                      A                      A                      A
 Frequencies --    235.8785               278.9866               331.9986
 Red. masses --      1.0918                 2.8179                 2.6869
 Frc consts  --      0.0358                 0.1292                 0.1745
 IR Inten    --      0.1065                 2.9341                 1.3046

                      7                      8                      9
                      A                      A                      A
 Frequencies --    453.6633               478.0144               519.8161
 Red. masses --      4.1601                 3.3539                 3.9654
 Frc consts  --      0.5045                 0.4515                 0.6313
 IR Inten    --      3.8703                 0.3904                 9.3503

                     10                     11                     12
                      A                      A                      A
 Frequencies --    668.7661               682.7054               697.6588
 Red. masses --      4.1863                 3.6290                 3.8187
 Frc consts  --      1.1031                 0.9966                 1.0951
 IR Inten    --      0.6344                 0.1412                 1.9120

                     13                     14                     15
                      A                      A                      A
 Frequencies --    786.0129               809.5584               856.3057
 Red. masses --      3.1476                 3.2833                 2.5664
 Frc consts  --      1.1457                 1.2678                 1.1088
 IR Inten    --      6.5359                 2.5747                15.0496

                     16                     17                     18
                      A                      A                      A
 Frequencies --    888.4504               893.9197               913.9198
 Red. masses --      3.5410                 3.0801                 1.8181
 Frc consts  --      1.6468                 1.4501                 0.8947
 IR Inten    --      7.1336                 5.7915                10.9147

                     19                     20                     21
                      A                      A                      A
 Frequencies --    931.6155               972.7782               995.7236
 Red. masses --      2.2378                 2.1960                 1.2116
 Frc consts  --      1.1443                 1.2244                 0.7078
 IR Inten    --      0.0331                53.2156                 2.0740

                     22                     23                     24
                      A                      A                      A
 Frequencies --   1042.8393              1092.8944              1104.4481
 Red. masses --      2.0518                 1.7849                 3.0831
 Frc consts  --      1.3147                 1.2561                 2.2158
 IR Inten    --     28.1230                 3.1637                23.0996

                     25                     26                     27
                      A                      A                      A
 Frequencies --   1130.8333              1133.5925              1158.4478
 Red. masses --      1.9205                 1.7249                 1.4195
 Frc consts  --      1.4470                 1.3059                 1.1224
 IR Inten    --      3.7774                 4.9550                 2.0598

                     28                     29                     30
                      A                      A                      A
 Frequencies --   1169.1346              1189.0510              1221.0888
 Red. masses --      1.7713                 1.9521                 2.8102
 Frc consts  --      1.4265                 1.6261                 2.4688
 IR Inten    --     19.0372                12.6292                68.1667

                     31                     32                     33
                      A                      A                      A
 Frequencies --   1264.6230              1309.3124              1330.0555
 Red. masses --      1.6193                 1.7844                 1.9142
 Frc consts  --      1.5258                 1.8023                 1.9951
 IR Inten    --     20.7777                 5.2570                12.3752

                     34                     35                     36
                      A                      A                      A
 Frequencies --   1354.6797              1388.8533              1407.9507
 Red. masses --      1.8314                 1.4265                 1.3028
 Frc consts  --      1.9802                 1.6212                 1.5216
 IR Inten    --     12.0300                 8.8649                14.1981

                     37                     38                     39
                      A                      A                      A
 Frequencies --   1419.0110              1485.4629              1487.1856
 Red. masses --      1.8760                 1.0471                 1.0614
 Frc consts  --      2.2256                 1.3614                 1.3831
 IR Inten    --     13.2443                 3.9494                 3.1973

                     40                     41                     42
                      A                      A                      A
 Frequencies --   1493.2176              1495.0252              3010.8593
 Red. masses --      1.0541                 1.0527                 1.0847
 Frc consts  --      1.3848                 1.3863                 5.7933
 IR Inten    --      3.5496                 1.5324                41.0953

                     43                     44                     45
                      A                      A                      A
 Frequencies --   3038.0168              3046.2869              3109.3611
 Red. masses --      1.0351                 1.0352                 1.1004
 Frc consts  --      5.6289                 5.6603                 6.2683
 IR Inten    --     15.9978                18.6074                14.7089

                     46                     47                     48
                      A                      A                      A
 Frequencies --   3112.3552              3113.3542              3117.7907
 Red. masses --      1.1012                 1.0903                 1.0961
 Frc consts  --      6.2847                 6.2268                 6.2775
 IR Inten    --     17.2666                67.5041                 5.4326

                     49                     50                     51
                      A                      A                      A
 Frequencies --   3119.4539              3136.3383              3148.9790
 Red. masses --      1.0988                 1.1010                 1.0925
 Frc consts  --      6.2998                 6.3806                 6.3827
 IR Inten    --     27.9670                 7.0199                20.3393

 - Thermochemistry -
 -------------------
 Temperature   298.150 Kelvin.  Pressure   1.00000 Atm.
 Atom     1 has atomic number  6 and mass  12.00000

 Molecular mass:   126.06808 amu.
 Principal axes and moments of inertia in atomic units:
                           1         2         3
     Eigenvalues --   615.209861077.161881394.42297
           X            0.99751   0.06962  -0.01085
           Y           -0.06935   0.99731   0.02363
           Z            0.01247  -0.02282   0.99966
 This molecule is an asymmetric top.
 Rotational symmetry number  1.
 Warning -- assumption of classical behavior for rotation
           may cause significant error
 Rotational temperatures (Kelvin)      0.14079     0.08041     0.06211
 Rotational constants (GHZ):           2.93354     1.67546     1.29426
 Zero-point vibrational energy     416344.5 (Joules/Mol)
                                   99.50872 (Kcal/Mol)
 Warning -- explicit consideration of   9 degrees of freedom as
           vibrations may cause significant error
 Vibrational temperatures:    204.14   310.29   321.62   339.38   401.40
          (Kelvin)            477.67   652.72   687.76   747.90   962.20
                              982.26  1003.77  1130.90  1164.77  1232.03
                             1278.28  1286.15  1314.93  1340.39  1399.61
                             1432.62  1500.41  1572.43  1589.05  1627.01
                             1630.98  1666.75  1682.12  1710.78  1756.87
                             1819.51  1883.81  1913.65  1949.08  1998.25
                             2025.72  2041.64  2137.25  2139.73  2148.40
                             2151.01  4331.95  4371.02  4382.92  4473.67
                             4477.98  4479.42  4485.80  4488.19  4512.49
                             4530.67

 Zero-point correction=                           0.158577 (Hartree/Particle)
 Thermal correction to Energy=                    0.166328
 Thermal correction to Enthalpy=                  0.167272
 Thermal correction to Gibbs Free Energy=         0.126805
 Sum of electronic and zero-point Energies=           -422.972149
 Sum of electronic and thermal Energies=              -422.964398
 Sum of electronic and thermal Enthalpies=            -422.963454
 Sum of electronic and thermal Free Energies=         -423.003920

                     E (Thermal)             CV                S
                      KCal/Mol        Cal/Mol-Kelvin    Cal/Mol-Kelvin
 Total                  104.372             31.131             85.168
 Electronic               0.000              0.000              0.000
 Translational            0.889              2.981             40.409
 Rotational               0.889              2.981             28.315
 Vibrational            102.595             25.169             16.445
 Vibration     1          0.615              1.911              2.778
 Vibration     2          0.645              1.817              1.995
 Vibration     3          0.649              1.805              1.930
 Vibration     4          0.655              1.786              1.834
 Vibration     5          0.679              1.712              1.540
 Vibration     6          0.714              1.612              1.250
 Vibration     7          0.812              1.353              0.785
 Vibration     8          0.835              1.299              0.715
 Vibration     9          0.875              1.206              0.610

 Optimization completed.
    -- Stationary point found.
 Normal termination of Gaussian 09 at Tue Jan 28 03:09:16 2020.
