 Gaussian 09, Revision D.01,
 Gaussian 09:  ES64L-G09RevD.01 24-Apr-2013

 -----------------------------
 # b3lyp 6-31G(2df,p) opt Freq
 -----------------------------

 -----
 titel
 -----
 Symbolic Z-matrix:
 Charge =  0 Multiplicity = 1

 SCF Done:  E(RB3LYP) =  -423.042264378     A.U. after   12 cycles
 Optimization completed.
    -- Stationary point found.
 Normal termination of Gaussian 09 at Tue Jan 28 13:31:08 2020.

 ----------------------------------------------------------------------
 #N Geom=AllCheck Guess=TCheck SCRF=Check GenChk RB3LYP/6-31G(2df,p) Fr
 eq
 ----------------------------------------------------------------------

 Structure from the checkpoint file:  "/scratch/puck/g09_1137fae9-11c4-4f7b-9f2b-a8b24c6c6674/Gau-118981.chk"
 -----
 titel
 -----
 Charge =  0 Multiplicity = 1

                         Standard orientation:
 ---------------------------------------------------------------------
 Center     Atomic      Atomic             Coordinates (Angstroms)
 Number     Number       Type             X           Y           Z
 ---------------------------------------------------------------------
      1          8           0       -3.163026   -0.263137    0.054577
      2          6           0       -2.138960    0.704681   -0.053223
      3          6           0       -0.835780    0.065323   -0.482382
      4          8           0       -0.449834   -0.979692    0.531431
      5          6           0        0.878704   -0.460726    0.396219
      6          6           0        1.718591   -0.785593   -0.877790
      7          6           0        2.001371    0.678144   -0.500292
      8          6           0        2.147235    0.181629    1.024610
      9          6           0        0.470147    0.876125   -0.175024
     10          1           0       -2.828698   -0.942138    0.653186
     11          1           0       -2.456899    1.433039   -0.808020
     12          1           0       -1.987448    1.241113    0.896076
     13          1           0       -0.936593   -0.408145   -1.461489
     14          1           0        2.540387   -1.493742   -0.756345
     15          1           0        1.173277   -0.956588   -1.806063
     16          1           0        2.687689    1.366839   -0.994251
     17          1           0        3.015760   -0.448234    1.238953
     18          1           0        1.980637    0.936812    1.795139
     19          1           0        0.266923    1.656171    0.562030
 ---------------------------------------------------------------------

 SCF Done:  E(RB3LYP) =  -423.042264378     A.U. after    1 cycles

 The electronic state is 1-A.
 Alpha  occ. eigenvalues --  -19.14476 -19.13327 -10.25457 -10.24902 -10.23012
 Alpha  occ. eigenvalues --  -10.22780 -10.20984 -10.18979 -10.18963  -1.04726
 Alpha  occ. eigenvalues --   -1.01361  -0.90914  -0.75075  -0.68290  -0.67712
 Alpha  occ. eigenvalues --   -0.61315  -0.60297  -0.54010  -0.51699  -0.48584
 Alpha  occ. eigenvalues --   -0.47209  -0.45992  -0.43888  -0.41459  -0.40907
 Alpha  occ. eigenvalues --   -0.37109  -0.35856  -0.35218  -0.33675  -0.32610
 Alpha  occ. eigenvalues --   -0.31810  -0.27390  -0.25544  -0.24360
 Alpha virt. eigenvalues --    0.05775   0.06943   0.10205   0.10703   0.11479
 Alpha virt. eigenvalues --    0.12229   0.13009   0.13454   0.14288   0.14978
 Alpha virt. eigenvalues --    0.16990   0.18141   0.18800   0.20186   0.21461

 Mulliken charges:
               1
     1  O   -0.421037
     2  C   -0.074055
     3  C    0.037566
     4  O   -0.388783
     5  C    0.425191
     6  C   -0.268885
     7  C   -0.099350
     8  C   -0.299353
     9  C   -0.090280
    10  H    0.297116
    11  H    0.113967
    12  H    0.090094
    13  H    0.100819
    14  H    0.095664
    15  H    0.102546
    16  H    0.089010
    17  H    0.103026
    18  H    0.108683
    19  H    0.078063
 Sum of Mulliken charges =   0.00000

 Dipole moment (field-independent basis, Debye):
    X=              2.2559    Y=              0.9733    Z=             -0.0796  Tot=              2.4582
 Quadrupole moment (field-independent basis, Debye-Ang):
   XX=            -57.8155   YY=            -53.2452   ZZ=            -52.1038
   XY=             -0.8564   XZ=             -0.4856   YZ=              0.4920

  Exact polarizability:  95.368  -1.401  68.010   2.927   2.661  67.139
 Approx polarizability: 128.078   2.325 109.231   3.583  -0.393 105.140

                      1                      2                      3
                      A                      A                      A
 Frequencies --     94.9361               148.1878               216.0225
 Red. masses --      4.3251                 4.4427                 2.2687
 Frc consts  --      0.0230                 0.0575                 0.0624
 IR Inten    --      3.0407                 1.6408                 0.5961

                      4                      5                      6
                      A                      A                      A
 Frequencies --    328.6858               367.0052               427.1281
 Red. masses --      4.3724                 4.0719                 1.5248
 Frc consts  --      0.2783                 0.3231                 0.1639
 IR Inten    --      6.5347                 6.0345                74.2943

                      7                      8                      9
                      A                      A                      A
 Frequencies --    440.4968               530.1539               556.3789
 Red. masses --      1.9419                 2.3074                 2.9112
 Frc consts  --      0.2220                 0.3821                 0.5310
 IR Inten    --     55.4255                 1.2799                 5.2364

                     10                     11                     12
                      A                      A                      A
 Frequencies --    588.3852               699.1036               749.7767
 Red. masses --      2.9187                 3.3226                 4.2859
 Frc consts  --      0.5953                 0.9568                 1.4196
 IR Inten    --      5.9511                 3.9626                46.3644

                     13                     14                     15
                      A                      A                      A
 Frequencies --    773.6885               820.0277               846.2441
 Red. masses --      3.7309                 3.2192                 4.3958
 Frc consts  --      1.3158                 1.2754                 1.8547
 IR Inten    --     22.5633                 1.7417                 6.3871

                     16                     17                     18
                      A                      A                      A
 Frequencies --    916.3898               950.9854               961.2752
 Red. masses --      2.7817                 1.5525                 1.9309
 Frc consts  --      1.3763                 0.8272                 1.0513
 IR Inten    --     16.1414                 9.6886                 4.1819

                     19                     20                     21
                      A                      A                      A
 Frequencies --    980.5658              1005.5128              1024.5316
 Red. masses --      1.6209                 1.4355                 1.3511
 Frc consts  --      0.9182                 0.8551                 0.8356
 IR Inten    --     55.7003                11.7647                 5.7882

                     22                     23                     24
                      A                      A                      A
 Frequencies --   1040.3135              1079.3331              1090.6147
 Red. masses --      2.3632                 3.1778                 1.6623
 Frc consts  --      1.5069                 2.1812                 1.1649
 IR Inten    --     15.7675                80.8757                16.3291

                     25                     26                     27
                      A                      A                      A
 Frequencies --   1105.0384              1110.7845              1144.2208
 Red. masses --      2.2711                 1.5894                 1.5335
 Frc consts  --      1.6339                 1.1554                 1.1829
 IR Inten    --      5.3065                 5.9249                 1.9052

                     28                     29                     30
                      A                      A                      A
 Frequencies --   1166.7663              1182.0331              1201.2115
 Red. masses --      1.4668                 2.1100                 1.4441
 Frc consts  --      1.1765                 1.7370                 1.2277
 IR Inten    --      4.0679                 4.6887                14.4599

                     31                     32                     33
                      A                      A                      A
 Frequencies --   1203.1361              1216.9025              1235.1680
 Red. masses --      1.7937                 1.4311                 1.9114
 Frc consts  --      1.5298                 1.2486                 1.7181
 IR Inten    --     29.7655                 2.1304                58.3860

                     34                     35                     36
                      A                      A                      A
 Frequencies --   1248.4594              1325.8155              1384.3438
 Red. masses --      2.2460                 1.3048                 1.2827
 Frc consts  --      2.0626                 1.3514                 1.4483
 IR Inten    --     31.3148                 5.5607                 0.2540

                     37                     38                     39
                      A                      A                      A
 Frequencies --   1397.2125              1430.6818              1492.6150
 Red. masses --      1.2234                 1.3458                 1.1010
 Frc consts  --      1.4071                 1.6229                 1.4453
 IR Inten    --     17.4847                65.2194                 2.3826

                     40                     41                     42
                      A                      A                      A
 Frequencies --   1493.3960              1534.5805              2987.1604
 Red. masses --      1.0960                 1.1574                 1.0670
 Frc consts  --      1.4402                 1.6059                 5.6096
 IR Inten    --      0.0906                 2.9259                37.5576

                     43                     44                     45
                      A                      A                      A
 Frequencies --   3052.1725              3067.0439              3073.3266
 Red. masses --      1.0553                 1.0912                 1.0685
 Frc consts  --      5.7922                 6.0478                 5.9464
 IR Inten    --     47.3456                12.7529                50.5692

                     46                     47                     48
                      A                      A                      A
 Frequencies --   3077.1103              3093.7883              3107.1395
 Red. masses --      1.0735                 1.0880                 1.0921
 Frc consts  --      5.9886                 6.1356                 6.2121
 IR Inten    --      2.6156                43.9350                55.6422

                     49                     50                     51
                      A                      A                      A
 Frequencies --   3133.8845              3144.8787              3790.9293
 Red. masses --      1.1108                 1.1100                 1.0656
 Frc consts  --      6.4274                 6.4684                 9.0230
 IR Inten    --     30.3174                32.8377                26.3539

 - Thermochemistry -
 -------------------
 Temperature   298.150 Kelvin.  Pressure   1.00000 Atm.
 Atom     1 has atomic number  8 and mass  15.99491

 Molecular mass:   126.06808 amu.
 Principal axes and moments of inertia in atomic units:
                           1         2         3
     Eigenvalues --   391.302301686.389361737.53670
           X            0.99996  -0.00869  -0.00096
           Y            0.00866   0.96865   0.24826
           Z           -0.00123  -0.24826   0.96869
 This molecule is an asymmetric top.
 Rotational symmetry number  1.
 Rotational temperatures (Kelvin)      0.22135     0.05136     0.04985
 Rotational constants (GHZ):           4.61214     1.07018     1.03868
 Zero-point vibrational energy     418905.6 (Joules/Mol)
                                  100.12083 (Kcal/Mol)
 Warning -- explicit consideration of  10 degrees of freedom as
           vibrations may cause significant error
 Vibrational temperatures:    136.59   213.21   310.81   472.90   528.04
          (Kelvin)            614.54   633.78   762.77   800.50   846.55
                             1005.85  1078.76  1113.16  1179.84  1217.55
                             1318.48  1368.25  1383.06  1410.81  1446.71
                             1474.07  1496.78  1552.92  1569.15  1589.90
                             1598.17  1646.28  1678.71  1700.68  1728.27
                             1731.04  1750.85  1777.13  1796.25  1907.55
                             1991.76  2010.27  2058.43  2147.54  2148.66
                             2207.92  4297.85  4391.39  4412.79  4421.83
                             4427.27  4451.27  4470.48  4508.96  4524.77
                             5454.29

 Zero-point correction=                           0.159553 (Hartree/Particle)
 Thermal correction to Energy=                    0.167146
 Thermal correction to Enthalpy=                  0.168090
 Thermal correction to Gibbs Free Energy=         0.127520
 Sum of electronic and zero-point Energies=           -422.882712
 Sum of electronic and thermal Energies=              -422.875119
 Sum of electronic and thermal Enthalpies=            -422.874175
 Sum of electronic and thermal Free Energies=         -422.914744

                     E (Thermal)             CV                S
                      KCal/Mol        Cal/Mol-Kelvin    Cal/Mol-Kelvin
 Total                  104.885             30.653             85.385
 Electronic               0.000              0.000              0.000
 Translational            0.889              2.981             40.409
 Rotational               0.889              2.981             28.530
 Vibrational            103.108             24.692             16.447
 Vibration     1          0.603              1.953              3.556
 Vibration     2          0.618              1.905              2.695
 Vibration     3          0.645              1.817              1.992
 Vibration     4          0.712              1.618              1.267
 Vibration     5          0.740              1.540              1.092
 Vibration     6          0.789              1.411              0.868
 Vibration     7          0.800              1.382              0.825
 Vibration     8          0.885              1.183              0.587
 Vibration     9          0.912              1.126              0.531
 Vibration    10          0.946              1.057              0.470

 Optimization completed.
    -- Stationary point found.
 Normal termination of Gaussian 09 at Tue Jan 28 14:13:54 2020.
