 Gaussian 09, Revision D.01,
 Gaussian 09:  ES64L-G09RevD.01 24-Apr-2013

 -----------------------------
 # b3lyp 6-31G(2df,p) opt Freq
 -----------------------------

 -----
 titel
 -----
 Symbolic Z-matrix:
 Charge =  0 Multiplicity = 1

 SCF Done:  E(RB3LYP) =  -423.135983577     A.U. after   14 cycles
 Optimization completed.
    -- Stationary point found.
 Normal termination of Gaussian 09 at Mon Jan 27 18:07:54 2020.

 ----------------------------------------------------------------------
 #N Geom=AllCheck Guess=TCheck SCRF=Check GenChk RB3LYP/6-31G(2df,p) Fr
 eq
 ----------------------------------------------------------------------

 Structure from the checkpoint file:  "/scratch/puck/g09_64a1e706-1242-4c18-a0f0-005db171b5b4/Gau-168533.chk"
 -----
 titel
 -----
 Charge =  0 Multiplicity = 1

                         Standard orientation:
 ---------------------------------------------------------------------
 Center     Atomic      Atomic             Coordinates (Angstroms)
 Number     Number       Type             X           Y           Z
 ---------------------------------------------------------------------
      1          6           0        1.777920   -0.674617   -1.201485
      2          6           0        0.786838   -0.365849   -0.125908
      3          8           0        1.272859    0.035756    1.205444
      4          6           0       -0.184669    0.044150    1.344960
      5          6           0       -0.321655   -1.264726    0.518301
      6          6           0       -1.564279   -1.127350   -0.340970
      7          8           0       -1.507530    0.269717   -0.699871
      8          6           0       -0.340639    0.729025   -0.050729
      9          6           0       -0.071570    2.185255   -0.280969
     10          1           0        2.420112    0.190856   -1.392618
     11          1           0        2.412971   -1.520035   -0.918869
     12          1           0        1.256888   -0.926740   -2.130710
     13          1           0       -0.606174    0.302174    2.316448
     14          1           0       -0.053301   -2.220844    0.964120
     15          1           0       -1.540745   -1.745905   -1.246556
     16          1           0       -2.496061   -1.334608    0.199099
     17          1           0        0.836516    2.471271    0.254920
     18          1           0        0.061813    2.390182   -1.347665
     19          1           0       -0.906331    2.794535    0.078055
 ---------------------------------------------------------------------

 SCF Done:  E(RB3LYP) =  -423.135983577     A.U. after    1 cycles

 The electronic state is 1-A.
 Alpha  occ. eigenvalues --  -19.14094 -19.13082 -10.24384 -10.24018 -10.23822
 Alpha  occ. eigenvalues --  -10.23141 -10.19759 -10.18613 -10.17706  -1.07223
 Alpha  occ. eigenvalues --   -1.02451  -0.78817  -0.76295  -0.74436  -0.67968
 Alpha  occ. eigenvalues --   -0.61724  -0.59074  -0.52905  -0.48855  -0.47918
 Alpha  occ. eigenvalues --   -0.46788  -0.44524  -0.43262  -0.42097  -0.40423
 Alpha  occ. eigenvalues --   -0.37729  -0.37212  -0.36700  -0.34315  -0.33507
 Alpha  occ. eigenvalues --   -0.32889  -0.30866  -0.24055  -0.23131
 Alpha virt. eigenvalues --    0.08205   0.09860   0.11469   0.12206   0.12643
 Alpha virt. eigenvalues --    0.13096   0.14247   0.14579   0.15548   0.16398
 Alpha virt. eigenvalues --    0.17851   0.18203   0.18857   0.19489   0.21363

 Mulliken charges:
               1
     1  C   -0.533333
     2  C    0.366227
     3  O   -0.351619
     4  C   -0.013913
     5  C   -0.132195
     6  C   -0.120430
     7  O   -0.318177
     8  C    0.418636
     9  C   -0.499618
    10  H    0.136170
    11  H    0.134000
    12  H    0.132891
    13  H    0.088436
    14  H    0.083803
    15  H    0.106986
    16  H    0.108043
    17  H    0.139729
    18  H    0.126207
    19  H    0.128157
 Sum of Mulliken charges =   0.00000

 Dipole moment (field-independent basis, Debye):
    X=             -0.4005    Y=             -0.9887    Z=             -0.4865  Tot=              1.1725
 Quadrupole moment (field-independent basis, Debye-Ang):
   XX=            -55.9051   YY=            -49.7822   ZZ=            -53.3448
   XY=              1.3931   XZ=             -5.3912   YZ=              0.8413

  Exact polarizability:  75.142   2.150  78.006  -3.470   0.952  70.998
 Approx polarizability: 111.272   2.119 108.930   0.070   1.462 108.773

                      1                      2                      3
                      A                      A                      A
 Frequencies --    166.9001               186.4336               208.7946
 Red. masses --      1.0625                 2.3349                 2.1531
 Frc consts  --      0.0174                 0.0478                 0.0553
 IR Inten    --      0.1751                 0.1766                 0.2041

                      4                      5                      6
                      A                      A                      A
 Frequencies --    233.7199               253.8303               285.6933
 Red. masses --      1.1817                 2.5415                 2.9696
 Frc consts  --      0.0380                 0.0965                 0.1428
 IR Inten    --      0.2595                 4.0186                 3.4632

                      7                      8                      9
                      A                      A                      A
 Frequencies --    389.7435               472.4696               504.7581
 Red. masses --      2.3293                 3.5745                 4.3995
 Frc consts  --      0.2085                 0.4701                 0.6604
 IR Inten    --      1.5096                 5.0334                 6.9418

                     10                     11                     12
                      A                      A                      A
 Frequencies --    655.4701               673.3982               691.2120
 Red. masses --      3.3343                 4.5923                 3.6992
 Frc consts  --      0.8440                 1.2269                 1.0413
 IR Inten    --      0.6524                 0.1235                 0.1491

                     13                     14                     15
                      A                      A                      A
 Frequencies --    727.3305               759.9669               782.9741
 Red. masses --      4.7435                 3.3080                 3.8058
 Frc consts  --      1.4785                 1.1257                 1.3746
 IR Inten    --      3.2865                 5.1621                12.6846

                     16                     17                     18
                      A                      A                      A
 Frequencies --    873.9355               917.2088               926.3193
 Red. masses --      2.4972                 2.2813                 3.0547
 Frc consts  --      1.1237                 1.1308                 1.5443
 IR Inten    --      0.6218                19.2950                 7.4957

                     19                     20                     21
                      A                      A                      A
 Frequencies --    949.2728               963.2560               992.6141
 Red. masses --      1.8648                 2.3403                 1.1744
 Frc consts  --      0.9900                 1.2794                 0.6817
 IR Inten    --     17.7676                 5.8781                 2.5093

                     22                     23                     24
                      A                      A                      A
 Frequencies --   1026.2876              1080.4000              1112.1070
 Red. masses --      4.0245                 1.7633                 1.8010
 Frc consts  --      2.4975                 1.2127                 1.3124
 IR Inten    --     53.5003                 7.0632                 8.3436

                     25                     26                     27
                      A                      A                      A
 Frequencies --   1128.2900              1145.6228              1168.6449
 Red. masses --      1.7883                 1.7995                 1.7168
 Frc consts  --      1.3413                 1.3915                 1.3814
 IR Inten    --      6.6565                15.1426                14.6667

                     28                     29                     30
                      A                      A                      A
 Frequencies --   1204.1012              1214.9563              1239.5540
 Red. masses --      2.2836                 1.5535                 1.6810
 Frc consts  --      1.9508                 1.3511                 1.5218
 IR Inten    --     40.2155                17.4571                23.2296

                     31                     32                     33
                      A                      A                      A
 Frequencies --   1274.4591              1328.6954              1352.1776
 Red. masses --      2.2552                 2.6154                 1.7877
 Frc consts  --      2.1582                 2.7204                 1.9258
 IR Inten    --      8.5444                 8.8222                 4.9541

                     34                     35                     36
                      A                      A                      A
 Frequencies --   1386.1742              1409.2713              1423.3631
 Red. masses --      1.5098                 1.6193                 2.2943
 Frc consts  --      1.7092                 1.8948                 2.7386
 IR Inten    --      4.3347                15.8388                18.9099

                     37                     38                     39
                      A                      A                      A
 Frequencies --   1474.8692              1485.2819              1489.0675
 Red. masses --      1.0500                 1.0477                 1.0485
 Frc consts  --      1.3457                 1.3618                 1.3698
 IR Inten    --      4.5847                 3.1679                 6.8552

                     40                     41                     42
                      A                      A                      A
 Frequencies --   1496.1766              1521.0562              3020.6678
 Red. masses --      1.0684                 1.1005                 1.0563
 Frc consts  --      1.4092                 1.5001                 5.6786
 IR Inten    --      1.1472                 0.7598                65.0090

                     43                     44                     45
                      A                      A                      A
 Frequencies --   3036.6429              3044.9013              3057.8053
 Red. masses --      1.0346                 1.0353                 1.1095
 Frc consts  --      5.6212                 5.6555                 6.1119
 IR Inten    --     14.9538                18.2724                33.3295

                     46                     47                     48
                      A                      A                      A
 Frequencies --   3109.1565              3110.3863              3111.3058
 Red. masses --      1.1016                 1.1012                 1.1006
 Frc consts  --      6.2742                 6.2770                 6.2774
 IR Inten    --     13.7965                13.2044                11.7461

                     49                     50                     51
                      A                      A                      A
 Frequencies --   3119.6488              3134.1183              3145.4128
 Red. masses --      1.0911                 1.1008                 1.0915
 Frc consts  --      6.2566                 6.3707                 6.3625
 IR Inten    --     42.6516                 7.1657                23.6114

 - Thermochemistry -
 -------------------
 Temperature   298.150 Kelvin.  Pressure   1.00000 Atm.
 Atom     1 has atomic number  6 and mass  12.00000

 Molecular mass:   126.06808 amu.
 Principal axes and moments of inertia in atomic units:
                           1         2         3
     Eigenvalues --   826.28145 918.203991086.76715
           X            0.99204   0.05604  -0.11279
           Y           -0.05392   0.99831   0.02183
           Z            0.11382  -0.01558   0.99338
 This molecule is an asymmetric top.
 Rotational symmetry number  1.
 Warning -- assumption of classical behavior for rotation
           may cause significant error
 Rotational temperatures (Kelvin)      0.10482     0.09433     0.07970
 Rotational constants (GHZ):           2.18417     1.96551     1.66065
 Zero-point vibrational energy     415498.4 (Joules/Mol)
                                   99.30649 (Kcal/Mol)
 Warning -- explicit consideration of   9 degrees of freedom as
           vibrations may cause significant error
 Vibrational temperatures:    240.13   268.24   300.41   336.27   365.20
          (Kelvin)            411.05   560.75   679.78   726.23   943.07
                              968.87   994.50  1046.47  1093.42  1126.52
                             1257.40  1319.66  1332.77  1365.79  1385.91
                             1428.15  1476.60  1554.45  1600.07  1623.36
                             1648.29  1681.42  1732.43  1748.05  1783.44
                             1833.66  1911.69  1945.48  1994.39  2027.62
                             2047.90  2122.01  2136.99  2142.43  2152.66
                             2188.46  4346.06  4369.05  4380.93  4399.49
                             4473.38  4475.15  4476.47  4488.47  4509.29
                             4525.54

 Zero-point correction=                           0.158255 (Hartree/Particle)
 Thermal correction to Energy=                    0.166250
 Thermal correction to Enthalpy=                  0.167194
 Thermal correction to Gibbs Free Energy=         0.126338
 Sum of electronic and zero-point Energies=           -422.977729
 Sum of electronic and thermal Energies=              -422.969734
 Sum of electronic and thermal Enthalpies=            -422.968790
 Sum of electronic and thermal Free Energies=         -423.009646

                     E (Thermal)             CV                S
                      KCal/Mol        Cal/Mol-Kelvin    Cal/Mol-Kelvin
 Total                  104.323             31.695             85.988
 Electronic               0.000              0.000              0.000
 Translational            0.889              2.981             40.409
 Rotational               0.889              2.981             28.202
 Vibrational            102.546             25.734             17.378
 Vibration     1          0.624              1.883              2.470
 Vibration     2          0.632              1.858              2.263
 Vibration     3          0.642              1.827              2.054
 Vibration     4          0.654              1.789              1.850
 Vibration     5          0.665              1.756              1.704
 Vibration     6          0.683              1.700              1.499
 Vibration     7          0.758              1.492              1.001
 Vibration     8          0.829              1.311              0.731
 Vibration     9          0.860              1.239              0.646

 Optimization completed.
    -- Stationary point found.
 Normal termination of Gaussian 09 at Mon Jan 27 18:57:10 2020.
