 Gaussian 09, Revision D.01,
 Gaussian 09:  ES64L-G09RevD.01 24-Apr-2013

 -----------------------------
 # b3lyp 6-31G(2df,p) opt Freq
 -----------------------------

 -----
 titel
 -----
 Symbolic Z-matrix:
 Charge =  0 Multiplicity = 1

 SCF Done:  E(RB3LYP) =  -423.142481334     A.U. after   14 cycles
 Optimization completed.
    -- Stationary point found.
 Normal termination of Gaussian 09 at Tue Jan 28 08:18:04 2020.

 ----------------------------------------------------------------------
 #N Geom=AllCheck Guess=TCheck SCRF=Check GenChk RB3LYP/6-31G(2df,p) Fr
 eq
 ----------------------------------------------------------------------

 Structure from the checkpoint file:  "/scratch/puck/g09_5493be2b-af42-48b1-bad0-bd04968a1040/Gau-8484.chk"
 -----
 titel
 -----
 Charge =  0 Multiplicity = 1

                         Standard orientation:
 ---------------------------------------------------------------------
 Center     Atomic      Atomic             Coordinates (Angstroms)
 Number     Number       Type             X           Y           Z
 ---------------------------------------------------------------------
      1          6           0       -0.840865    2.079353   -0.084928
      2          8           0       -0.048143    1.120625    0.594754
      3          6           0        0.026682   -0.161930    0.000424
      4          6           0        1.385621   -0.746537    0.417110
      5          6           0        2.553489    0.053496   -0.120871
      6          8           0        3.524362   -0.435022   -0.640913
      7          6           0       -1.120899   -1.093888    0.467333
      8          6           0       -2.428558   -0.799993   -0.106031
      9          6           0       -3.506242   -0.588321   -0.595481
     10          1           0       -1.906455    1.829502   -0.057794
     11          1           0       -0.680452    3.032590    0.424796
     12          1           0       -0.530399    2.182454   -1.135204
     13          1           0       -0.017329   -0.071670   -1.096131
     14          1           0        1.436712   -0.716674    1.514883
     15          1           0        1.497480   -1.784657    0.094280
     16          1           0        2.453530    1.152253    0.004279
     17          1           0       -0.852349   -2.127651    0.215844
     18          1           0       -1.166576   -1.037316    1.561856
     19          1           0       -4.459291   -0.396733   -1.022884
 ---------------------------------------------------------------------

 SCF Done:  E(RB3LYP) =  -423.142481334     A.U. after    1 cycles

 The electronic state is 1-A.
 Alpha  occ. eigenvalues --  -19.15263 -19.13819 -10.26968 -10.25771 -10.22872
 Alpha  occ. eigenvalues --  -10.21821 -10.19855 -10.19111 -10.17985  -1.04653
 Alpha  occ. eigenvalues --   -1.04255  -0.81956  -0.77193  -0.71511  -0.69132
 Alpha  occ. eigenvalues --   -0.61606  -0.57803  -0.53627  -0.51625  -0.49183
 Alpha  occ. eigenvalues --   -0.47495  -0.45390  -0.44602  -0.43129  -0.42638
 Alpha  occ. eigenvalues --   -0.41666  -0.39070  -0.37724  -0.35716  -0.32681
 Alpha  occ. eigenvalues --   -0.29154  -0.27378  -0.26208  -0.24243
 Alpha virt. eigenvalues --   -0.02291   0.04101   0.04899   0.09156   0.10069
 Alpha virt. eigenvalues --    0.12028   0.12297   0.13143   0.13526   0.15240
 Alpha virt. eigenvalues --    0.15787   0.17272   0.17587   0.19202   0.21448

 Mulliken charges:
               1
     1  C   -0.247059
     2  O   -0.252457
     3  C    0.093422
     4  C   -0.286916
     5  C    0.149618
     6  O   -0.242695
     7  C   -0.351929
     8  C    0.282717
     9  C   -0.426786
    10  H    0.134309
    11  H    0.128063
    12  H    0.109256
    13  H    0.089199
    14  H    0.132862
    15  H    0.120486
    16  H    0.092843
    17  H    0.134952
    18  H    0.140825
    19  H    0.199292
 Sum of Mulliken charges =   0.00000

 Dipole moment (field-independent basis, Debye):
    X=             -2.5973    Y=              0.4347    Z=              0.4076  Tot=              2.6648
 Quadrupole moment (field-independent basis, Debye-Ang):
   XX=            -63.0427   YY=            -50.8249   ZZ=            -53.4038
   XY=              0.3435   XZ=              5.6040   YZ=             -2.3841

  Exact polarizability: 103.208  -3.668  73.367   4.910  -1.208  60.669
 Approx polarizability: 142.813 -11.454 101.819   9.854  -0.046  98.162

                      1                      2                      3
                      A                      A                      A
 Frequencies --     28.4204                51.1464                81.9353
 Red. masses --      2.7870                 4.4667                 2.2828
 Frc consts  --      0.0013                 0.0069                 0.0090
 IR Inten    --      1.3352                 5.7977                 2.9616

                      4                      5                      6
                      A                      A                      A
 Frequencies --    100.6371               121.5021               184.0392
 Red. masses --      2.6445                 3.0811                 1.4437
 Frc consts  --      0.0158                 0.0268                 0.0288
 IR Inten    --      0.7922                 1.3468                 1.1536

                      7                      8                      9
                      A                      A                      A
 Frequencies --    219.2980               280.1881               337.0205
 Red. masses --      3.1039                 3.6151                 2.6436
 Frc consts  --      0.0879                 0.1672                 0.1769
 IR Inten    --      5.3850                 2.8807                 5.9948

                     10                     11                     12
                      A                      A                      A
 Frequencies --    346.7579               392.2576               434.9632
 Red. masses --      3.6653                 4.1676                 4.3956
 Frc consts  --      0.2597                 0.3778                 0.4900
 IR Inten    --      1.2738                 0.3110                 7.0774

                     13                     14                     15
                      A                      A                      A
 Frequencies --    505.6095               581.8133               619.6139
 Red. masses --      2.7787                 2.3110                 1.2039
 Frc consts  --      0.4185                 0.4609                 0.2723
 IR Inten    --      0.5287                18.3074                42.1864

                     16                     17                     18
                      A                      A                      A
 Frequencies --    639.1811               799.9412               835.5000
 Red. masses --      1.2137                 2.2675                 2.0996
 Frc consts  --      0.2922                 0.8549                 0.8635
 IR Inten    --     47.5699                 3.6631                 7.2586

                     19                     20                     21
                      A                      A                      A
 Frequencies --    914.1410               947.5577              1008.0511
 Red. masses --      1.9241                 3.6496                 3.6438
 Frc consts  --      0.9473                 1.9307                 2.1815
 IR Inten    --      2.7685                 2.0251                 9.4630

                     22                     23                     24
                      A                      A                      A
 Frequencies --   1050.2515              1095.1138              1103.7407
 Red. masses --      2.4673                 3.3878                 2.1960
 Frc consts  --      1.6035                 2.3938                 1.5762
 IR Inten    --      9.7502                33.6129                37.3730

                     25                     26                     27
                      A                      A                      A
 Frequencies --   1146.3917              1183.2441              1205.1824
 Red. masses --      5.6767                 1.2689                 1.3530
 Frc consts  --      4.3956                 1.0467                 1.1578
 IR Inten    --    138.9083                 1.4131                14.2480

                     28                     29                     30
                      A                      A                      A
 Frequencies --   1214.2826              1267.1842              1273.9607
 Red. masses --      1.2266                 1.2733                 1.3680
 Frc consts  --      1.0656                 1.2046                 1.3081
 IR Inten    --      4.9201                 1.5613                 7.8579

                     31                     32                     33
                      A                      A                      A
 Frequencies --   1329.2490              1372.1022              1387.0270
 Red. masses --      1.4011                 1.4588                 1.2173
 Frc consts  --      1.4586                 1.6181                 1.3799
 IR Inten    --     11.7890                14.8096                21.1335

                     34                     35                     36
                      A                      A                      A
 Frequencies --   1417.2323              1443.0103              1458.4313
 Red. masses --      1.2175                 1.0940                 1.0979
 Frc consts  --      1.4407                 1.3421                 1.3759
 IR Inten    --     13.9389                 2.4610                 5.2101

                     37                     38                     39
                      A                      A                      A
 Frequencies --   1480.4651              1491.1988              1513.6773
 Red. masses --      1.1024                 1.0906                 1.0595
 Frc consts  --      1.4236                 1.4289                 1.4303
 IR Inten    --      3.7401                 1.3659                 7.3993

                     40                     41                     42
                      A                      A                      A
 Frequencies --   1830.0248              2235.1480              2916.0842
 Red. masses --      9.9609                 5.9352                 1.0834
 Frc consts  --     19.6546                17.4701                 5.4281
 IR Inten    --    193.1133                 1.7552                74.9961

                     43                     44                     45
                      A                      A                      A
 Frequencies --   2985.3181              2996.8215              3021.1751
 Red. masses --      1.0800                 1.0455                 1.0628
 Frc consts  --      5.6711                 5.5324                 5.7153
 IR Inten    --     13.4052                54.1958                 1.7743

                     46                     47                     48
                      A                      A                      A
 Frequencies --   3026.6954              3064.6573              3077.5494
 Red. masses --      1.0611                 1.1012                 1.0903
 Frc consts  --      5.7271                 6.0939                 6.0845
 IR Inten    --     21.0680                 8.0042                35.1492

                     49                     50                     51
                      A                      A                      A
 Frequencies --   3109.6460              3120.6640              3504.3293
 Red. masses --      1.0964                 1.1033                 1.1619
 Frc consts  --      6.2466                 6.3304                 8.4070
 IR Inten    --     12.0531                22.5677                70.0787

 - Thermochemistry -
 -------------------
 Temperature   298.150 Kelvin.  Pressure   1.00000 Atm.
 Atom     1 has atomic number  6 and mass  12.00000

 Molecular mass:   126.06808 amu.
 Principal axes and moments of inertia in atomic units:
                           1         2         3
     Eigenvalues --   594.965862173.754962554.78848
           X            0.99993  -0.00597   0.00977
           Y            0.00634   0.99923  -0.03865
           Z           -0.00953   0.03871   0.99921
 This molecule is an asymmetric top.
 Rotational symmetry number  1.
 Warning -- assumption of classical behavior for rotation
           may cause significant error
 Rotational temperatures (Kelvin)      0.14558     0.03985     0.03390
 Rotational constants (GHZ):           3.03335     0.83024     0.70642
 Zero-point vibrational energy     405231.6 (Joules/Mol)
                                   96.85268 (Kcal/Mol)
 Warning -- explicit consideration of  15 degrees of freedom as
           vibrations may cause significant error
 Vibrational temperatures:     40.89    73.59   117.89   144.79   174.81
          (Kelvin)            264.79   315.52   403.13   484.90   498.91
                              564.37   625.81   727.46   837.10   891.49
                              919.64  1150.94  1202.10  1315.24  1363.32
                             1450.36  1511.08  1575.62  1588.03  1649.40
                             1702.42  1733.99  1747.08  1823.19  1832.94
                             1912.49  1974.15  1995.62  2039.08  2076.17
                             2098.35  2130.06  2145.50  2177.84  2632.99
                             3215.88  4195.59  4295.20  4311.75  4346.79
                             4354.73  4409.35  4427.90  4474.08  4489.93
                             5041.94

 Zero-point correction=                           0.154345 (Hartree/Particle)
 Thermal correction to Energy=                    0.165182
 Thermal correction to Enthalpy=                  0.166126
 Thermal correction to Gibbs Free Energy=         0.116556
 Sum of electronic and zero-point Energies=           -422.988137
 Sum of electronic and thermal Energies=              -422.977299
 Sum of electronic and thermal Enthalpies=            -422.976355
 Sum of electronic and thermal Free Energies=         -423.025926

                     E (Thermal)             CV                S
                      KCal/Mol        Cal/Mol-Kelvin    Cal/Mol-Kelvin
 Total                  103.653             36.959            104.330
 Electronic               0.000              0.000              0.000
 Translational            0.889              2.981             40.409
 Rotational               0.889              2.981             29.581
 Vibrational            101.876             30.997             34.340
 Vibration     1          0.593              1.984              5.937
 Vibration     2          0.595              1.977              4.773
 Vibration     3          0.600              1.962              3.844
 Vibration     4          0.604              1.949              3.442
 Vibration     5          0.609              1.931              3.076
 Vibration     6          0.631              1.862              2.287
 Vibration     7          0.647              1.812              1.965
 Vibration     8          0.680              1.710              1.533
 Vibration     9          0.718              1.602              1.226
 Vibration    10          0.725              1.582              1.181
 Vibration    11          0.760              1.487              0.992
 Vibration    12          0.796              1.394              0.843
 Vibration    13          0.861              1.238              0.644
 Vibration    14          0.939              1.071              0.482
 Vibration    15          0.980              0.990              0.417

 Optimization completed.
    -- Stationary point found.
 Normal termination of Gaussian 09 at Tue Jan 28 08:58:48 2020.
