 Gaussian 09, Revision D.01,
 Gaussian 09:  ES64L-G09RevD.01 24-Apr-2013

 -----------------------------
 # b3lyp 6-31G(2df,p) opt Freq
 -----------------------------

 -----
 titel
 -----
 Symbolic Z-matrix:
 Charge =  0 Multiplicity = 1

 SCF Done:  E(RB3LYP) =  -423.140916963     A.U. after   13 cycles
 Optimization completed.
    -- Stationary point found.
 Normal termination of Gaussian 09 at Tue Jan 28 02:52:49 2020.

 ----------------------------------------------------------------------
 #N Geom=AllCheck Guess=TCheck SCRF=Check GenChk RB3LYP/6-31G(2df,p) Fr
 eq
 ----------------------------------------------------------------------

 Structure from the checkpoint file:  "/scratch/puck/g09_fcaa9231-62b7-4c26-960e-30d1b162072b/Gau-113741.chk"
 -----
 titel
 -----
 Charge =  0 Multiplicity = 1

                         Standard orientation:
 ---------------------------------------------------------------------
 Center     Atomic      Atomic             Coordinates (Angstroms)
 Number     Number       Type             X           Y           Z
 ---------------------------------------------------------------------
      1          8           0        2.761092   -0.619675   -0.013994
      2          6           0        1.478041   -0.217325    0.406024
      3          6           0        1.110032    1.289091    0.203469
      4          6           0       -0.101037    0.883592   -0.684821
      5          6           0       -1.518904    0.794816   -0.076144
      6          6           0       -1.370973   -0.040936    1.212655
      7          6           0       -1.045623   -1.093206    0.128858
      8          8           0       -2.021654   -0.417215   -0.736576
      9          6           0        0.280708   -0.624633   -0.510102
     10          1           0        2.879421   -0.343594   -0.929267
     11          1           0        1.395671   -0.572125    1.436920
     12          1           0        0.884268    1.862135    1.107405
     13          1           0        1.893638    1.820417   -0.344705
     14          1           0       -0.126520    1.300859   -1.691851
     15          1           0       -2.185805    1.652967   -0.157436
     16          1           0       -0.633600    0.229857    1.970522
     17          1           0       -2.342596   -0.236044    1.666050
     18          1           0       -1.228031   -2.159647    0.258488
     19          1           0        0.554582   -1.208099   -1.391201
 ---------------------------------------------------------------------

 SCF Done:  E(RB3LYP) =  -423.140916963     A.U. after    1 cycles

 The electronic state is 1-A.
 Alpha  occ. eigenvalues --  -19.13909 -19.13175 -10.23899 -10.23818 -10.23333
 Alpha  occ. eigenvalues --  -10.18906 -10.18824 -10.18401 -10.18389  -1.04536
 Alpha  occ. eigenvalues --   -1.02185  -0.84072  -0.73861  -0.71029  -0.67425
 Alpha  occ. eigenvalues --   -0.62962  -0.55876  -0.53636  -0.52685  -0.49119
 Alpha  occ. eigenvalues --   -0.48836  -0.43323  -0.42735  -0.40869  -0.39862
 Alpha  occ. eigenvalues --   -0.38771  -0.36477  -0.34363  -0.32851  -0.32222
 Alpha  occ. eigenvalues --   -0.30637  -0.28836  -0.26712  -0.24078
 Alpha virt. eigenvalues --    0.06908   0.07944   0.10119   0.10538   0.10956
 Alpha virt. eigenvalues --    0.13188   0.14455   0.15835   0.16658   0.17062
 Alpha virt. eigenvalues --    0.17436   0.18389   0.19078   0.19274   0.21111

 Mulliken charges:
               1
     1  O   -0.439531
     2  C    0.144195
     3  C   -0.302012
     4  C   -0.013162
     5  C    0.064177
     6  C   -0.244775
     7  C    0.055985
     8  O   -0.298848
     9  C   -0.058721
    10  H    0.277049
    11  H    0.088296
    12  H    0.102497
    13  H    0.099311
    14  H    0.076035
    15  H    0.079133
    16  H    0.102226
    17  H    0.113905
    18  H    0.082180
    19  H    0.072060
 Sum of Mulliken charges =   0.00000

 Dipole moment (field-independent basis, Debye):
    X=              0.2386    Y=              1.1042    Z=              0.1664  Tot=              1.1419
 Quadrupole moment (field-independent basis, Debye-Ang):
   XX=            -60.2231   YY=            -51.8032   ZZ=            -51.3291
   XY=              0.8962   XZ=             -6.6887   YZ=             -0.7039

  Exact polarizability:  80.668   0.477  71.475  -3.075  -0.639  67.567
 Approx polarizability: 112.094  -0.468 108.420   0.412  -0.225 105.713

                      1                      2                      3
                      A                      A                      A
 Frequencies --    133.9957               249.7489               279.3830
 Red. masses --      3.4233                 2.3712                 3.5524
 Frc consts  --      0.0362                 0.0871                 0.1634
 IR Inten    --      3.2987                11.4267                 1.0891

                      4                      5                      6
                      A                      A                      A
 Frequencies --    312.6414               361.2985               463.4337
 Red. masses --      1.4937                 3.1044                 2.0914
 Frc consts  --      0.0860                 0.2388                 0.2646
 IR Inten    --     52.5771                30.5408                 4.6628

                      7                      8                      9
                      A                      A                      A
 Frequencies --    503.9399               557.1009               648.5726
 Red. masses --      2.7236                 3.6504                 3.6552
 Frc consts  --      0.4075                 0.6675                 0.9059
 IR Inten    --      4.3196                 5.6294                 0.4751

                     10                     11                     12
                      A                      A                      A
 Frequencies --    743.2642               772.8412               813.7600
 Red. masses --      3.1483                 2.5777                 2.9689
 Frc consts  --      1.0247                 0.9071                 1.1583
 IR Inten    --      9.1281                 6.3300                12.4305

                     13                     14                     15
                      A                      A                      A
 Frequencies --    843.9905               872.5996               876.2187
 Red. masses --      2.8383                 2.7922                 1.7812
 Frc consts  --      1.1912                 1.2526                 0.8057
 IR Inten    --     14.1923                23.1602                 1.9076

                     16                     17                     18
                      A                      A                      A
 Frequencies --    910.0143               919.0523               978.1556
 Red. masses --      3.0737                 3.5900                 2.1657
 Frc consts  --      1.4997                 1.7866                 1.2209
 IR Inten    --     26.3736                14.1511                 1.2197

                     19                     20                     21
                      A                      A                      A
 Frequencies --    993.4633              1001.4093              1023.8414
 Red. masses --      1.9545                 2.3208                 2.1959
 Frc consts  --      1.1366                 1.3712                 1.3562
 IR Inten    --      9.9238                 5.6314                 1.8020

                     22                     23                     24
                      A                      A                      A
 Frequencies --   1038.4824              1052.5702              1075.2215
 Red. masses --      1.5981                 2.8616                 1.5303
 Frc consts  --      1.0154                 1.8679                 1.0424
 IR Inten    --      2.6553                 4.3163                 1.7085

                     25                     26                     27
                      A                      A                      A
 Frequencies --   1120.4761              1125.7984              1155.8445
 Red. masses --      1.5034                 1.6878                 1.8696
 Frc consts  --      1.1121                 1.2603                 1.4717
 IR Inten    --     89.3743                39.3912                13.1817

                     28                     29                     30
                      A                      A                      A
 Frequencies --   1178.8850              1221.5807              1226.7949
 Red. masses --      1.4195                 1.3857                 1.4776
 Frc consts  --      1.1623                 1.2183                 1.3102
 IR Inten    --     22.2057                 9.6028                 5.9432

                     31                     32                     33
                      A                      A                      A
 Frequencies --   1237.9078              1249.0340              1267.5150
 Red. masses --      1.4970                 1.5115                 1.4065
 Frc consts  --      1.3516                 1.3893                 1.3314
 IR Inten    --      0.1868                 5.2708                 2.8172

                     34                     35                     36
                      A                      A                      A
 Frequencies --   1277.8503              1293.2067              1320.2915
 Red. masses --      1.4597                 1.4573                 1.6503
 Frc consts  --      1.4043                 1.4359                 1.6950
 IR Inten    --      2.1851                 8.0170                 4.9971

                     37                     38                     39
                      A                      A                      A
 Frequencies --   1331.8503              1346.4194              1437.0608
 Red. masses --      1.6928                 1.5172                 1.2212
 Frc consts  --      1.7691                 1.6205                 1.4859
 IR Inten    --      1.2033                 3.8400                56.3958

                     40                     41                     42
                      A                      A                      A
 Frequencies --   1472.2545              1500.2975              3050.6567
 Red. masses --      1.1122                 1.1280                 1.0592
 Frc consts  --      1.4203                 1.4959                 5.8079
 IR Inten    --      3.7998                 5.9262                29.7646

                     43                     44                     45
                      A                      A                      A
 Frequencies --   3069.7325              3083.6930              3091.4467
 Red. masses --      1.0862                 1.0605                 1.0873
 Frc consts  --      6.0307                 5.9415                 6.1226
 IR Inten    --     15.2448                29.5863                18.5475

                     46                     47                     48
                      A                      A                      A
 Frequencies --   3098.7728              3108.7264              3123.4593
 Red. masses --      1.0985                 1.0944                 1.0888
 Frc consts  --      6.2151                 6.2317                 6.2586
 IR Inten    --      1.0723                53.9614                78.8177

                     49                     50                     51
                      A                      A                      A
 Frequencies --   3128.1929              3149.8938              3803.0111
 Red. masses --      1.0951                 1.1075                 1.0659
 Frc consts  --      6.3140                 6.4740                 9.0829
 IR Inten    --      9.2154                24.1498                13.5251

 - Thermochemistry -
 -------------------
 Temperature   298.150 Kelvin.  Pressure   1.00000 Atm.
 Atom     1 has atomic number  8 and mass  15.99491

 Molecular mass:   126.06808 amu.
 Principal axes and moments of inertia in atomic units:
                           1         2         3
     Eigenvalues --   489.225621334.857931441.25946
           X            0.99972   0.00781  -0.02243
           Y           -0.00807   0.99990  -0.01176
           Z            0.02233   0.01194   0.99968
 This molecule is an asymmetric top.
 Rotational symmetry number  1.
 Warning -- assumption of classical behavior for rotation
           may cause significant error
 Rotational temperatures (Kelvin)      0.17704     0.06489     0.06010
 Rotational constants (GHZ):           3.68898     1.35201     1.25220
 Zero-point vibrational energy     424050.2 (Joules/Mol)
                                  101.35042 (Kcal/Mol)
 Warning -- explicit consideration of   8 degrees of freedom as
           vibrations may cause significant error
 Vibrational temperatures:    192.79   359.33   401.97   449.82   519.83
          (Kelvin)            666.78   725.06   801.54   933.15  1069.39
                             1111.94  1170.82  1214.31  1255.47  1260.68
                             1309.31  1322.31  1407.35  1429.37  1440.80
                             1473.08  1494.14  1514.41  1547.00  1612.11
                             1619.77  1663.00  1696.15  1757.58  1765.08
                             1781.07  1797.08  1823.67  1838.54  1860.63
                             1899.60  1916.23  1937.19  2067.61  2118.24
                             2158.59  4389.21  4416.65  4436.74  4447.90
                             4458.44  4472.76  4493.96  4500.77  4531.99
                             5471.68

 Zero-point correction=                           0.161512 (Hartree/Particle)
 Thermal correction to Energy=                    0.168505
 Thermal correction to Enthalpy=                  0.169449
 Thermal correction to Gibbs Free Energy=         0.130365
 Sum of electronic and zero-point Energies=           -422.979405
 Sum of electronic and thermal Energies=              -422.972412
 Sum of electronic and thermal Enthalpies=            -422.971468
 Sum of electronic and thermal Free Energies=         -423.010552

                     E (Thermal)             CV                S
                      KCal/Mol        Cal/Mol-Kelvin    Cal/Mol-Kelvin
 Total                  105.739             29.185             82.259
 Electronic               0.000              0.000              0.000
 Translational            0.889              2.981             40.409
 Rotational               0.889              2.981             28.333
 Vibrational            103.961             23.224             13.517
 Vibration     1          0.613              1.919              2.888
 Vibration     2          0.663              1.763              1.732
 Vibration     3          0.680              1.712              1.537
 Vibration     4          0.701              1.650              1.348
 Vibration     5          0.735              1.552              1.117
 Vibration     6          0.821              1.331              0.756
 Vibration     7          0.859              1.241              0.648
 Vibration     8          0.913              1.124              0.530

 Optimization completed.
    -- Stationary point found.
 Normal termination of Gaussian 09 at Tue Jan 28 03:38:42 2020.
