 Gaussian 09, Revision D.01,
 Gaussian 09:  ES64L-G09RevD.01 24-Apr-2013

 -----------------------------
 # b3lyp 6-31G(2df,p) opt Freq
 -----------------------------

 -----
 titel
 -----
 Symbolic Z-matrix:
 Charge =  0 Multiplicity = 1

 SCF Done:  E(RB3LYP) =  -423.093217599     A.U. after   14 cycles
 Optimization completed.
    -- Stationary point found.
 Normal termination of Gaussian 09 at Mon Jan 27 16:08:15 2020.

 ----------------------------------------------------------------------
 #N Geom=AllCheck Guess=TCheck SCRF=Check GenChk RB3LYP/6-31G(2df,p) Fr
 eq
 ----------------------------------------------------------------------

 Structure from the checkpoint file:  "/scratch/puck/g09_82db6ec9-3442-43f1-9309-244e1bc78c7d/Gau-10620.chk"
 -----
 titel
 -----
 Charge =  0 Multiplicity = 1

                         Standard orientation:
 ---------------------------------------------------------------------
 Center     Atomic      Atomic             Coordinates (Angstroms)
 Number     Number       Type             X           Y           Z
 ---------------------------------------------------------------------
      1          6           0        1.839412   -0.147117    1.262894
      2          6           0        0.982964   -0.211062    0.000020
      3          6           0        1.839421   -0.147441   -1.262863
      4          6           0       -0.176608   -1.251893    0.000122
      5          6           0       -1.095437   -0.370129   -0.898157
      6          8           0       -2.243612   -0.433226    0.000041
      7          6           0       -1.095435   -0.369953    0.898231
      8          6           0       -0.296144    0.649794   -0.000063
      9          8           0       -0.316062    2.020662   -0.000190
     10          1           0        1.235098   -0.195470    2.173905
     11          1           0        2.554485   -0.976832    1.291638
     12          1           0        2.414118    0.784842    1.294374
     13          1           0        2.553861   -0.977694   -1.291818
     14          1           0        1.235043   -0.195107   -2.173868
     15          1           0        2.414841    0.784083   -1.294149
     16          1           0       -0.133424   -2.338975    0.000223
     17          1           0       -1.273536   -0.401927   -1.971867
     18          1           0       -1.273538   -0.401538    1.971946
     19          1           0       -1.238601    2.305933   -0.000294
 ---------------------------------------------------------------------

 SCF Done:  E(RB3LYP) =  -423.093217599     A.U. after    1 cycles

 The electronic state is 1-A.
 Alpha  occ. eigenvalues --  -19.15735 -19.12974 -10.24663 -10.24134 -10.24131
 Alpha  occ. eigenvalues --  -10.20211 -10.19955 -10.17518 -10.17518  -1.06748
 Alpha  occ. eigenvalues --   -1.03370  -0.87141  -0.74959  -0.69296  -0.64938
 Alpha  occ. eigenvalues --   -0.63682  -0.58607  -0.54842  -0.51874  -0.46756
 Alpha  occ. eigenvalues --   -0.45749  -0.45657  -0.42461  -0.39064  -0.39003
 Alpha  occ. eigenvalues --   -0.38131  -0.37781  -0.37380  -0.35414  -0.31350
 Alpha  occ. eigenvalues --   -0.30602  -0.29587  -0.25797  -0.23196
 Alpha virt. eigenvalues --    0.07377   0.07591   0.10680   0.10722   0.11780
 Alpha virt. eigenvalues --    0.12321   0.13346   0.15230   0.17156   0.18117
 Alpha virt. eigenvalues --    0.18129   0.18898   0.20247   0.20497   0.21449

 Mulliken charges:
               1
     1  C   -0.454496
     2  C    0.240515
     3  C   -0.454488
     4  C   -0.119380
     5  C   -0.018668
     6  O   -0.342213
     7  C   -0.018667
     8  C    0.361132
     9  O   -0.473051
    10  H    0.114064
    11  H    0.114219
    12  H    0.125453
    13  H    0.114224
    14  H    0.114066
    15  H    0.125439
    16  H    0.084181
    17  H    0.096226
    18  H    0.096227
    19  H    0.295216
 Sum of Mulliken charges =   0.00000

 Dipole moment (field-independent basis, Debye):
    X=              0.9176    Y=             -0.2102    Z=             -0.0001  Tot=              0.9413
 Quadrupole moment (field-independent basis, Debye-Ang):
   XX=            -57.2821   YY=            -53.0104   ZZ=            -50.5967
   XY=             -4.5188   XZ=              0.0006   YZ=              0.0000

  Exact polarizability:  80.444  -0.843  69.761   0.000   0.000  72.395
 Approx polarizability: 114.274  -0.158 108.605   0.000   0.000 108.572

                      1                      2                      3
                      A                      A                      A
 Frequencies --    183.4055               187.5474               194.3822
 Red. masses --      1.9415                 1.2725                 1.7541
 Frc consts  --      0.0385                 0.0264                 0.0390
 IR Inten    --      0.3229                 0.0376                 3.8472

                      4                      5                      6
                      A                      A                      A
 Frequencies --    221.2664               241.0200               320.5361
 Red. masses --      3.0347                 1.6216                 3.4510
 Frc consts  --      0.0875                 0.0555                 0.2089
 IR Inten    --      0.0004                 4.3115                 2.8017

                      7                      8                      9
                      A                      A                      A
 Frequencies --    339.7935               350.6801               404.5611
 Red. masses --      1.3796                 2.5198                 2.0749
 Frc consts  --      0.0938                 0.1826                 0.2001
 IR Inten    --     47.9110                 1.5715                47.1721

                     10                     11                     12
                      A                      A                      A
 Frequencies --    547.1135               594.8428               610.1597
 Red. masses --      3.3628                 2.8953                 3.9855
 Frc consts  --      0.5931                 0.6036                 0.8742
 IR Inten    --      0.5552                 0.2133                 1.3332

                     13                     14                     15
                      A                      A                      A
 Frequencies --    692.8387               777.3774               807.9094
 Red. masses --      3.9715                 5.3307                 2.1015
 Frc consts  --      1.1232                 1.8980                 0.8082
 IR Inten    --     12.5172                 0.0031                 1.7170

                     16                     17                     18
                      A                      A                      A
 Frequencies --    850.8925               886.2428               890.0424
 Red. masses --      4.7244                 2.4082                 1.8949
 Frc consts  --      2.0153                 1.1144                 0.8844
 IR Inten    --     25.9772                 2.9734                 0.6493

                     19                     20                     21
                      A                      A                      A
 Frequencies --    904.9196               919.1957               954.2349
 Red. masses --      3.2633                 2.6012                 1.4176
 Frc consts  --      1.5745                 1.2949                 0.7605
 IR Inten    --     42.6230                18.1072                 0.0058

                     22                     23                     24
                      A                      A                      A
 Frequencies --    990.6242              1009.6068              1024.3290
 Red. masses --      1.7792                 1.5273                 1.5402
 Frc consts  --      1.0287                 0.9172                 0.9522
 IR Inten    --     17.3051                 0.0513                 0.4759

                     25                     26                     27
                      A                      A                      A
 Frequencies --   1076.7693              1128.5542              1138.2618
 Red. masses --      2.4132                 1.4794                 1.9968
 Frc consts  --      1.6485                 1.1102                 1.5243
 IR Inten    --      6.8417                 0.9589                 1.5219

                     28                     29                     30
                      A                      A                      A
 Frequencies --   1169.7604              1170.6429              1209.6957
 Red. masses --      1.4120                 2.0668                 2.4923
 Frc consts  --      1.1383                 1.6688                 2.1488
 IR Inten    --      4.8895                20.6750                 7.9045

                     31                     32                     33
                      A                      A                      A
 Frequencies --   1236.0683              1262.6538              1283.2773
 Red. masses --      3.8454                 1.6815                 2.6135
 Frc consts  --      3.4616                 1.5795                 2.5358
 IR Inten    --     10.3326               106.0892                29.0654

                     34                     35                     36
                      A                      A                      A
 Frequencies --   1359.6169              1405.9548              1416.0556
 Red. masses --      2.4168                 1.2710                 1.8611
 Frc consts  --      2.6322                 1.4803                 2.1987
 IR Inten    --    111.4881                 7.8011                 8.8068

                     37                     38                     39
                      A                      A                      A
 Frequencies --   1429.5220              1479.1683              1489.4298
 Red. masses --      1.5784                 1.0442                 1.0485
 Frc consts  --      1.9004                 1.3460                 1.3704
 IR Inten    --      8.1238                 0.0042                 3.3251

                     40                     41                     42
                      A                      A                      A
 Frequencies --   1502.3902              1511.5310              3028.2826
 Red. masses --      1.0516                 1.1174                 1.0355
 Frc consts  --      1.3986                 1.5041                 5.5947
 IR Inten    --     11.1079                 5.0841                21.1444

                     43                     44                     45
                      A                      A                      A
 Frequencies --   3032.6167              3091.1917              3095.3093
 Red. masses --      1.0360                 1.1010                 1.1004
 Frc consts  --      5.6134                 6.1985                 6.2116
 IR Inten    --     25.0670                 0.2988                38.2444

                     46                     47                     48
                      A                      A                      A
 Frequencies --   3102.6334              3104.8548              3129.3098
 Red. masses --      1.1009                 1.1004                 1.0898
 Frc consts  --      6.2440                 6.2498                 6.2880
 IR Inten    --      9.5484                34.2920                68.8931

                     49                     50                     51
                      A                      A                      A
 Frequencies --   3131.4929              3150.9548              3778.3917
 Red. masses --      1.0904                 1.0979                 1.0652
 Frc consts  --      6.2998                 6.4222                 8.9598
 IR Inten    --      7.2785                17.1296                31.2363

 - Thermochemistry -
 -------------------
 Temperature   298.150 Kelvin.  Pressure   1.00000 Atm.
 Atom     1 has atomic number  6 and mass  12.00000

 Molecular mass:   126.06808 amu.
 Principal axes and moments of inertia in atomic units:
                           1         2         3
     Eigenvalues --   687.793781139.923311243.90758
           X            0.99966  -0.02597   0.00000
           Y            0.02597   0.99966   0.00004
           Z            0.00000  -0.00004   1.00000
 This molecule is an asymmetric top.
 Rotational symmetry number  1.
 Warning -- assumption of classical behavior for rotation
           may cause significant error
 Rotational temperatures (Kelvin)      0.12593     0.07598     0.06963
 Rotational constants (GHZ):           2.62396     1.58321     1.45086
 Zero-point vibrational energy     411622.5 (Joules/Mol)
                                   98.38014 (Kcal/Mol)
 Warning -- explicit consideration of  12 degrees of freedom as
           vibrations may cause significant error
 Vibrational temperatures:    263.88   269.84   279.67   318.35   346.77
          (Kelvin)            461.18   488.89   504.55   582.07   787.17
                              855.85   877.88   996.84  1118.47  1162.40
                             1224.24  1275.10  1280.57  1301.98  1322.52
                             1372.93  1425.29  1452.60  1473.78  1549.23
                             1623.74  1637.70  1683.02  1684.29  1740.48
                             1778.42  1816.67  1846.35  1956.18  2022.85
                             2037.39  2056.76  2128.19  2142.95  2161.60
                             2174.75  4357.02  4363.25  4447.53  4453.45
                             4463.99  4467.19  4502.37  4505.51  4533.52
                             5436.26

 Zero-point correction=                           0.156779 (Hartree/Particle)
 Thermal correction to Energy=                    0.165241
 Thermal correction to Enthalpy=                  0.166185
 Thermal correction to Gibbs Free Energy=         0.124514
 Sum of electronic and zero-point Energies=           -422.936439
 Sum of electronic and thermal Energies=              -422.927976
 Sum of electronic and thermal Enthalpies=            -422.927032
 Sum of electronic and thermal Free Energies=         -422.968704

                     E (Thermal)             CV                S
                      KCal/Mol        Cal/Mol-Kelvin    Cal/Mol-Kelvin
 Total                  103.690             33.542             87.706
 Electronic               0.000              0.000              0.000
 Translational            0.889              2.981             40.409
 Rotational               0.889              2.981             28.369
 Vibrational            101.913             27.581             18.928
 Vibration     1          0.631              1.862              2.293
 Vibration     2          0.632              1.857              2.252
 Vibration     3          0.635              1.848              2.186
 Vibration     4          0.648              1.809              1.949
 Vibration     5          0.658              1.778              1.795
 Vibration     6          0.706              1.634              1.307
 Vibration     7          0.720              1.596              1.213
 Vibration     8          0.728              1.574              1.163
 Vibration     9          0.770              1.460              0.946
 Vibration    10          0.902              1.146              0.550
 Vibration    11          0.953              1.043              0.459
 Vibration    12          0.969              1.010              0.433

 Normal termination of Gaussian 09 at Mon Jan 27 18:04:42 2020.
