 Gaussian 09, Revision D.01,
 Gaussian 09:  ES64L-G09RevD.01 24-Apr-2013

 -----------------------------
 # b3lyp 6-31G(2df,p) opt Freq
 -----------------------------

 -----
 titel
 -----
 Symbolic Z-matrix:
 Charge =  0 Multiplicity = 1

 SCF Done:  E(RB3LYP) =  -423.198559927     A.U. after   14 cycles
 Optimization completed.
    -- Stationary point found.
 Normal termination of Gaussian 09 at Mon Jan 27 11:18:45 2020.

 ----------------------------------------------------------------------
 #N Geom=AllCheck Guess=TCheck SCRF=Check GenChk RB3LYP/6-31G(2df,p) Fr
 eq
 ----------------------------------------------------------------------

 Structure from the checkpoint file:  "/scratch/puck/g09_c108cb49-6007-4121-934e-b9224e7a801e/Gau-70223.chk"
 -----
 titel
 -----
 Charge =  0 Multiplicity = 1

                         Standard orientation:
 ---------------------------------------------------------------------
 Center     Atomic      Atomic             Coordinates (Angstroms)
 Number     Number       Type             X           Y           Z
 ---------------------------------------------------------------------
      1          6           0       -2.277771    1.264476   -0.232865
      2          6           0       -1.574967   -0.063685   -0.014888
      3          8           0       -2.177998   -1.115351   -0.105125
      4          6           0       -0.114544   -0.044338    0.286740
      5          6           0        0.494854   -1.331070    0.848768
      6          6           0        0.806266   -0.944470   -0.553027
      7          8           0        1.987971   -0.268597   -0.851391
      8          6           0        2.131142    0.806541    0.077654
      9          6           0        0.699594    1.225687    0.491605
     10          1           0       -2.169409    1.913233    0.643048
     11          1           0       -1.838770    1.799451   -1.082768
     12          1           0       -3.334665    1.080842   -0.427978
     13          1           0        1.257947   -1.244328    1.614136
     14          1           0       -0.217977   -2.137192    0.977677
     15          1           0        0.426078   -1.521386   -1.387162
     16          1           0        2.708394    0.478231    0.952312
     17          1           0        2.693481    1.601665   -0.417895
     18          1           0        0.679017    1.601910    1.519162
     19          1           0        0.328669    2.020318   -0.162323
 ---------------------------------------------------------------------

 SCF Done:  E(RB3LYP) =  -423.198559927     A.U. after    1 cycles

 The electronic state is 1-A.
 Alpha  occ. eigenvalues --  -19.15333 -19.11994 -10.26763 -10.24751 -10.23969
 Alpha  occ. eigenvalues --  -10.20396 -10.20111 -10.19218 -10.18871  -1.05676
 Alpha  occ. eigenvalues --   -1.03170  -0.86008  -0.77234  -0.74328  -0.66017
 Alpha  occ. eigenvalues --   -0.62262  -0.58024  -0.54703  -0.50933  -0.47796
 Alpha  occ. eigenvalues --   -0.45696  -0.44138  -0.43450  -0.42744  -0.42519
 Alpha  occ. eigenvalues --   -0.40401  -0.39298  -0.37056  -0.35799  -0.34073
 Alpha  occ. eigenvalues --   -0.33671  -0.28712  -0.24759  -0.23790
 Alpha virt. eigenvalues --   -0.01093   0.08009   0.09411   0.11078   0.11546
 Alpha virt. eigenvalues --    0.12948   0.13828   0.15173   0.15546   0.16684
 Alpha virt. eigenvalues --    0.17302   0.17800   0.20022   0.22388   0.22778

 Mulliken charges:
               1
     1  C   -0.494380
     2  C    0.294285
     3  O   -0.324729
     4  C    0.206431
     5  C   -0.363893
     6  C    0.108254
     7  O   -0.250141
     8  C   -0.094898
     9  C   -0.337591
    10  H    0.137934
    11  H    0.141647
    12  H    0.142182
    13  H    0.117666
    14  H    0.146332
    15  H    0.123419
    16  H    0.106252
    17  H    0.117473
    18  H    0.111501
    19  H    0.112255
 Sum of Mulliken charges =   0.00000

 Dipole moment (field-independent basis, Debye):
    X=              1.0515    Y=              2.6176    Z=              1.0331  Tot=              3.0041
 Quadrupole moment (field-independent basis, Debye-Ang):
   XX=            -58.4906   YY=            -52.3578   ZZ=            -52.3882
   XY=             -3.0291   XZ=              2.7766   YZ=             -0.3868

  Exact polarizability:  87.914   1.285  78.295   2.787  -0.993  61.638
 Approx polarizability: 121.589   6.190 118.036   0.134   0.320  98.109

                      1                      2                      3
                      A                      A                      A
 Frequencies --     57.3551               146.5680               173.5480
 Red. masses --      3.9564                 2.9261                 1.1582
 Frc consts  --      0.0077                 0.0370                 0.0206
 IR Inten    --      2.9730                 1.7711                 0.1033

                      4                      5                      6
                      A                      A                      A
 Frequencies --    207.6843               255.2047               311.3684
 Red. masses --      2.7658                 2.4620                 2.8638
 Frc consts  --      0.0703                 0.0945                 0.1636
 IR Inten    --      0.5748                 7.7283                 3.6755

                      7                      8                      9
                      A                      A                      A
 Frequencies --    391.6777               452.4377               472.8631
 Red. masses --      2.9863                 2.9408                 3.4922
 Frc consts  --      0.2699                 0.3547                 0.4601
 IR Inten    --      3.6970                 1.2415                 1.5862

                     10                     11                     12
                      A                      A                      A
 Frequencies --    586.1014               612.7393               683.3894
 Red. masses --      2.7150                 3.0235                 2.8661
 Frc consts  --      0.5495                 0.6688                 0.7886
 IR Inten    --      5.0870                14.7344                 1.5604

                     13                     14                     15
                      A                      A                      A
 Frequencies --    695.0228               813.1944               837.4361
 Red. masses --      3.7199                 3.0332                 2.2116
 Frc consts  --      1.0587                 1.1818                 0.9138
 IR Inten    --      9.7811                52.5561                22.3934

                     16                     17                     18
                      A                      A                      A
 Frequencies --    883.0234               914.2201               946.0420
 Red. masses --      2.0219                 1.7724                 2.2047
 Frc consts  --      0.9289                 0.8728                 1.1626
 IR Inten    --     12.0002                 3.4730                33.9508

                     19                     20                     21
                      A                      A                      A
 Frequencies --    964.5100              1005.5095              1015.5516
 Red. masses --      2.0359                 2.4857                 1.9329
 Frc consts  --      1.1159                 1.4807                 1.1745
 IR Inten    --      2.7164                23.8864                21.0078

                     22                     23                     24
                      A                      A                      A
 Frequencies --   1036.6990              1048.2865              1080.5965
 Red. masses --      1.6499                 1.5836                 1.6428
 Frc consts  --      1.0447                 1.0253                 1.1302
 IR Inten    --     20.1099                 2.3273                 1.7491

                     25                     26                     27
                      A                      A                      A
 Frequencies --   1107.5465              1156.9945              1177.1908
 Red. masses --      1.8527                 2.2176                 2.8713
 Frc consts  --      1.3390                 1.7491                 2.3443
 IR Inten    --      1.7088                54.3126                74.2705

                     28                     29                     30
                      A                      A                      A
 Frequencies --   1221.0735              1241.7298              1267.9903
 Red. masses --      1.2619                 1.2661                 2.2500
 Frc consts  --      1.1085                 1.1502                 2.1314
 IR Inten    --      3.6097                17.9032                 7.6996

                     31                     32                     33
                      A                      A                      A
 Frequencies --   1290.6483              1333.5037              1364.4024
 Red. masses --      1.7453                 1.7879                 1.4126
 Frc consts  --      1.7129                 1.8732                 1.5494
 IR Inten    --     75.6619                 6.0248                12.9156

                     34                     35                     36
                      A                      A                      A
 Frequencies --   1385.1540              1407.1843              1460.2086
 Red. masses --      1.4481                 1.5394                 1.3297
 Frc consts  --      1.6369                 1.7960                 1.6704
 IR Inten    --     44.0879                42.4143                29.7209

                     37                     38                     39
                      A                      A                      A
 Frequencies --   1463.8560              1476.0960              1497.5153
 Red. masses --      1.0569                 1.0535                 1.0963
 Frc consts  --      1.3344                 1.3525                 1.4486
 IR Inten    --     12.3371                 9.9692                 3.4131

                     40                     41                     42
                      A                      A                      A
 Frequencies --   1527.9067              1773.4686              3012.4678
 Red. masses --      1.0894                10.6344                 1.0701
 Frc consts  --      1.4984                19.7065                 5.7215
 IR Inten    --      0.7771               149.7883                48.2144

                     43                     44                     45
                      A                      A                      A
 Frequencies --   3036.1298              3052.9106              3089.1342
 Red. masses --      1.0376                 1.0589                 1.0979
 Frc consts  --      5.6355                 5.8149                 6.1730
 IR Inten    --      1.9666                25.6803                20.5118

                     46                     47                     48
                      A                      A                      A
 Frequencies --   3097.1840              3103.2047              3139.9672
 Red. masses --      1.0981                 1.1019                 1.0538
 Frc consts  --      6.2064                 6.2516                 6.1215
 IR Inten    --      6.1015                36.7634                 9.2545

                     49                     50                     51
                      A                      A                      A
 Frequencies --   3153.5339              3198.3467              3237.2177
 Red. masses --      1.1015                 1.0923                 1.1169
 Frc consts  --      6.4539                 6.5834                 6.8962
 IR Inten    --     10.9428                 6.1396                 0.9541

 - Thermochemistry -
 -------------------
 Temperature   298.150 Kelvin.  Pressure   1.00000 Atm.
 Atom     1 has atomic number  6 and mass  12.00000

 Molecular mass:   126.06808 amu.
 Principal axes and moments of inertia in atomic units:
                           1         2         3
     Eigenvalues --   582.735421351.184501653.31712
           X            0.99952  -0.02459   0.01909
           Y            0.02488   0.99958  -0.01499
           Z           -0.01871   0.01546   0.99971
 This molecule is an asymmetric top.
 Rotational symmetry number  1.
 Warning -- assumption of classical behavior for rotation
           may cause significant error
 Rotational temperatures (Kelvin)      0.14863     0.06410     0.05239
 Rotational constants (GHZ):           3.09702     1.33567     1.09159
 Zero-point vibrational energy     417877.1 (Joules/Mol)
                                   99.87502 (Kcal/Mol)
 Warning -- explicit consideration of  11 degrees of freedom as
           vibrations may cause significant error
 Vibrational temperatures:     82.52   210.88   249.70   298.81   367.18
          (Kelvin)            447.99   563.54   650.96   680.34   843.27
                              881.59   983.24   999.98  1170.00  1204.88
                             1270.47  1315.36  1361.14  1387.71  1446.70
                             1461.15  1491.58  1508.25  1554.74  1593.51
                             1664.66  1693.71  1756.85  1786.57  1824.35
                             1856.95  1918.61  1963.07  1992.93  2024.62
                             2100.91  2106.16  2123.77  2154.59  2198.31
                             2551.62  4334.26  4368.31  4392.45  4444.57
                             4456.15  4464.81  4517.71  4537.23  4601.70
                             4657.63

 Zero-point correction=                           0.159161 (Hartree/Particle)
 Thermal correction to Energy=                    0.167556
 Thermal correction to Enthalpy=                  0.168501
 Thermal correction to Gibbs Free Energy=         0.125924
 Sum of electronic and zero-point Energies=           -423.039399
 Sum of electronic and thermal Energies=              -423.031004
 Sum of electronic and thermal Enthalpies=            -423.030059
 Sum of electronic and thermal Free Energies=         -423.072636

                     E (Thermal)             CV                S
                      KCal/Mol        Cal/Mol-Kelvin    Cal/Mol-Kelvin
 Total                  105.143             31.958             89.610
 Electronic               0.000              0.000              0.000
 Translational            0.889              2.981             40.409
 Rotational               0.889              2.981             28.656
 Vibrational            103.366             25.996             20.546
 Vibration     1          0.596              1.975              4.546
 Vibration     2          0.617              1.906              2.716
 Vibration     3          0.627              1.875              2.397
 Vibration     4          0.641              1.829              2.064
 Vibration     5          0.666              1.754              1.694
 Vibration     6          0.700              1.652              1.355
 Vibration     7          0.759              1.488              0.994
 Vibration     8          0.811              1.356              0.788
 Vibration     9          0.830              1.310              0.730
 Vibration    10          0.943              1.061              0.474
 Vibration    11          0.972              1.005              0.428

 Optimization completed.
    -- Stationary point found.
 Normal termination of Gaussian 09 at Mon Jan 27 12:07:53 2020.
