 Gaussian 09, Revision D.01,
 Gaussian 09:  ES64L-G09RevD.01 24-Apr-2013

 -----------------------------
 # b3lyp 6-31G(2df,p) opt Freq
 -----------------------------

 -----
 titel
 -----
 Symbolic Z-matrix:
 Charge =  0 Multiplicity = 1

 SCF Done:  E(RB3LYP) =  -423.198485123     A.U. after   14 cycles
 Optimization completed.
    -- Stationary point found.
 Normal termination of Gaussian 09 at Mon Jan 27 22:01:21 2020.

 ----------------------------------------------------------------------
 #N Geom=AllCheck Guess=TCheck SCRF=Check GenChk RB3LYP/6-31G(2df,p) Fr
 eq
 ----------------------------------------------------------------------

 Structure from the checkpoint file:  "/scratch/puck/g09_c883f542-8301-4ef0-be6f-6ff3065221df/Gau-45691.chk"
 -----
 titel
 -----
 Charge =  0 Multiplicity = 1

                         Standard orientation:
 ---------------------------------------------------------------------
 Center     Atomic      Atomic             Coordinates (Angstroms)
 Number     Number       Type             X           Y           Z
 ---------------------------------------------------------------------
      1          8           0        0.231380    1.793520    1.062262
      2          6           0        0.078913    0.749576    0.110296
      3          6           0       -1.273097    0.824352   -0.635872
      4          8           0       -1.672667   -0.517542   -0.842569
      5          6           0       -1.384889   -1.189484    0.378587
      6          6           0       -0.029498   -0.618052    0.861812
      7          6           0        1.178072   -1.389955    0.404244
      8          6           0        1.897386   -0.733477   -0.502698
      9          6           0        1.317133    0.617499   -0.827642
     10          1           0        0.341752    2.621763    0.583171
     11          1           0       -1.989778    1.363602    0.005935
     12          1           0       -1.225670    1.316559   -1.611600
     13          1           0       -2.175100   -0.988835    1.119621
     14          1           0       -1.362308   -2.262783    0.173643
     15          1           0       -0.036655   -0.455266    1.943954
     16          1           0        1.404564   -2.380641    0.784393
     17          1           0        2.799730   -1.105947   -0.975670
     18          1           0        2.027852    1.429716   -0.625993
     19          1           0        1.041784    0.691260   -1.887365
 ---------------------------------------------------------------------

 SCF Done:  E(RB3LYP) =  -423.198485123     A.U. after    1 cycles

 The electronic state is 1-A.
 Alpha  occ. eigenvalues --  -19.13947 -19.13658 -10.23739 -10.22327 -10.22040
 Alpha  occ. eigenvalues --  -10.18558 -10.18466 -10.18112 -10.17808  -1.03951
 Alpha  occ. eigenvalues --   -1.01845  -0.83554  -0.74407  -0.72303  -0.68007
 Alpha  occ. eigenvalues --   -0.60500  -0.56952  -0.54166  -0.51734  -0.48498
 Alpha  occ. eigenvalues --   -0.46965  -0.44990  -0.43181  -0.42190  -0.38837
 Alpha  occ. eigenvalues --   -0.37932  -0.36941  -0.35867  -0.33987  -0.33458
 Alpha  occ. eigenvalues --   -0.30353  -0.27201  -0.25183  -0.23976
 Alpha virt. eigenvalues --    0.02308   0.07078   0.09773   0.11680   0.12116
 Alpha virt. eigenvalues --    0.13169   0.14634   0.15790   0.16339   0.17468
 Alpha virt. eigenvalues --    0.17527   0.18589   0.20192   0.21855   0.22559

 Mulliken charges:
               1
     1  O   -0.479689
     2  C    0.364413
     3  C   -0.142069
     4  O   -0.243981
     5  C   -0.098374
     6  C   -0.093215
     7  C   -0.076175
     8  C   -0.058989
     9  C   -0.320228
    10  H    0.276872
    11  H    0.087448
    12  H    0.098886
    13  H    0.089371
    14  H    0.106856
    15  H    0.093917
    16  H    0.092081
    17  H    0.093999
    18  H    0.100973
    19  H    0.107905
 Sum of Mulliken charges =   0.00000

 Dipole moment (field-independent basis, Debye):
    X=              0.8471    Y=              0.7767    Z=             -0.2669  Tot=              1.1799
 Quadrupole moment (field-independent basis, Debye-Ang):
   XX=            -54.6214   YY=            -47.3744   ZZ=            -55.5753
   XY=             -0.6874   XZ=             -3.5867   YZ=             -4.7895

  Exact polarizability:  77.503  -0.194  79.796  -8.602  -7.793  67.914
 Approx polarizability: 107.348   4.763 116.272 -14.377 -13.094 111.083

                      1                      2                      3
                      A                      A                      A
 Frequencies --     56.7320               184.0357               264.5319
 Red. masses --      2.5797                 4.9058                 2.2296
 Frc consts  --      0.0049                 0.0979                 0.0919
 IR Inten    --      0.3060                 2.2275                 1.6248

                      4                      5                      6
                      A                      A                      A
 Frequencies --    272.4745               330.6619               379.7824
 Red. masses --      1.0817                 2.7721                 4.6212
 Frc consts  --      0.0473                 0.1786                 0.3927
 IR Inten    --     93.6139                 3.2052                15.7919

                      7                      8                      9
                      A                      A                      A
 Frequencies --    421.0982               459.3065               583.0690
 Red. masses --      2.0178                 2.5070                 5.4485
 Frc consts  --      0.2108                 0.3116                 1.0914
 IR Inten    --      3.7954                 1.3837                 0.3248

                     10                     11                     12
                      A                      A                      A
 Frequencies --    601.9117               679.7336               750.3109
 Red. masses --      4.4045                 2.1671                 2.2764
 Frc consts  --      0.9402                 0.5899                 0.7551
 IR Inten    --      0.7398                 2.5752                32.7281

                     13                     14                     15
                      A                      A                      A
 Frequencies --    769.1944               830.0491               868.6556
 Red. masses --      3.8650                 3.2064                 2.0545
 Frc consts  --      1.3473                 1.3016                 0.9134
 IR Inten    --      4.2224                13.1976                 4.3868

                     16                     17                     18
                      A                      A                      A
 Frequencies --    923.7423               957.8450               966.2255
 Red. masses --      1.8311                 3.1134                 2.5151
 Frc consts  --      0.9206                 1.6830                 1.3834
 IR Inten    --      5.6081                 8.9602                22.0217

                     19                     20                     21
                      A                      A                      A
 Frequencies --    976.5911               991.0252              1025.3343
 Red. masses --      1.3269                 1.8611                 2.3792
 Frc consts  --      0.7456                 1.0769                 1.4737
 IR Inten    --      1.6763                 2.7707                 3.5076

                     22                     23                     24
                      A                      A                      A
 Frequencies --   1051.8072              1084.9202              1094.2526
 Red. masses --      2.8402                 1.8648                 3.0509
 Frc consts  --      1.8513                 1.2933                 2.1523
 IR Inten    --     91.3593                13.9031                21.6200

                     25                     26                     27
                      A                      A                      A
 Frequencies --   1127.5366              1133.2216              1171.6707
 Red. masses --      1.9027                 1.3026                 2.4311
 Frc consts  --      1.4252                 0.9856                 1.9663
 IR Inten    --     13.6971                 6.1403                 8.7471

                     28                     29                     30
                      A                      A                      A
 Frequencies --   1206.7814              1220.3585              1271.4861
 Red. masses --      1.4021                 1.2381                 1.6165
 Frc consts  --      1.2030                 1.0864                 1.5397
 IR Inten    --     13.7794                 8.3362                26.5571

                     31                     32                     33
                      A                      A                      A
 Frequencies --   1285.2219              1301.9292              1316.4248
 Red. masses --      1.2798                 1.5197                 1.4113
 Frc consts  --      1.2455                 1.5177                 1.4410
 IR Inten    --      2.9558                20.6371                26.3687

                     34                     35                     36
                      A                      A                      A
 Frequencies --   1338.9371              1359.7591              1374.1934
 Red. masses --      1.5265                 1.3493                 1.6895
 Frc consts  --      1.6123                 1.4699                 1.8797
 IR Inten    --      6.7741                 4.8154                 2.1029

                     37                     38                     39
                      A                      A                      A
 Frequencies --   1413.0172              1467.1846              1502.8071
 Red. masses --      1.5299                 1.0969                 1.0824
 Frc consts  --      1.7997                 1.3912                 1.4402
 IR Inten    --      5.9709                 1.7237                 0.1682

                     40                     41                     42
                      A                      A                      A
 Frequencies --   1517.0749              1694.3452              2966.1982
 Red. masses --      1.1040                 6.3602                 1.0686
 Frc consts  --      1.4971                10.7578                 5.5394
 IR Inten    --      2.0480                 2.2048                46.0505

                     43                     44                     45
                      A                      A                      A
 Frequencies --   2976.2652              3014.2155              3046.7737
 Red. masses --      1.0710                 1.0591                 1.1024
 Frc consts  --      5.5895                 5.6695                 6.0296
 IR Inten    --     93.4085                33.6266                18.6322

                     46                     47                     48
                      A                      A                      A
 Frequencies --   3063.3604              3084.8229              3095.1245
 Red. masses --      1.0844                 1.0942                 1.0939
 Frc consts  --      5.9955                 6.1347                 6.1742
 IR Inten    --     21.8756                31.1808                25.4494

                     49                     50                     51
                      A                      A                      A
 Frequencies --   3176.8359              3202.4651              3805.4623
 Red. masses --      1.0840                 1.1039                 1.0661
 Frc consts  --      6.4458                 6.6705                 9.0963
 IR Inten    --      6.6014                26.1628                17.3300

 - Thermochemistry -
 -------------------
 Temperature   298.150 Kelvin.  Pressure   1.00000 Atm.
 Atom     1 has atomic number  8 and mass  15.99491

 Molecular mass:   126.06808 amu.
 Principal axes and moments of inertia in atomic units:
                           1         2         3
     Eigenvalues --   801.35419 955.977831248.67555
           X            0.99860  -0.03165  -0.04247
           Y            0.02856   0.99703  -0.07156
           Z            0.04461   0.07025   0.99653
 This molecule is an asymmetric top.
 Rotational symmetry number  1.
 Warning -- assumption of classical behavior for rotation
           may cause significant error
 Rotational temperatures (Kelvin)      0.10808     0.09060     0.06936
 Rotational constants (GHZ):           2.25211     1.88785     1.44532
 Zero-point vibrational energy     422621.3 (Joules/Mol)
                                  101.00891 (Kcal/Mol)
 Warning -- explicit consideration of  10 degrees of freedom as
           vibrations may cause significant error
 Vibrational temperatures:     81.62   264.79   380.60   392.03   475.75
          (Kelvin)            546.42   605.87   660.84   838.91   866.02
                              977.98  1079.53  1106.70  1194.25  1249.80
                             1329.06  1378.12  1390.18  1405.10  1425.86
                             1475.23  1513.31  1560.96  1574.38  1622.27
                             1630.45  1685.77  1736.29  1755.82  1829.38
                             1849.15  1873.18  1894.04  1926.43  1956.39
                             1977.16  2033.01  2110.95  2162.20  2182.73
                             2437.78  4267.69  4282.18  4336.78  4383.62
                             4407.49  4438.37  4453.19  4570.75  4607.63
                             5475.20

 Zero-point correction=                           0.160968 (Hartree/Particle)
 Thermal correction to Energy=                    0.168670
 Thermal correction to Enthalpy=                  0.169614
 Thermal correction to Gibbs Free Energy=         0.128673
 Sum of electronic and zero-point Energies=           -423.037517
 Sum of electronic and thermal Energies=              -423.029815
 Sum of electronic and thermal Enthalpies=            -423.028871
 Sum of electronic and thermal Free Energies=         -423.069812

                     E (Thermal)             CV                S
                      KCal/Mol        Cal/Mol-Kelvin    Cal/Mol-Kelvin
 Total                  105.842             30.522             86.169
 Electronic               0.000              0.000              0.000
 Translational            0.889              2.981             40.409
 Rotational               0.889              2.981             28.350
 Vibrational            104.065             24.561             17.411
 Vibration     1          0.596              1.975              4.568
 Vibration     2          0.631              1.862              2.287
 Vibration     3          0.671              1.738              1.632
 Vibration     4          0.675              1.724              1.580
 Vibration     5          0.713              1.614              1.257
 Vibration     6          0.750              1.513              1.040
 Vibration     7          0.784              1.424              0.888
 Vibration     8          0.817              1.340              0.768
 Vibration     9          0.940              1.068              0.480
 Vibration    10          0.960              1.028              0.446

 Optimization completed.
    -- Stationary point found.
 Normal termination of Gaussian 09 at Mon Jan 27 22:53:19 2020.
