 Gaussian 09, Revision D.01,
 Gaussian 09:  ES64L-G09RevD.01 24-Apr-2013

 -----------------------------
 # b3lyp 6-31G(2df,p) opt Freq
 -----------------------------

 -----
 titel
 -----
 Symbolic Z-matrix:
 Charge =  0 Multiplicity = 1

 SCF Done:  E(RB3LYP) =  -423.178772196     A.U. after   14 cycles
 Optimization completed.
    -- Stationary point found.
 Normal termination of Gaussian 09 at Tue Jan 28 13:30:18 2020.

 ----------------------------------------------------------------------
 #N Geom=AllCheck Guess=TCheck SCRF=Check GenChk RB3LYP/6-31G(2df,p) Fr
 eq
 ----------------------------------------------------------------------

 Structure from the checkpoint file:  "/scratch/puck/g09_bd44ad8f-5c4a-4e2e-ad3e-a1216b17977f/Gau-118582.chk"
 -----
 titel
 -----
 Charge =  0 Multiplicity = 1

                         Standard orientation:
 ---------------------------------------------------------------------
 Center     Atomic      Atomic             Coordinates (Angstroms)
 Number     Number       Type             X           Y           Z
 ---------------------------------------------------------------------
      1          8           0       -2.977172    0.390814    0.092088
      2          6           0       -2.093582   -0.669763    0.388749
      3          6           0       -0.854934   -0.612287   -0.509174
      4          6           0        0.398456   -1.487011   -0.162592
      5          6           0        1.229997   -0.198153   -0.005145
      6          6           0        2.614656    0.129280   -0.529120
      7          6           0        2.359347    0.139082    0.942674
      8          6           0        0.006087    0.630635   -0.236581
      9          8           0       -0.257958    1.803369   -0.139130
     10          1           0       -2.459341    1.206616    0.121523
     11          1           0       -1.778273   -0.656481    1.446281
     12          1           0       -2.646190   -1.601724    0.227697
     13          1           0       -1.163026   -0.678078   -1.557447
     14          1           0        0.286972   -2.056857    0.764339
     15          1           0        0.719868   -2.162604   -0.957631
     16          1           0        3.181060   -0.694171   -0.951167
     17          1           0        2.731547    1.078471   -1.041035
     18          1           0        2.753564   -0.675317    1.541114
     19          1           0        2.294708    1.095986    1.449799
 ---------------------------------------------------------------------

 SCF Done:  E(RB3LYP) =  -423.178772196     A.U. after    1 cycles

 The electronic state is 1-A.
 Alpha  occ. eigenvalues --  -19.14203 -19.12708 -10.26936 -10.23242 -10.21108
 Alpha  occ. eigenvalues --  -10.20862 -10.20630 -10.20047 -10.19639  -1.04877
 Alpha  occ. eigenvalues --   -1.01048  -0.88854  -0.82044  -0.69956  -0.63908
 Alpha  occ. eigenvalues --   -0.61904  -0.60280  -0.52143  -0.51176  -0.49899
 Alpha  occ. eigenvalues --   -0.47201  -0.44735  -0.44301  -0.41742  -0.39828
 Alpha  occ. eigenvalues --   -0.39520  -0.37699  -0.36946  -0.35440  -0.33280
 Alpha  occ. eigenvalues --   -0.31097  -0.29543  -0.26361  -0.24349
 Alpha virt. eigenvalues --   -0.02899   0.08921   0.09465   0.10309   0.10936
 Alpha virt. eigenvalues --    0.11097   0.14181   0.14741   0.15583   0.17008
 Alpha virt. eigenvalues --    0.18049   0.18305   0.19042   0.21772   0.22455

 Mulliken charges:
               1
     1  O   -0.422831
     2  C   -0.070958
     3  C   -0.123212
     4  C   -0.373077
     5  C    0.248650
     6  C   -0.306812
     7  C   -0.308851
     8  C    0.344224
     9  O   -0.344314
    10  H    0.297493
    11  H    0.085056
    12  H    0.110802
    13  H    0.110374
    14  H    0.112619
    15  H    0.112386
    16  H    0.126721
    17  H    0.137204
    18  H    0.126105
    19  H    0.138420
 Sum of Mulliken charges =   0.00000

 Dipole moment (field-independent basis, Debye):
    X=              2.8108    Y=             -2.3904    Z=              0.0627  Tot=              3.6903
 Quadrupole moment (field-independent basis, Debye-Ang):
   XX=            -58.4207   YY=            -54.6654   ZZ=            -51.2632
   XY=              0.9124   XZ=             -0.3141   YZ=              0.4251

  Exact polarizability:  93.830   0.095  75.515   1.541   0.316  63.904
 Approx polarizability: 121.837  -4.458 119.033   3.105   0.506  97.595

                      1                      2                      3
                      A                      A                      A
 Frequencies --     46.7287               121.5220               173.5822
 Red. masses --      4.6256                 4.8375                 2.6714
 Frc consts  --      0.0060                 0.0421                 0.0474
 IR Inten    --      0.0606                 5.6164                 0.4096

                      4                      5                      6
                      A                      A                      A
 Frequencies --    182.3040               215.1656               262.3721
 Red. masses --      2.6353                 4.2084                 3.1511
 Frc consts  --      0.0516                 0.1148                 0.1278
 IR Inten    --      0.9640                 5.6477                 2.3537

                      7                      8                      9
                      A                      A                      A
 Frequencies --    329.6158               372.8091               487.4029
 Red. masses --      2.1393                 5.1018                 1.1729
 Frc consts  --      0.1369                 0.4178                 0.1642
 IR Inten    --      1.7834                 2.5686               101.3167

                     10                     11                     12
                      A                      A                      A
 Frequencies --    513.9604               578.2058               711.0170
 Red. masses --      2.5671                 3.9062                 2.5759
 Frc consts  --      0.3995                 0.7694                 0.7672
 IR Inten    --     18.3633                 0.7932                 4.2785

                     13                     14                     15
                      A                      A                      A
 Frequencies --    731.3746               782.5057               814.0474
 Red. masses --      4.1995                 1.1790                 2.1538
 Frc consts  --      1.3235                 0.4254                 0.8409
 IR Inten    --      2.2905                 1.4465                 1.7863

                     16                     17                     18
                      A                      A                      A
 Frequencies --    837.8216               893.1614               925.5743
 Red. masses --      2.9216                 1.7636                 1.2350
 Frc consts  --      1.2083                 0.8289                 0.6234
 IR Inten    --      7.3035                 1.2617                 3.7650

                     19                     20                     21
                      A                      A                      A
 Frequencies --    949.2588               997.0915              1029.4368
 Red. masses --      2.4304                 2.1223                 3.8463
 Frc consts  --      1.2903                 1.2432                 2.4016
 IR Inten    --     16.0888                19.4469                63.5713

                     22                     23                     24
                      A                      A                      A
 Frequencies --   1053.7537              1073.0294              1078.5293
 Red. masses --      1.3492                 1.6132                 4.0862
 Frc consts  --      0.8827                 1.0944                 2.8005
 IR Inten    --      6.7108                 9.2575                86.0511

                     25                     26                     27
                      A                      A                      A
 Frequencies --   1086.4649              1120.8523              1146.9576
 Red. masses --      1.9118                 1.9136                 1.5900
 Frc consts  --      1.3296                 1.4164                 1.2324
 IR Inten    --     48.1178                 9.2146                14.1626

                     28                     29                     30
                      A                      A                      A
 Frequencies --   1181.4820              1199.6068              1215.6544
 Red. masses --      1.2161                 1.3045                 1.6478
 Frc consts  --      1.0001                 1.1061                 1.4347
 IR Inten    --      6.7118                 0.1876                10.7195

                     31                     32                     33
                      A                      A                      A
 Frequencies --   1241.4082              1263.4838              1314.1026
 Red. masses --      1.3847                 1.8917                 1.6100
 Frc consts  --      1.2573                 1.7792                 1.6381
 IR Inten    --      3.0667                 5.3201                26.5293

                     34                     35                     36
                      A                      A                      A
 Frequencies --   1361.9004              1383.4552              1446.3612
 Red. masses --      2.5878                 1.3353                 1.2227
 Frc consts  --      2.8279                 1.5058                 1.5070
 IR Inten    --     47.7464                 7.6950                90.0125

                     37                     38                     39
                      A                      A                      A
 Frequencies --   1458.6053              1487.9517              1489.9632
 Red. masses --      1.0878                 1.0983                 1.3971
 Frc consts  --      1.3635                 1.4327                 1.8274
 IR Inten    --      2.2759                 2.6146                 4.9957

                     40                     41                     42
                      A                      A                      A
 Frequencies --   1515.2945              1847.3425              2956.5340
 Red. masses --      1.0887                12.3017                 1.0712
 Frc consts  --      1.4729                24.7350                 5.5166
 IR Inten    --      0.7062               236.1611                53.9917

                     43                     44                     45
                      A                      A                      A
 Frequencies --   3060.3757              3060.9019              3072.0559
 Red. masses --      1.0854                 1.0604                 1.0896
 Frc consts  --      5.9896                 5.8534                 6.0584
 IR Inten    --     14.6476                33.6650                21.7111

                     46                     47                     48
                      A                      A                      A
 Frequencies --   3116.3898              3131.6046              3133.5468
 Red. masses --      1.1062                 1.0493                 1.0577
 Frc consts  --      6.3300                 6.0632                 6.1189
 IR Inten    --     18.8414                12.2674                 7.7304

                     49                     50                     51
                      A                      A                      A
 Frequencies --   3215.2943              3230.0503              3755.2832
 Red. masses --      1.1188                 1.1167                 1.0663
 Frc consts  --      6.8145                 6.8645                 8.8595
 IR Inten    --      0.0348                 5.8170                46.5391

 - Thermochemistry -
 -------------------
 Temperature   298.150 Kelvin.  Pressure   1.00000 Atm.
 Atom     1 has atomic number  8 and mass  15.99491

 Molecular mass:   126.06808 amu.
 Principal axes and moments of inertia in atomic units:
                           1         2         3
     Eigenvalues --   523.548631624.809191912.52436
           X            0.99997   0.00743  -0.00099
           Y           -0.00742   0.99996   0.00526
           Z            0.00103  -0.00526   0.99999
 This molecule is an asymmetric top.
 Rotational symmetry number  1.
 Warning -- assumption of classical behavior for rotation
           may cause significant error
 Rotational temperatures (Kelvin)      0.16544     0.05331     0.04529
 Rotational constants (GHZ):           3.44713     1.11074     0.94364
 Zero-point vibrational energy     416618.6 (Joules/Mol)
                                   99.57424 (Kcal/Mol)
 Warning -- explicit consideration of  11 degrees of freedom as
           vibrations may cause significant error
 Vibrational temperatures:     67.23   174.84   249.75   262.29   309.57
          (Kelvin)            377.49   474.24   536.39   701.26   739.47
                              831.91  1022.99  1052.28  1125.85  1171.23
                             1205.44  1285.06  1331.69  1365.77  1434.59
                             1481.13  1516.11  1543.85  1551.76  1563.18
                             1612.65  1650.21  1699.89  1725.96  1749.05
                             1786.11  1817.87  1890.70  1959.47  1990.48
                             2080.99  2098.61  2140.83  2143.72  2180.17
                             2657.91  4253.79  4403.19  4403.95  4420.00
                             4483.78  4505.67  4508.47  4626.09  4647.32
                             5403.01

 Zero-point correction=                           0.158682 (Hartree/Particle)
 Thermal correction to Energy=                    0.167533
 Thermal correction to Enthalpy=                  0.168477
 Thermal correction to Gibbs Free Energy=         0.124656
 Sum of electronic and zero-point Energies=           -423.020091
 Sum of electronic and thermal Energies=              -423.011240
 Sum of electronic and thermal Enthalpies=            -423.010295
 Sum of electronic and thermal Free Energies=         -423.054116

                     E (Thermal)             CV                S
                      KCal/Mol        Cal/Mol-Kelvin    Cal/Mol-Kelvin
 Total                  105.128             32.989             92.228
 Electronic               0.000              0.000              0.000
 Translational            0.889              2.981             40.409
 Rotational               0.889              2.981             28.877
 Vibrational            103.351             27.028             22.942
 Vibration     1          0.595              1.979              4.951
 Vibration     2          0.609              1.931              3.076
 Vibration     3          0.627              1.875              2.396
 Vibration     4          0.630              1.864              2.305
 Vibration     5          0.645              1.818              1.999
 Vibration     6          0.670              1.742              1.646
 Vibration     7          0.712              1.616              1.262
 Vibration     8          0.744              1.528              1.068
 Vibration     9          0.843              1.278              0.690
 Vibration    10          0.869              1.219              0.624
 Vibration    11          0.935              1.078              0.489

 Optimization completed.
    -- Stationary point found.
 Normal termination of Gaussian 09 at Tue Jan 28 14:10:47 2020.
