 Gaussian 09, Revision D.01,
 Gaussian 09:  ES64L-G09RevD.01 24-Apr-2013

 -----------------------------
 # b3lyp 6-31G(2df,p) opt Freq
 -----------------------------

 -----
 titel
 -----
 Symbolic Z-matrix:
 Charge =  0 Multiplicity = 1

 SCF Done:  E(RB3LYP) =  -423.121534794     A.U. after   13 cycles
 Optimization completed.
    -- Stationary point found.
 Normal termination of Gaussian 09 at Mon Jan 27 12:14:55 2020.

 ----------------------------------------------------------------------
 #N Geom=AllCheck Guess=TCheck SCRF=Check GenChk RB3LYP/6-31G(2df,p) Fr
 eq
 ----------------------------------------------------------------------

 Structure from the checkpoint file:  "/scratch/puck/g09_348d5a56-a211-4cf1-b61d-3fdde82c2d55/Gau-45186.chk"
 -----
 titel
 -----
 Charge =  0 Multiplicity = 1

                         Standard orientation:
 ---------------------------------------------------------------------
 Center     Atomic      Atomic             Coordinates (Angstroms)
 Number     Number       Type             X           Y           Z
 ---------------------------------------------------------------------
      1          6           0        2.355043   -0.331465    0.308038
      2          8           0        1.408406   -1.262768   -0.273977
      3          6           0        0.646476   -0.189894   -0.861853
      4          6           0        1.562092    0.881794   -0.206650
      5          6           0        0.378534    1.312694    0.701001
      6          6           0       -0.539730    0.254509    0.028221
      7          6           0       -1.890682    0.623152   -0.613468
      8          8           0       -2.543325   -0.501811    0.003649
      9          6           0       -1.359363   -0.808886    0.774570
     10          1           0        2.433962   -0.440650    1.397233
     11          1           0        3.350182   -0.454690   -0.136951
     12          1           0        0.471094   -0.336478   -1.932152
     13          1           0        2.104818    1.653475   -0.749785
     14          1           0        0.541876    1.189475    1.776356
     15          1           0        0.042511    2.338275    0.522411
     16          1           0       -2.308012    1.581334   -0.271071
     17          1           0       -1.940873    0.584477   -1.709798
     18          1           0       -1.506128   -0.607128    1.844833
     19          1           0       -1.024304   -1.842879    0.642391
 ---------------------------------------------------------------------

 SCF Done:  E(RB3LYP) =  -423.121534794     A.U. after    1 cycles

 The electronic state is 1-A.
 Alpha  occ. eigenvalues --  -19.13836 -19.12790 -10.23610 -10.23569 -10.22921
 Alpha  occ. eigenvalues --  -10.22391 -10.19797 -10.19701 -10.19270  -1.04527
 Alpha  occ. eigenvalues --   -1.03237  -0.83212  -0.73261  -0.68840  -0.67434
 Alpha  occ. eigenvalues --   -0.65170  -0.56553  -0.52805  -0.51587  -0.49185
 Alpha  occ. eigenvalues --   -0.48574  -0.45538  -0.43967  -0.42653  -0.40512
 Alpha  occ. eigenvalues --   -0.39172  -0.37704  -0.34964  -0.33389  -0.31520
 Alpha  occ. eigenvalues --   -0.30002  -0.27862  -0.25080  -0.24181
 Alpha virt. eigenvalues --    0.05924   0.07120   0.08946   0.10002   0.11451
 Alpha virt. eigenvalues --    0.12647   0.13751   0.14595   0.15395   0.15736
 Alpha virt. eigenvalues --    0.17141   0.18446   0.19914   0.20051   0.20383

 Mulliken charges:
               1
     1  C   -0.078561
     2  O   -0.288149
     3  C    0.040680
     4  C   -0.074378
     5  C   -0.339250
     6  C    0.296571
     7  C   -0.135871
     8  O   -0.274863
     9  C   -0.129818
    10  H    0.101930
    11  H    0.105222
    12  H    0.074661
    13  H    0.080878
    14  H    0.103916
    15  H    0.107329
    16  H    0.093175
    17  H    0.101061
    18  H    0.094250
    19  H    0.121217
 Sum of Mulliken charges =   0.00000

 Dipole moment (field-independent basis, Debye):
    X=              1.8677    Y=              2.3091    Z=              0.1549  Tot=              2.9739
 Quadrupole moment (field-independent basis, Debye-Ang):
   XX=            -57.8636   YY=            -54.7887   ZZ=            -50.5525
   XY=             -0.2928   XZ=              0.7189   YZ=             -1.4097

  Exact polarizability:  83.310  -2.050  69.624   2.414  -1.797  70.042
 Approx polarizability: 108.584  -1.623 104.965   4.249  -1.795 104.599

                      1                      2                      3
                      A                      A                      A
 Frequencies --     78.6032                84.5681               198.6132
 Red. masses --      3.0219                 4.0221                 3.1754
 Frc consts  --      0.0110                 0.0169                 0.0738
 IR Inten    --      0.0863                 4.0814                 3.3964

                      4                      5                      6
                      A                      A                      A
 Frequencies --    254.9141               333.2926               365.0624
 Red. masses --      2.5863                 2.4226                 1.9280
 Frc consts  --      0.0990                 0.1586                 0.1514
 IR Inten    --      3.0363                 1.0191                 0.2131

                      7                      8                      9
                      A                      A                      A
 Frequencies --    456.2897               510.9896               737.6905
 Red. masses --      3.0831                 4.0353                 3.3651
 Frc consts  --      0.3782                 0.6208                 1.0789
 IR Inten    --      0.7609                 4.4924                 1.4715

                     10                     11                     12
                      A                      A                      A
 Frequencies --    785.2665               839.7859               843.6944
 Red. masses --      2.0640                 2.2806                 1.8763
 Frc consts  --      0.7499                 0.9476                 0.7869
 IR Inten    --      2.5377                 3.2417                 3.5538

                     13                     14                     15
                      A                      A                      A
 Frequencies --    872.2709               891.6293               914.0815
 Red. masses --      2.4455                 2.1495                 3.7980
 Frc consts  --      1.0963                 1.0068                 1.8697
 IR Inten    --     16.4638                 9.8910                 7.0552

                     16                     17                     18
                      A                      A                      A
 Frequencies --    950.8883               972.9160               985.4714
 Red. masses --      1.6769                 1.7483                 4.2134
 Frc consts  --      0.8934                 0.9750                 2.4108
 IR Inten    --      2.9611                10.0555                10.0186

                     19                     20                     21
                      A                      A                      A
 Frequencies --   1010.1978              1022.3599              1034.7724
 Red. masses --      3.9444                 2.3622                 7.3470
 Frc consts  --      2.3716                 1.4547                 4.6350
 IR Inten    --     68.6430                22.3687                77.5612

                     22                     23                     24
                      A                      A                      A
 Frequencies --   1051.8231              1135.7382              1148.8036
 Red. masses --      2.6727                 1.8155                 1.4042
 Frc consts  --      1.7422                 1.3798                 1.0919
 IR Inten    --     33.9565                 1.7622                 1.2978

                     25                     26                     27
                      A                      A                      A
 Frequencies --   1155.0601              1158.2079              1181.6482
 Red. masses --      1.1267                 1.2133                 2.1401
 Frc consts  --      0.8857                 0.9590                 1.7606
 IR Inten    --      0.6572                 1.0851                 3.0254

                     28                     29                     30
                      A                      A                      A
 Frequencies --   1186.1044              1222.3864              1226.4649
 Red. masses --      1.7842                 1.4963                 1.8497
 Frc consts  --      1.4789                 1.3173                 1.6393
 IR Inten    --      8.1621                 0.5249                 0.8577

                     31                     32                     33
                      A                      A                      A
 Frequencies --   1239.1925              1272.8612              1302.6014
 Red. masses --      2.2145                 1.4724                 1.5040
 Frc consts  --      2.0036                 1.4055                 1.5036
 IR Inten    --      3.1777                 1.0204                 2.2946

                     34                     35                     36
                      A                      A                      A
 Frequencies --   1304.1734              1326.9869              1358.8777
 Red. masses --      1.4406                 1.6558                 1.4489
 Frc consts  --      1.4437                 1.7179                 1.5763
 IR Inten    --      1.3698                 5.7040                 1.9476

                     37                     38                     39
                      A                      A                      A
 Frequencies --   1377.7570              1477.0583              1508.1083
 Red. masses --      1.6261                 1.0996                 1.0776
 Frc consts  --      1.8186                 1.4134                 1.4440
 IR Inten    --      4.1864                 3.0457                 0.8731

                     40                     41                     42
                      A                      A                      A
 Frequencies --   1524.7606              1533.5495              2987.4048
 Red. masses --      1.0986                 1.1091                 1.0559
 Frc consts  --      1.5048                 1.5367                 5.5523
 IR Inten    --      1.2168                 0.4209                92.7959

                     43                     44                     45
                      A                      A                      A
 Frequencies --   3005.0305              3010.4778              3035.0036
 Red. masses --      1.0647                 1.0550                 1.1070
 Frc consts  --      5.6645                 5.6336                 6.0078
 IR Inten    --     32.3824                86.5318                30.7741

                     46                     47                     48
                      A                      A                      A
 Frequencies --   3044.6603              3054.6101              3061.1396
 Red. masses --      1.0598                 1.1107                 1.0885
 Frc consts  --      5.7885                 6.1059                 6.0093
 IR Inten    --     40.3034                43.0200                44.9188

                     49                     50                     51
                      A                      A                      A
 Frequencies --   3074.6732              3095.1703              3125.6179
 Red. masses --      1.1012                 1.1070                 1.0909
 Frc consts  --      6.1335                 6.2484                 6.2791
 IR Inten    --     26.9046                13.8423                38.7089

 - Thermochemistry -
 -------------------
 Temperature   298.150 Kelvin.  Pressure   1.00000 Atm.
 Atom     1 has atomic number  6 and mass  12.00000

 Molecular mass:   126.06808 amu.
 Principal axes and moments of inertia in atomic units:
                           1         2         3
     Eigenvalues --   490.454811382.108961544.40012
           X            0.99998  -0.00154   0.00666
           Y            0.00176   0.99946  -0.03281
           Z           -0.00661   0.03282   0.99944
 This molecule is an asymmetric top.
 Rotational symmetry number  1.
 Warning -- assumption of classical behavior for rotation
           may cause significant error
 Rotational temperatures (Kelvin)      0.17660     0.06267     0.05608
 Rotational constants (GHZ):           3.67973     1.30579     1.16857
 Zero-point vibrational energy     420662.7 (Joules/Mol)
                                  100.54079 (Kcal/Mol)
 Warning -- explicit consideration of   8 degrees of freedom as
           vibrations may cause significant error
 Vibrational temperatures:    113.09   121.67   285.76   366.76   479.53
          (Kelvin)            525.24   656.50   735.20  1061.37  1129.82
                             1208.26  1213.89  1255.00  1282.85  1315.16
                             1368.11  1399.81  1417.87  1453.45  1470.95
                             1488.80  1513.34  1634.07  1652.87  1661.87
                             1666.40  1700.13  1706.54  1758.74  1764.61
                             1782.92  1831.36  1874.15  1876.41  1909.24
                             1955.12  1982.28  2125.15  2169.83  2193.79
                             2206.43  4298.20  4323.56  4331.40  4366.69
                             4380.58  4394.90  4404.29  4423.76  4453.25
                             4497.06

 Zero-point correction=                           0.160222 (Hartree/Particle)
 Thermal correction to Energy=                    0.167819
 Thermal correction to Enthalpy=                  0.168763
 Thermal correction to Gibbs Free Energy=         0.127586
 Sum of electronic and zero-point Energies=           -422.961313
 Sum of electronic and thermal Energies=              -422.953716
 Sum of electronic and thermal Enthalpies=            -422.952772
 Sum of electronic and thermal Free Energies=         -422.993949

                     E (Thermal)             CV                S
                      KCal/Mol        Cal/Mol-Kelvin    Cal/Mol-Kelvin
 Total                  105.308             29.030             86.665
 Electronic               0.000              0.000              0.000
 Translational            0.889              2.981             40.409
 Rotational               0.889              2.981             28.439
 Vibrational            103.531             23.069             17.818
 Vibration     1          0.600              1.964              3.925
 Vibration     2          0.601              1.960              3.782
 Vibration     3          0.637              1.842              2.146
 Vibration     4          0.665              1.754              1.696
 Vibration     5          0.715              1.609              1.244
 Vibration     6          0.738              1.544              1.100
 Vibration     7          0.815              1.347              0.777
 Vibration     8          0.866              1.226              0.631

 Optimization completed.
    -- Stationary point found.
 Normal termination of Gaussian 09 at Mon Jan 27 12:59:55 2020.
