 Gaussian 09, Revision D.01,
 Gaussian 09:  ES64L-G09RevD.01 24-Apr-2013

 -----------------------------
 # b3lyp 6-31G(2df,p) opt Freq
 -----------------------------

 -----
 titel
 -----
 Symbolic Z-matrix:
 Charge =  0 Multiplicity = 1

 SCF Done:  E(RB3LYP) =  -423.140709128     A.U. after   15 cycles
 Optimization completed.
    -- Stationary point found.
 Normal termination of Gaussian 09 at Tue Jan 28 08:18:18 2020.

 ----------------------------------------------------------------------
 #N Geom=AllCheck Guess=TCheck SCRF=Check GenChk RB3LYP/6-31G(2df,p) Fr
 eq
 ----------------------------------------------------------------------

 Structure from the checkpoint file:  "/scratch/puck/g09_16ba7596-c43b-4261-8efe-3c5ce5d2096d/Gau-79701.chk"
 -----
 titel
 -----
 Charge =  0 Multiplicity = 1

                         Standard orientation:
 ---------------------------------------------------------------------
 Center     Atomic      Atomic             Coordinates (Angstroms)
 Number     Number       Type             X           Y           Z
 ---------------------------------------------------------------------
      1          6           0       -2.891736    0.189932    0.190910
      2          8           0       -1.655995    0.167923   -0.488277
      3          6           0       -0.603742   -0.464060    0.215758
      4          6           0       -0.632856   -1.981508    0.027068
      5          6           0        0.706277    0.171106   -0.332539
      6          6           0        1.933130   -0.430855    0.362347
      7          8           0        2.686309   -1.211008   -0.153635
      8          6           0        0.729442    1.614469   -0.129786
      9          6           0        0.816922    2.792475    0.092536
     10          1           0       -3.590166    0.745012   -0.439586
     11          1           0       -3.299855   -0.817228    0.359693
     12          1           0       -2.809203    0.699327    1.162885
     13          1           0       -0.677671   -0.219121    1.288011
     14          1           0        0.175218   -2.471051    0.577833
     15          1           0       -1.579393   -2.392286    0.388452
     16          1           0       -0.530140   -2.234390   -1.032297
     17          1           0        0.777354   -0.074600   -1.397785
     18          1           0        2.075061   -0.079780    1.408179
     19          1           0        0.871653    3.839438    0.262150
 ---------------------------------------------------------------------

 SCF Done:  E(RB3LYP) =  -423.140709128     A.U. after    1 cycles

 The electronic state is 1-A.
 Alpha  occ. eigenvalues --  -19.15053 -19.14840 -10.28206 -10.25455 -10.23113
 Alpha  occ. eigenvalues --  -10.22243 -10.18997 -10.18504 -10.18090  -1.05840
 Alpha  occ. eigenvalues --   -1.04294  -0.82703  -0.75731  -0.71150  -0.69380
 Alpha  occ. eigenvalues --   -0.60803  -0.59175  -0.54327  -0.50443  -0.49427
 Alpha  occ. eigenvalues --   -0.48736  -0.45945  -0.44082  -0.42741  -0.41658
 Alpha  occ. eigenvalues --   -0.40525  -0.39039  -0.38098  -0.36156  -0.32265
 Alpha  occ. eigenvalues --   -0.28803  -0.27562  -0.26301  -0.25297
 Alpha virt. eigenvalues --   -0.03518   0.04439   0.05588   0.08214   0.11157
 Alpha virt. eigenvalues --    0.12117   0.12437   0.13260   0.14492   0.15068
 Alpha virt. eigenvalues --    0.16157   0.16746   0.17763   0.19281   0.22222

 Mulliken charges:
               1
     1  C   -0.240067
     2  O   -0.238479
     3  C    0.122851
     4  C   -0.410280
     5  C   -0.264772
     6  C    0.158073
     7  O   -0.244907
     8  C    0.304309
     9  C   -0.430283
    10  H    0.133778
    11  H    0.108143
    12  H    0.111211
    13  H    0.076629
    14  H    0.132323
    15  H    0.120933
    16  H    0.135156
    17  H    0.131831
    18  H    0.092852
    19  H    0.200699
 Sum of Mulliken charges =   0.00000

 Dipole moment (field-independent basis, Debye):
    X=             -2.3000    Y=              0.5548    Z=              1.6187  Tot=              2.8667
 Quadrupole moment (field-independent basis, Debye-Ang):
   XX=            -56.8910   YY=            -50.6555   ZZ=            -53.1516
   XY=              4.8993   XZ=              0.0708   YZ=              0.3708

  Exact polarizability:  81.590  -2.036  95.483   0.310   4.446  60.383
 Approx polarizability: 105.637  -7.051 144.295  -1.728  11.639  96.039

                      1                      2                      3
                      A                      A                      A
 Frequencies --     41.0680                59.3640                61.0400
 Red. masses --      3.5557                 2.3111                 5.3347
 Frc consts  --      0.0035                 0.0048                 0.0117
 IR Inten    --      1.0590                 1.5559                 6.1398

                      4                      5                      6
                      A                      A                      A
 Frequencies --    127.9407               171.9233               191.2895
 Red. masses --      2.7474                 2.5019                 1.2523
 Frc consts  --      0.0265                 0.0436                 0.0270
 IR Inten    --      1.0632                 0.5307                 1.0174

                      7                      8                      9
                      A                      A                      A
 Frequencies --    203.5864               231.9603               308.3172
 Red. masses --      1.9188                 1.6373                 2.8737
 Frc consts  --      0.0469                 0.0519                 0.1610
 IR Inten    --      1.1801                 0.4795                 1.7793

                     10                     11                     12
                      A                      A                      A
 Frequencies --    341.0301               410.3080               426.6646
 Red. masses --      4.9370                 3.1769                 4.1417
 Frc consts  --      0.3383                 0.3151                 0.4442
 IR Inten    --      2.3108                 4.1966                11.6498

                     13                     14                     15
                      A                      A                      A
 Frequencies --    493.6057               513.1024               582.1947
 Red. masses --      4.1197                 4.5345                 3.6109
 Frc consts  --      0.5914                 0.7034                 0.7211
 IR Inten    --      1.5165                19.0477                 8.2392

                     16                     17                     18
                      A                      A                      A
 Frequencies --    639.7077               648.1927               847.2619
 Red. masses --      1.2305                 1.2215                 2.1742
 Frc consts  --      0.2967                 0.3024                 0.9196
 IR Inten    --     46.6059                42.3847                 2.4041

                     19                     20                     21
                      A                      A                      A
 Frequencies --    895.1615               942.1601              1002.2470
 Red. masses --      2.1388                 2.1182                 3.7304
 Frc consts  --      1.0098                 1.1078                 2.2077
 IR Inten    --      4.4678                 7.6984                18.6055

                     22                     23                     24
                      A                      A                      A
 Frequencies --   1060.1504              1098.9267              1108.9018
 Red. masses --      3.3723                 2.3720                 2.0387
 Frc consts  --      2.2331                 1.6877                 1.4770
 IR Inten    --     47.7701                 6.5160                 6.9701

                     25                     26                     27
                      A                      A                      A
 Frequencies --   1123.0852              1158.7863              1181.9977
 Red. masses --      2.4063                 3.3641                 1.3034
 Frc consts  --      1.7882                 2.6615                 1.0729
 IR Inten    --     10.9228               145.2797                 6.1240

                     28                     29                     30
                      A                      A                      A
 Frequencies --   1210.3987              1242.6598              1296.7404
 Red. masses --      1.4801                 1.5713                 1.3907
 Frc consts  --      1.2776                 1.4296                 1.3778
 IR Inten    --     33.7859                 9.5341                 8.7954

                     31                     32                     33
                      A                      A                      A
 Frequencies --   1361.4354              1381.3516              1411.3221
 Red. masses --      1.3317                 1.2020                 1.2544
 Frc consts  --      1.4543                 1.3514                 1.4722
 IR Inten    --      8.4459                28.5619                13.0286

                     34                     35                     36
                      A                      A                      A
 Frequencies --   1421.0001              1478.2594              1480.5252
 Red. masses --      1.1861                 1.1188                 1.0518
 Frc consts  --      1.4112                 1.4404                 1.3584
 IR Inten    --      2.9356                 1.5150                 2.1968

                     37                     38                     39
                      A                      A                      A
 Frequencies --   1491.2389              1498.1860              1509.8122
 Red. masses --      1.0528                 1.0604                 1.0665
 Frc consts  --      1.3794                 1.4023                 1.4324
 IR Inten    --      3.9296                 3.0516                 8.1728

                     40                     41                     42
                      A                      A                      A
 Frequencies --   1835.4369              2235.2062              2891.5409
 Red. masses --     10.3206                 5.9364                 1.0840
 Frc consts  --     20.4850                17.4745                 5.3402
 IR Inten    --    183.4493                 0.4615                70.5890

                     43                     44                     45
                      A                      A                      A
 Frequencies --   2969.5439              2983.4242              3031.6215
 Red. masses --      1.0780                 1.0404                 1.1019
 Frc consts  --      5.6008                 5.4562                 5.9667
 IR Inten    --     26.0044                63.2806                44.4747

                     46                     47                     48
                      A                      A                      A
 Frequencies --   3047.0491              3061.9108              3118.3293
 Red. masses --      1.0364                 1.0828                 1.0966
 Frc consts  --      5.6692                 5.9810                 6.2828
 IR Inten    --     15.7966                 6.8419                27.2965

                     49                     50                     51
                      A                      A                      A
 Frequencies --   3120.8154              3123.4924              3503.7825
 Red. masses --      1.1011                 1.1022                 1.1620
 Frc consts  --      6.3183                 6.3354                 8.4049
 IR Inten    --     16.2076                18.4612                68.3901

 - Thermochemistry -
 -------------------
 Temperature   298.150 Kelvin.  Pressure   1.00000 Atm.
 Atom     1 has atomic number  6 and mass  12.00000

 Molecular mass:   126.06808 amu.
 Principal axes and moments of inertia in atomic units:
                           1         2         3
     Eigenvalues --   900.060461399.677022176.18596
           X            0.99906   0.04295  -0.00500
           Y           -0.04293   0.99907   0.00349
           Z            0.00515  -0.00328   0.99998
 This molecule is an asymmetric top.
 Rotational symmetry number  1.
 Warning -- assumption of classical behavior for rotation
           may cause significant error
 Rotational temperatures (Kelvin)      0.09623     0.06188     0.03980
 Rotational constants (GHZ):           2.00513     1.28940     0.82931
 Zero-point vibrational energy     404188.6 (Joules/Mol)
                                   96.60339 (Kcal/Mol)
 Warning -- explicit consideration of  15 degrees of freedom as
           vibrations may cause significant error
 Vibrational temperatures:     59.09    85.41    87.82   184.08   247.36
          (Kelvin)            275.22   292.92   333.74   443.60   490.67
                              590.34   613.87   710.19   738.24   837.65
                              920.40   932.60  1219.02  1287.94  1355.56
                             1442.01  1525.32  1581.11  1595.46  1615.87
                             1667.23  1700.63  1741.49  1787.91  1865.72
                             1958.80  1987.45  2030.58  2044.50  2126.88
                             2130.14  2145.56  2155.55  2172.28  2640.78
                             3215.96  4160.28  4272.51  4292.48  4361.82
                             4384.02  4405.40  4486.57  4490.15  4494.00
                             5041.16

 Zero-point correction=                           0.153947 (Hartree/Particle)
 Thermal correction to Energy=                    0.164886
 Thermal correction to Enthalpy=                  0.165830
 Thermal correction to Gibbs Free Energy=         0.116649
 Sum of electronic and zero-point Energies=           -422.986762
 Sum of electronic and thermal Energies=              -422.975823
 Sum of electronic and thermal Enthalpies=            -422.974879
 Sum of electronic and thermal Free Energies=         -423.024060

                     E (Thermal)             CV                S
                      KCal/Mol        Cal/Mol-Kelvin    Cal/Mol-Kelvin
 Total                  103.467             37.574            103.511
 Electronic               0.000              0.000              0.000
 Translational            0.889              2.981             40.409
 Rotational               0.889              2.981             29.396
 Vibrational            101.690             31.613             33.707
 Vibration     1          0.594              1.981              5.207
 Vibration     2          0.597              1.974              4.478
 Vibration     3          0.597              1.973              4.423
 Vibration     4          0.611              1.925              2.977
 Vibration     5          0.626              1.877              2.414
 Vibration     6          0.634              1.852              2.215
 Vibration     7          0.639              1.835              2.100
 Vibration     8          0.653              1.792              1.864
 Vibration     9          0.698              1.658              1.371
 Vibration    10          0.721              1.593              1.207
 Vibration    11          0.774              1.448              0.926
 Vibration    12          0.788              1.412              0.870
 Vibration    13          0.849              1.264              0.674
 Vibration    14          0.868              1.221              0.626
 Vibration    15          0.939              1.070              0.481

 Optimization completed.
    -- Stationary point found.
 Normal termination of Gaussian 09 at Tue Jan 28 09:03:19 2020.
