 Gaussian 09, Revision D.01,
 Gaussian 09:  ES64L-G09RevD.01 24-Apr-2013

 -----------------------------
 # b3lyp 6-31G(2df,p) opt Freq
 -----------------------------

 -----
 titel
 -----
 Symbolic Z-matrix:
 Charge =  0 Multiplicity = 1

 SCF Done:  E(RB3LYP) =  -423.209742092     A.U. after   14 cycles
 Optimization completed.
    -- Stationary point found.
 Normal termination of Gaussian 09 at Mon Jan 27 17:22:12 2020.

 ----------------------------------------------------------------------
 #N Geom=AllCheck Guess=TCheck SCRF=Check GenChk RB3LYP/6-31G(2df,p) Fr
 eq
 ----------------------------------------------------------------------

 Structure from the checkpoint file:  "/scratch/puck/g09_df05a69c-1f64-414c-b27c-dbdf1f1e218d/Gau-59256.chk"
 -----
 titel
 -----
 Charge =  0 Multiplicity = 1

                         Standard orientation:
 ---------------------------------------------------------------------
 Center     Atomic      Atomic             Coordinates (Angstroms)
 Number     Number       Type             X           Y           Z
 ---------------------------------------------------------------------
      1          8           0        2.385244   -0.612115   -0.602424
      2          6           0        1.203595   -0.128617   -0.031664
      3          6           0        0.854372   -0.746694    1.270893
      4          6           0        0.011455   -1.080465    0.027517
      5          6           0       -1.379752   -0.570249   -0.128264
      6          8           0       -2.309512   -1.324656   -0.318851
      7          6           0       -1.592543    0.946565   -0.147360
      8          6           0       -0.411154    1.805289    0.324071
      9          6           0        0.920089    1.340753   -0.283583
     10          1           0        2.300708   -0.549539   -1.560782
     11          1           0        1.492594   -1.552627    1.612428
     12          1           0        0.418490   -0.146653    2.060065
     13          1           0        0.154491   -2.085592   -0.353484
     14          1           0       -1.821275    1.180998   -1.196907
     15          1           0       -2.507334    1.167545    0.410279
     16          1           0       -0.588506    2.851195    0.054181
     17          1           0       -0.343626    1.787182    1.417545
     18          1           0        0.900121    1.505799   -1.371270
     19          1           0        1.752111    1.936376    0.108483
 ---------------------------------------------------------------------

 SCF Done:  E(RB3LYP) =  -423.209742092     A.U. after    1 cycles

 The electronic state is 1-A.
 Alpha  occ. eigenvalues --  -19.15291 -19.11597 -10.26329 -10.25388 -10.20021
 Alpha  occ. eigenvalues --  -10.19726 -10.19672 -10.19576 -10.19180  -1.04103
 Alpha  occ. eigenvalues --   -1.02793  -0.87088  -0.79635  -0.72753  -0.65330
 Alpha  occ. eigenvalues --   -0.62845  -0.58195  -0.53203  -0.53000  -0.47225
 Alpha  occ. eigenvalues --   -0.46965  -0.43946  -0.43315  -0.43059  -0.40757
 Alpha  occ. eigenvalues --   -0.39205  -0.36962  -0.36453  -0.35646  -0.34341
 Alpha  occ. eigenvalues --   -0.31953  -0.30058  -0.26278  -0.23322
 Alpha virt. eigenvalues --   -0.01167   0.06908   0.08387   0.09438   0.11977
 Alpha virt. eigenvalues --    0.12289   0.14409   0.16155   0.17025   0.17724
 Alpha virt. eigenvalues --    0.18917   0.19304   0.20619   0.20843   0.22313

 Mulliken charges:
               1
     1  O   -0.466155
     2  C    0.418009
     3  C   -0.330183
     4  C   -0.202655
     5  C    0.388862
     6  O   -0.332582
     7  C   -0.294841
     8  C   -0.247002
     9  C   -0.268332
    10  H    0.282180
    11  H    0.136497
    12  H    0.125201
    13  H    0.109218
    14  H    0.131046
    15  H    0.128654
    16  H    0.106984
    17  H    0.111862
    18  H    0.090711
    19  H    0.112529
 Sum of Mulliken charges =   0.00000

 Dipole moment (field-independent basis, Debye):
    X=              1.5956    Y=              2.4096    Z=             -0.3376  Tot=              2.9097
 Quadrupole moment (field-independent basis, Debye-Ang):
   XX=            -63.4039   YY=            -54.0344   ZZ=            -48.1199
   XY=             -5.2323   XZ=             -2.9971   YZ=             -0.5144

  Exact polarizability:  84.323   0.972  76.585   1.690  -0.529  66.486
 Approx polarizability: 124.144   8.113 108.630   4.441   1.013 104.936

                      1                      2                      3
                      A                      A                      A
 Frequencies --     67.9524               155.7690               277.0122
 Red. masses --      3.0582                 3.5496                 1.9573
 Frc consts  --      0.0083                 0.0507                 0.0885
 IR Inten    --      3.7049                 2.0887                 1.5644

                      4                      5                      6
                      A                      A                      A
 Frequencies --    289.4549               332.9118               369.6285
 Red. masses --      1.5726                 1.8883                 3.8577
 Frc consts  --      0.0776                 0.1233                 0.3105
 IR Inten    --     29.3051                67.5017                 7.8501

                      7                      8                      9
                      A                      A                      A
 Frequencies --    380.8035               428.8887               471.3709
 Red. masses --      3.0212                 3.2802                 3.8604
 Frc consts  --      0.2581                 0.3555                 0.5054
 IR Inten    --     12.0414                11.5372                 1.1060

                     10                     11                     12
                      A                      A                      A
 Frequencies --    505.3267               549.7700               613.6791
 Red. masses --      3.3774                 2.1258                 3.4444
 Frc consts  --      0.5081                 0.3786                 0.7643
 IR Inten    --      1.9728                 2.1712                 1.4207

                     13                     14                     15
                      A                      A                      A
 Frequencies --    676.3666               731.8515               843.2970
 Red. masses --      3.6330                 2.0806                 1.9269
 Frc consts  --      0.9792                 0.6566                 0.8074
 IR Inten    --      3.8999                 1.9746                 3.9788

                     16                     17                     18
                      A                      A                      A
 Frequencies --    876.7471               901.4507               910.7437
 Red. masses --      1.6594                 2.5386                 2.3138
 Frc consts  --      0.7515                 1.2154                 1.1308
 IR Inten    --     18.0666                23.9819                 8.9785

                     19                     20                     21
                      A                      A                      A
 Frequencies --    935.0429               970.4169               994.7372
 Red. masses --      1.6734                 2.1387                 1.7980
 Frc consts  --      0.8620                 1.1866                 1.0482
 IR Inten    --      5.7979                29.2268                 3.3500

                     22                     23                     24
                      A                      A                      A
 Frequencies --   1052.8066              1068.8740              1081.8643
 Red. masses --      1.3954                 1.9019                 1.7569
 Frc consts  --      0.9113                 1.2802                 1.2115
 IR Inten    --      5.9787                 0.8096                 1.6691

                     25                     26                     27
                      A                      A                      A
 Frequencies --   1103.9234              1167.1601              1194.5142
 Red. masses --      1.5800                 1.2797                 1.6601
 Frc consts  --      1.1345                 1.0271                 1.3956
 IR Inten    --      1.6777                 4.2476                63.9243

                     28                     29                     30
                      A                      A                      A
 Frequencies --   1230.2311              1243.9183              1262.2790
 Red. masses --      2.8654                 1.4856                 1.4449
 Frc consts  --      2.5551                 1.3544                 1.3565
 IR Inten    --     26.1065                57.8704                11.9182

                     31                     32                     33
                      A                      A                      A
 Frequencies --   1285.4958              1323.2141              1347.5460
 Red. masses --      1.5553                 1.8062                 1.4896
 Frc consts  --      1.5143                 1.8633                 1.5937
 IR Inten    --      6.4565               130.0913                 4.8288

                     34                     35                     36
                      A                      A                      A
 Frequencies --   1368.0813              1383.1739              1423.6259
 Red. masses --      1.5236                 1.7443                 1.5149
 Frc consts  --      1.6801                 1.9662                 1.8090
 IR Inten    --     11.4297                10.4151                 0.6525

                     37                     38                     39
                      A                      A                      A
 Frequencies --   1447.4559              1480.9647              1498.0144
 Red. masses --      1.0884                 1.2872                 1.2052
 Frc consts  --      1.3436                 1.6634                 1.5935
 IR Inten    --      2.7994                11.5810                 3.9278

                     40                     41                     42
                      A                      A                      A
 Frequencies --   1512.6420              1787.0369              2999.5365
 Red. masses --      1.1946                12.0335                 1.0679
 Frc consts  --      1.6104                22.6417                 5.6611
 IR Inten    --      7.1921               229.0486                34.7608

                     43                     44                     45
                      A                      A                      A
 Frequencies --   3018.7142              3041.0411              3065.3585
 Red. masses --      1.0699                 1.0629                 1.0913
 Frc consts  --      5.7442                 5.7913                 6.0419
 IR Inten    --      8.1920                18.4273                35.2843

                     46                     47                     48
                      A                      A                      A
 Frequencies --   3078.2277              3091.6404              3151.9515
 Red. masses --      1.1002                 1.0938                 1.0544
 Frc consts  --      6.1424                 6.1596                 6.1716
 IR Inten    --     31.0855                14.1077                 7.6345

                     49                     50                     51
                      A                      A                      A
 Frequencies --   3179.7760              3240.8689              3791.2903
 Red. masses --      1.0894                 1.1168                 1.0659
 Frc consts  --      6.4901                 6.9113                 9.0267
 IR Inten    --      2.3854                 2.9370                17.7130

 - Thermochemistry -
 -------------------
 Temperature   298.150 Kelvin.  Pressure   1.00000 Atm.
 Atom     1 has atomic number  8 and mass  15.99491

 Molecular mass:   126.06808 amu.
 Principal axes and moments of inertia in atomic units:
                           1         2         3
     Eigenvalues --   719.980531194.785911596.81444
           X            0.99881  -0.04859  -0.00285
           Y            0.04855   0.99876  -0.01084
           Z            0.00338   0.01069   0.99994
 This molecule is an asymmetric top.
 Rotational symmetry number  1.
 Warning -- assumption of classical behavior for rotation
           may cause significant error
 Rotational temperatures (Kelvin)      0.12030     0.07249     0.05424
 Rotational constants (GHZ):           2.50665     1.51051     1.13021
 Zero-point vibrational energy     419915.8 (Joules/Mol)
                                  100.36230 (Kcal/Mol)
 Warning -- explicit consideration of  12 degrees of freedom as
           vibrations may cause significant error
 Vibrational temperatures:     97.77   224.12   398.56   416.46   478.99
          (Kelvin)            531.81   547.89   617.07   678.20   727.05
                              791.00   882.95   973.14  1052.97  1213.31
                             1261.44  1296.98  1310.36  1345.32  1396.21
                             1431.20  1514.75  1537.87  1556.56  1588.30
                             1679.28  1718.64  1770.03  1789.72  1816.14
                             1849.54  1903.81  1938.82  1968.36  1990.08
                             2048.28  2082.56  2130.78  2155.31  2176.35
                             2571.14  4315.66  4343.25  4375.37  4410.36
                             4428.88  4448.18  4534.95  4574.98  4662.88
                             5454.81

 Zero-point correction=                           0.159938 (Hartree/Particle)
 Thermal correction to Energy=                    0.168070
 Thermal correction to Enthalpy=                  0.169014
 Thermal correction to Gibbs Free Energy=         0.127337
 Sum of electronic and zero-point Energies=           -423.049805
 Sum of electronic and thermal Energies=              -423.041672
 Sum of electronic and thermal Enthalpies=            -423.040728
 Sum of electronic and thermal Free Energies=         -423.082405

                     E (Thermal)             CV                S
                      KCal/Mol        Cal/Mol-Kelvin    Cal/Mol-Kelvin
 Total                  105.465             32.246             87.717
 Electronic               0.000              0.000              0.000
 Translational            0.889              2.981             40.409
 Rotational               0.889              2.981             28.709
 Vibrational            103.688             26.285             18.600
 Vibration     1          0.598              1.969              4.212
 Vibration     2          0.620              1.896              2.601
 Vibration     3          0.678              1.716              1.552
 Vibration     4          0.686              1.693              1.477
 Vibration     5          0.715              1.610              1.246
 Vibration     6          0.742              1.535              1.081
 Vibration     7          0.751              1.511              1.036
 Vibration     8          0.790              1.407              0.862
 Vibration     9          0.828              1.314              0.734
 Vibration    10          0.861              1.238              0.645
 Vibration    11          0.905              1.140              0.545
 Vibration    12          0.973              1.003              0.427

 Normal termination of Gaussian 09 at Mon Jan 27 18:04:06 2020.
