 Gaussian 09, Revision D.01,
 Gaussian 09:  ES64L-G09RevD.01 24-Apr-2013

 -----------------------------
 # b3lyp 6-31G(2df,p) opt Freq
 -----------------------------

 -----
 titel
 -----
 Symbolic Z-matrix:
 Charge =  0 Multiplicity = 1

 SCF Done:  E(RB3LYP) =  -423.186450533     A.U. after   13 cycles
 Optimization completed.
    -- Stationary point found.
 Normal termination of Gaussian 09 at Mon Jan 27 18:11:54 2020.

 ----------------------------------------------------------------------
 #N Geom=AllCheck Guess=TCheck SCRF=Check GenChk RB3LYP/6-31G(2df,p) Fr
 eq
 ----------------------------------------------------------------------

 Structure from the checkpoint file:  "/scratch/puck/g09_3764d7e5-883c-4749-805d-6685d4afc1a7/Gau-62298.chk"
 -----
 titel
 -----
 Charge =  0 Multiplicity = 1

                         Standard orientation:
 ---------------------------------------------------------------------
 Center     Atomic      Atomic             Coordinates (Angstroms)
 Number     Number       Type             X           Y           Z
 ---------------------------------------------------------------------
      1          8           0       -2.463876    0.055792   -0.290443
      2          6           0       -1.078036   -0.012472   -0.157481
      3          6           0       -0.259025   -0.860196   -1.119058
      4          6           0        1.107006   -0.910892   -0.399446
      5          6           0        0.719503   -1.125015    1.083448
      6          6           0       -0.464567   -0.181763    1.227137
      7          6           0       -0.293625    1.113772    0.461365
      8          8           0        0.956432    1.513896   -0.037259
      9          6           0        1.782354    0.457560   -0.533229
     10          1           0       -2.664851    0.648671   -1.023172
     11          1           0       -0.709762   -1.854965   -1.209541
     12          1           0       -0.184089   -0.426450   -2.123567
     13          1           0        1.773165   -1.684371   -0.789807
     14          1           0        0.415244   -2.161081    1.269998
     15          1           0        1.546926   -0.890119    1.762117
     16          1           0       -1.090113   -0.193079    2.112309
     17          1           0       -0.850657    1.977288    0.807853
     18          1           0        2.013782    0.669098   -1.586904
     19          1           0        2.728241    0.471546    0.025927
 ---------------------------------------------------------------------

 SCF Done:  E(RB3LYP) =  -423.186450533     A.U. after    1 cycles

 The electronic state is 1-A.
 Alpha  occ. eigenvalues --  -19.14324 -19.13778 -10.22997 -10.22724 -10.22694
 Alpha  occ. eigenvalues --  -10.19370 -10.18522 -10.18288 -10.18151  -1.03816
 Alpha  occ. eigenvalues --   -1.02253  -0.86672  -0.78846  -0.70973  -0.67117
 Alpha  occ. eigenvalues --   -0.62245  -0.55684  -0.53917  -0.52668  -0.48159
 Alpha  occ. eigenvalues --   -0.46845  -0.45537  -0.42856  -0.41950  -0.38791
 Alpha  occ. eigenvalues --   -0.38287  -0.37354  -0.35563  -0.34234  -0.32714
 Alpha  occ. eigenvalues --   -0.32126  -0.28277  -0.25438  -0.21467
 Alpha virt. eigenvalues --    0.07968   0.08062   0.11741   0.12882   0.13341
 Alpha virt. eigenvalues --    0.14612   0.15859   0.16277   0.16741   0.17290
 Alpha virt. eigenvalues --    0.18189   0.18557   0.19193   0.21444   0.22072

 Mulliken charges:
               1
     1  O   -0.473700
     2  C    0.347169
     3  C   -0.286071
     4  C   -0.079384
     5  C   -0.221780
     6  C   -0.135504
     7  C    0.045505
     8  O   -0.275021
     9  C   -0.053618
    10  H    0.281424
    11  H    0.103752
    12  H    0.090512
    13  H    0.073506
    14  H    0.100406
    15  H    0.100170
    16  H    0.090247
    17  H    0.102486
    18  H    0.093716
    19  H    0.096185
 Sum of Mulliken charges =   0.00000

 Dipole moment (field-independent basis, Debye):
    X=              0.4682    Y=             -0.6979    Z=             -0.8979  Tot=              1.2298
 Quadrupole moment (field-independent basis, Debye-Ang):
   XX=            -53.9298   YY=            -54.3150   ZZ=            -50.3603
   XY=             -5.0492   XZ=              1.5792   YZ=             -0.7855

  Exact polarizability:  78.760  -2.272  69.277  -0.072  -0.984  71.737
 Approx polarizability: 110.329  -0.537 104.971   1.014  -2.357 106.639

                      1                      2                      3
                      A                      A                      A
 Frequencies --    127.3087               248.2084               309.3579
 Red. masses --      2.8888                 2.1295                 1.5187
 Frc consts  --      0.0276                 0.0773                 0.0856
 IR Inten    --      2.3287                34.0260                49.6679

                      4                      5                      6
                      A                      A                      A
 Frequencies --    337.0544               355.9868               398.7503
 Red. masses --      3.9120                 2.1385                 2.2766
 Frc consts  --      0.2618                 0.1597                 0.2133
 IR Inten    --      7.6947                13.0267                 2.3319

                      7                      8                      9
                      A                      A                      A
 Frequencies --    497.5846               509.9422               593.2641
 Red. masses --      4.4867                 2.3801                 4.2472
 Frc consts  --      0.6545                 0.3647                 0.8807
 IR Inten    --      1.7947                 2.1808                 2.4685

                     10                     11                     12
                      A                      A                      A
 Frequencies --    613.2836               714.8857               780.3970
 Red. masses --      5.2512                 3.8669                 4.7616
 Frc consts  --      1.1637                 1.1643                 1.7086
 IR Inten    --      1.3145                 7.4472                 9.0109

                     13                     14                     15
                      A                      A                      A
 Frequencies --    831.1706               861.4474               902.7729
 Red. masses --      3.1691                 2.0707                 2.1899
 Frc consts  --      1.2899                 0.9054                 1.0515
 IR Inten    --      3.5607                 4.7652                 6.7003

                     16                     17                     18
                      A                      A                      A
 Frequencies --    910.3874               946.6695               949.8620
 Red. masses --      2.5024                 2.0002                 1.6046
 Frc consts  --      1.2220                 1.0562                 0.8530
 IR Inten    --     10.3906                 8.4120                 7.0862

                     19                     20                     21
                      A                      A                      A
 Frequencies --    982.3362              1008.2784              1036.5861
 Red. masses --      1.7635                 1.9330                 1.9026
 Frc consts  --      1.0026                 1.1578                 1.2045
 IR Inten    --      0.3663                 2.8567                 3.8197

                     22                     23                     24
                      A                      A                      A
 Frequencies --   1055.5857              1089.3943              1104.0771
 Red. masses --      1.5047                 1.6171                 1.8137
 Frc consts  --      0.9879                 1.1307                 1.3026
 IR Inten    --     18.7621                35.6288                10.7688

                     25                     26                     27
                      A                      A                      A
 Frequencies --   1130.8899              1159.3967              1181.5803
 Red. masses --      2.1428                 1.1911                 1.9057
 Frc consts  --      1.6147                 0.9433                 1.5676
 IR Inten    --     57.7689                35.5289                16.4796

                     28                     29                     30
                      A                      A                      A
 Frequencies --   1215.3422              1239.0644              1257.2213
 Red. masses --      1.5799                 1.6743                 1.8473
 Frc consts  --      1.3749                 1.5145                 1.7203
 IR Inten    --     51.5248                12.6538                32.2945

                     31                     32                     33
                      A                      A                      A
 Frequencies --   1293.4497              1297.8717              1322.1140
 Red. masses --      1.7802                 1.8518                 1.3194
 Frc consts  --      1.7548                 1.8378                 1.3588
 IR Inten    --     29.2825                 9.9327                 2.4892

                     34                     35                     36
                      A                      A                      A
 Frequencies --   1336.4170              1349.3926              1352.8127
 Red. masses --      1.4697                 1.6934                 1.7558
 Frc consts  --      1.5466                 1.8167                 1.8932
 IR Inten    --      6.8054                18.2723                12.5212

                     37                     38                     39
                      A                      A                      A
 Frequencies --   1412.2669              1454.7845              1491.1695
 Red. masses --      1.3866                 2.2994                 1.1117
 Frc consts  --      1.6294                 2.8672                 1.4565
 IR Inten    --      2.1858                11.5860                 0.5748

                     40                     41                     42
                      A                      A                      A
 Frequencies --   1509.9836              1526.1998              2992.6932
 Red. masses --      1.1886                 1.0902                 1.0574
 Frc consts  --      1.5967                 1.4962                 5.5797
 IR Inten    --      4.2280                 0.0946                76.4775

                     43                     44                     45
                      A                      A                      A
 Frequencies --   3023.6129              3028.7372              3034.0353
 Red. masses --      1.1009                 1.0641                 1.0592
 Frc consts  --      5.9298                 5.7512                 5.7449
 IR Inten    --     11.9453                78.2156                32.6409

                     46                     47                     48
                      A                      A                      A
 Frequencies --   3072.0503              3073.8233              3081.6207
 Red. masses --      1.1048                 1.1053                 1.0876
 Frc consts  --      6.1434                 6.1531                 6.0854
 IR Inten    --     23.0669                33.2083                45.4519

                     49                     50                     51
                      A                      A                      A
 Frequencies --   3173.5042              3182.5475              3792.3056
 Red. masses --      1.0896                 1.0921                 1.0661
 Frc consts  --      6.4655                 6.5172                 9.0332
 IR Inten    --      6.1521                18.6716                18.3441

 - Thermochemistry -
 -------------------
 Temperature   298.150 Kelvin.  Pressure   1.00000 Atm.
 Atom     1 has atomic number  8 and mass  15.99491

 Molecular mass:   126.06808 amu.
 Principal axes and moments of inertia in atomic units:
                           1         2         3
     Eigenvalues --   650.751441046.692621148.38235
           X            0.99918  -0.04038  -0.00177
           Y            0.04036   0.99912  -0.01140
           Z            0.00223   0.01132   0.99993
 This molecule is an asymmetric top.
 Rotational symmetry number  1.
 Warning -- assumption of classical behavior for rotation
           may cause significant error
 Rotational temperatures (Kelvin)      0.13310     0.08275     0.07542
 Rotational constants (GHZ):           2.77332     1.72423     1.57155
 Zero-point vibrational energy     425568.4 (Joules/Mol)
                                  101.71328 (Kcal/Mol)
 Warning -- explicit consideration of  10 degrees of freedom as
           vibrations may cause significant error
 Vibrational temperatures:    183.17   357.12   445.10   484.95   512.18
          (Kelvin)            573.71   715.91   733.69   853.57   882.38
                             1028.56  1122.82  1195.87  1239.43  1298.89
                             1309.84  1362.04  1366.64  1413.36  1450.69
                             1491.41  1518.75  1567.39  1588.52  1627.10
                             1668.11  1700.03  1748.60  1782.74  1808.86
                             1860.98  1867.35  1902.22  1922.80  1941.47
                             1946.39  2031.93  2093.11  2145.46  2172.53
                             2195.86  4305.81  4350.30  4357.67  4365.29
                             4419.99  4422.54  4433.76  4565.96  4578.97
                             5456.28

 Zero-point correction=                           0.162090 (Hartree/Particle)
 Thermal correction to Energy=                    0.169202
 Thermal correction to Enthalpy=                  0.170146
 Thermal correction to Gibbs Free Energy=         0.130959
 Sum of electronic and zero-point Energies=           -423.024360
 Sum of electronic and thermal Energies=              -423.017249
 Sum of electronic and thermal Enthalpies=            -423.016305
 Sum of electronic and thermal Free Energies=         -423.055491

                     E (Thermal)             CV                S
                      KCal/Mol        Cal/Mol-Kelvin    Cal/Mol-Kelvin
 Total                  106.176             29.445             82.476
 Electronic               0.000              0.000              0.000
 Translational            0.889              2.981             40.409
 Rotational               0.889              2.981             28.150
 Vibrational            104.398             23.483             13.918
 Vibration     1          0.611              1.926              2.986
 Vibration     2          0.662              1.766              1.743
 Vibration     3          0.699              1.656              1.366
 Vibration     4          0.718              1.601              1.226
 Vibration     5          0.731              1.563              1.140
 Vibration     6          0.765              1.473              0.967
 Vibration     7          0.853              1.255              0.664
 Vibration     8          0.865              1.228              0.634
 Vibration     9          0.951              1.046              0.461
 Vibration    10          0.973              1.004              0.427

 Normal termination of Gaussian 09 at Mon Jan 27 18:56:11 2020.
