 Gaussian 09, Revision D.01,
 Gaussian 09:  ES64L-G09RevD.01 24-Apr-2013

 -----------------------------
 # b3lyp 6-31G(2df,p) opt Freq
 -----------------------------

 -----
 titel
 -----
 Symbolic Z-matrix:
 Charge =  0 Multiplicity = 1

 SCF Done:  E(RB3LYP) =  -423.179753350     A.U. after   14 cycles
 Optimization completed.
    -- Stationary point found.
 Normal termination of Gaussian 09 at Mon Jan 27 16:35:14 2020.

 ----------------------------------------------------------------------
 #N Geom=AllCheck Guess=TCheck SCRF=Check GenChk RB3LYP/6-31G(2df,p) Fr
 eq
 ----------------------------------------------------------------------

 Structure from the checkpoint file:  "/scratch/puck/g09_e3a7eed9-a3d9-4696-8246-219fb522d443/Gau-76845.chk"
 -----
 titel
 -----
 Charge =  0 Multiplicity = 1

                         Standard orientation:
 ---------------------------------------------------------------------
 Center     Atomic      Atomic             Coordinates (Angstroms)
 Number     Number       Type             X           Y           Z
 ---------------------------------------------------------------------
      1          6           0        0.138235    1.641094   -0.531789
      2          6           0        0.051604    0.337050    0.221147
      3          8           0        1.250723    0.059561    0.968900
      4          6           0        2.343102   -0.314198    0.282415
      5          8           0        2.436896   -0.458119   -0.904568
      6          6           0       -1.120344   -0.157430    1.020828
      7          6           0       -2.447860    0.152710    0.323177
      8          6           0       -1.948281   -0.619545   -0.944367
      9          6           0       -0.629732   -0.923949   -0.225213
     10          1           0        0.896670    1.579370   -1.315553
     11          1           0       -0.815964    1.892709   -0.998599
     12          1           0        0.402184    2.453632    0.153046
     13          1           0        3.161706   -0.470542    1.003276
     14          1           0       -0.988147   -0.394325    2.069641
     15          1           0       -3.291792   -0.349917    0.799634
     16          1           0       -2.703234    1.210054    0.201471
     17          1           0       -2.536180   -1.520131   -1.131709
     18          1           0       -1.873832   -0.057104   -1.879707
     19          1           0       -0.072705   -1.849671   -0.293338
 ---------------------------------------------------------------------

 SCF Done:  E(RB3LYP) =  -423.179753350     A.U. after    1 cycles

 The electronic state is 1-A.
 Alpha  occ. eigenvalues --  -19.18847 -19.13270 -10.30750 -10.25242 -10.19504
 Alpha  occ. eigenvalues --  -10.19464 -10.19111 -10.19033 -10.17994  -1.10428
 Alpha  occ. eigenvalues --   -1.02310  -0.89888  -0.75732  -0.70897  -0.66128
 Alpha  occ. eigenvalues --   -0.64479  -0.54929  -0.53565  -0.51577  -0.48646
 Alpha  occ. eigenvalues --   -0.48128  -0.45372  -0.43817  -0.41972  -0.41679
 Alpha  occ. eigenvalues --   -0.39788  -0.36894  -0.36833  -0.34416  -0.33088
 Alpha  occ. eigenvalues --   -0.31571  -0.28622  -0.26811  -0.25963
 Alpha virt. eigenvalues --    0.00856   0.08575   0.09507   0.10042   0.12317
 Alpha virt. eigenvalues --    0.13728   0.14307   0.14936   0.16175   0.16782
 Alpha virt. eigenvalues --    0.19040   0.19318   0.19820   0.20204   0.22756

 Mulliken charges:
               1
     1  C   -0.483454
     2  C    0.457738
     3  O   -0.263792
     4  C    0.169444
     5  O   -0.304003
     6  C   -0.114651
     7  C   -0.249222
     8  C   -0.244638
     9  C   -0.093833
    10  H    0.149289
    11  H    0.127259
    12  H    0.123069
    13  H    0.108869
    14  H    0.093899
    15  H    0.110397
    16  H    0.100545
    17  H    0.110941
    18  H    0.104349
    19  H    0.097795
 Sum of Mulliken charges =   0.00000

 Dipole moment (field-independent basis, Debye):
    X=             -1.4949    Y=              0.2592    Z=              1.1828  Tot=              1.9238
 Quadrupole moment (field-independent basis, Debye-Ang):
   XX=            -52.7547   YY=            -51.5589   ZZ=            -55.1672
   XY=              1.0345   XZ=              4.5923   YZ=             -1.5608

  Exact polarizability:  89.698  -0.761  66.736   0.349   0.787  70.468
 Approx polarizability: 114.678  -2.809  98.312  -4.147   5.188 117.157

                      1                      2                      3
                      A                      A                      A
 Frequencies --     78.9100               150.5762               195.3606
 Red. masses --      6.1678                 4.6603                 1.2167
 Frc consts  --      0.0226                 0.0623                 0.0274
 IR Inten    --      1.6951                 2.8125                 0.4462

                      4                      5                      6
                      A                      A                      A
 Frequencies --    219.3339               255.4031               276.5734
 Red. masses --      2.5733                 1.9896                 2.5773
 Frc consts  --      0.0729                 0.0765                 0.1162
 IR Inten    --      4.1248                 3.2511                 3.5037

                      7                      8                      9
                      A                      A                      A
 Frequencies --    307.7187               423.4483               442.3391
 Red. masses --      2.3711                 2.7978                 3.0126
 Frc consts  --      0.1323                 0.2956                 0.3473
 IR Inten    --      1.2737                 4.7529                 4.5054

                     10                     11                     12
                      A                      A                      A
 Frequencies --    484.2142               653.0441               713.2864
 Red. masses --      4.1872                 3.5007                 3.6942
 Frc consts  --      0.5784                 0.8796                 1.1074
 IR Inten    --      7.4607                 2.1407                 2.7947

                     13                     14                     15
                      A                      A                      A
 Frequencies --    780.4762               798.7552               829.7591
 Red. masses --      1.3239                 4.0600                 1.6532
 Frc consts  --      0.4752                 1.5262                 0.6706
 IR Inten    --      3.6377                 6.7489                 8.2627

                     16                     17                     18
                      A                      A                      A
 Frequencies --    904.4643               925.4249               943.8487
 Red. masses --      2.6256                 2.4937                 1.5775
 Frc consts  --      1.2655                 1.2583                 0.8280
 IR Inten    --      6.4687                 2.3096                 4.0627

                     19                     20                     21
                      A                      A                      A
 Frequencies --    976.2442              1001.9992              1005.3023
 Red. masses --      1.8993                 1.6298                 1.3734
 Frc consts  --      1.0665                 0.9641                 0.8178
 IR Inten    --      0.8439                 4.6833                 4.1851

                     22                     23                     24
                      A                      A                      A
 Frequencies --   1032.1719              1045.8527              1094.9950
 Red. masses --      2.6622                 1.6528                 1.9984
 Frc consts  --      1.6711                 1.0651                 1.4117
 IR Inten    --      0.2906                 0.1696                 0.0857

                     25                     26                     27
                      A                      A                      A
 Frequencies --   1098.0661              1145.7715              1179.7294
 Red. masses --      1.7292                 2.1845                 1.5450
 Frc consts  --      1.2284                 1.6897                 1.2669
 IR Inten    --      5.1029                 6.6963                24.8555

                     28                     29                     30
                      A                      A                      A
 Frequencies --   1199.5526              1221.6512              1250.5680
 Red. masses --      8.8389                 1.1874                 1.8331
 Frc consts  --      7.4936                 1.0441                 1.6891
 IR Inten    --    393.7834                 0.4955                 0.4799

                     31                     32                     33
                      A                      A                      A
 Frequencies --   1257.5256              1275.9861              1289.2457
 Red. masses --      1.4298                 1.6767                 1.6934
 Frc consts  --      1.3322                 1.6084                 1.6584
 IR Inten    --      1.0055                 4.6687                 1.1742

                     34                     35                     36
                      A                      A                      A
 Frequencies --   1410.5905              1413.1972              1434.1838
 Red. masses --      1.2170                 1.2085                 3.7227
 Frc consts  --      1.4267                 1.4220                 4.5115
 IR Inten    --      3.3543                 9.8898                10.4724

                     37                     38                     39
                      A                      A                      A
 Frequencies --   1475.2734              1495.4143              1504.9494
 Red. masses --      1.0698                 1.0836                 1.1236
 Frc consts  --      1.3718                 1.4278                 1.4994
 IR Inten    --      3.6795                 1.0519                 1.7416

                     40                     41                     42
                      A                      A                      A
 Frequencies --   1511.6101              1822.2442              3020.0999
 Red. masses --      1.0769                 9.6730                 1.0898
 Frc consts  --      1.4498                18.9244                 5.8567
 IR Inten    --      3.9325               238.2777                79.5467

                     43                     44                     45
                      A                      A                      A
 Frequencies --   3048.5401              3051.3822              3059.8557
 Red. masses --      1.0402                 1.0603                 1.0620
 Frc consts  --      5.6957                 5.8165                 5.8582
 IR Inten    --     13.0988                45.2346                45.4484

                     46                     47                     48
                      A                      A                      A
 Frequencies --   3101.9825              3118.5111              3120.4104
 Red. masses --      1.1041                 1.1004                 1.1009
 Frc consts  --      6.2597                 6.3049                 6.3157
 IR Inten    --      0.9683                29.8134                23.0406

                     49                     50                     51
                      A                      A                      A
 Frequencies --   3139.3392              3183.9080              3196.8630
 Red. masses --      1.1007                 1.0893                 1.0957
 Frc consts  --      6.3912                 6.5059                 6.5976
 IR Inten    --     11.6883                11.5680                10.5306

 - Thermochemistry -
 -------------------
 Temperature   298.150 Kelvin.  Pressure   1.00000 Atm.
 Atom     1 has atomic number  6 and mass  12.00000

 Molecular mass:   126.06808 amu.
 Principal axes and moments of inertia in atomic units:
                           1         2         3
     Eigenvalues --   519.110351549.922501569.13570
           X            0.99989   0.01262   0.00838
           Y           -0.00552   0.81890  -0.57391
           Z           -0.01411   0.57380   0.81888
 This molecule is an asymmetric top.
 Rotational symmetry number  1.
 Warning -- assumption of classical behavior for rotation
           may cause significant error
 Rotational temperatures (Kelvin)      0.16685     0.05588     0.05520
 Rotational constants (GHZ):           3.47660     1.16441     1.15015
 Zero-point vibrational energy     416096.8 (Joules/Mol)
                                   99.44952 (Kcal/Mol)
 Warning -- explicit consideration of  10 degrees of freedom as
           vibrations may cause significant error
 Vibrational temperatures:    113.53   216.65   281.08   315.57   367.47
          (Kelvin)            397.93   442.74   609.25   636.43   696.68
                              939.58  1026.26  1122.93  1149.23  1193.84
                             1301.32  1331.48  1357.99  1404.60  1441.65
                             1446.40  1485.06  1504.75  1575.45  1579.87
                             1648.51  1697.37  1725.89  1757.68  1799.29
                             1809.30  1835.86  1854.93  2029.52  2033.27
                             2063.47  2122.59  2151.56  2165.28  2174.87
                             2621.80  4345.24  4386.16  4390.25  4402.44
                             4463.06  4486.84  4489.57  4516.80  4580.93
                             4599.57

 Zero-point correction=                           0.158483 (Hartree/Particle)
 Thermal correction to Energy=                    0.166979
 Thermal correction to Enthalpy=                  0.167923
 Thermal correction to Gibbs Free Energy=         0.125442
 Sum of electronic and zero-point Energies=           -423.021270
 Sum of electronic and thermal Energies=              -423.012775
 Sum of electronic and thermal Enthalpies=            -423.011831
 Sum of electronic and thermal Free Energies=         -423.054311

                     E (Thermal)             CV                S
                      KCal/Mol        Cal/Mol-Kelvin    Cal/Mol-Kelvin
 Total                  104.781             32.295             89.408
 Electronic               0.000              0.000              0.000
 Translational            0.889              2.981             40.409
 Rotational               0.889              2.981             28.625
 Vibrational            103.003             26.333             20.374
 Vibration     1          0.600              1.963              3.918
 Vibration     2          0.618              1.902              2.665
 Vibration     3          0.636              1.846              2.176
 Vibration     4          0.647              1.812              1.965
 Vibration     5          0.666              1.754              1.693
 Vibration     6          0.678              1.717              1.555
 Vibration     7          0.698              1.659              1.375
 Vibration     8          0.786              1.419              0.880
 Vibration     9          0.802              1.378              0.819
 Vibration    10          0.840              1.285              0.699

 Normal termination of Gaussian 09 at Mon Jan 27 17:26:01 2020.
