 Gaussian 09, Revision D.01,
 Gaussian 09:  ES64L-G09RevD.01 24-Apr-2013

 -----------------------------
 # b3lyp 6-31G(2df,p) opt Freq
 -----------------------------

 -----
 titel
 -----
 Symbolic Z-matrix:
 Charge =  0 Multiplicity = 1

 SCF Done:  E(RB3LYP) =  -423.161545111     A.U. after   13 cycles
 Optimization completed.
    -- Stationary point found.
 Normal termination of Gaussian 09 at Mon Jan 27 23:05:19 2020.

 ----------------------------------------------------------------------
 #N Geom=AllCheck Guess=TCheck SCRF=Check GenChk RB3LYP/6-31G(2df,p) Fr
 eq
 ----------------------------------------------------------------------

 Structure from the checkpoint file:  "/scratch/puck/g09_858b360d-b8ff-4c14-b411-a116b38ca488/Gau-103140.chk"
 -----
 titel
 -----
 Charge =  0 Multiplicity = 1

                         Standard orientation:
 ---------------------------------------------------------------------
 Center     Atomic      Atomic             Coordinates (Angstroms)
 Number     Number       Type             X           Y           Z
 ---------------------------------------------------------------------
      1          6           0       -0.483836    2.128168    0.087729
      2          6           0        0.004460    0.872720   -0.636066
      3          6           0        1.471942    0.553932   -0.397835
      4          8           0        1.734432    0.055555    0.920925
      5          6           0        1.648453   -0.883791   -0.158615
      6          6           0        0.305270   -1.579215   -0.242097
      7          6           0       -0.701297   -0.426187   -0.196022
      8          6           0       -2.147323   -0.630745   -0.312322
      9          8           0       -1.545910   -0.358723    0.955592
     10          1           0       -1.556702    2.282882   -0.058043
     11          1           0       -0.299087    2.041636    1.160259
     12          1           0        0.037338    3.013823   -0.289325
     13          1           0       -0.134578    0.994123   -1.720457
     14          1           0        2.249616    1.184438   -0.823133
     15          1           0        2.568077   -1.413675   -0.393348
     16          1           0        0.235344   -2.133650   -1.186474
     17          1           0        0.127458   -2.278288    0.579579
     18          1           0       -2.778433    0.163192   -0.711930
     19          1           0       -2.543232   -1.638424   -0.437895
 ---------------------------------------------------------------------

 SCF Done:  E(RB3LYP) =  -423.161545111     A.U. after    1 cycles

 The electronic state is 1-A.
 Alpha  occ. eigenvalues --  -19.14829 -19.14717 -10.24260 -10.23658 -10.23389
 Alpha  occ. eigenvalues --  -10.23091 -10.19670 -10.19122 -10.17383  -1.07495
 Alpha  occ. eigenvalues --   -1.06523  -0.80761  -0.75585  -0.66749  -0.66650
 Alpha  occ. eigenvalues --   -0.63692  -0.58231  -0.54809  -0.52377  -0.48453
 Alpha  occ. eigenvalues --   -0.45913  -0.45125  -0.44088  -0.42759  -0.39404
 Alpha  occ. eigenvalues --   -0.38540  -0.36805  -0.36339  -0.34784  -0.33733
 Alpha  occ. eigenvalues --   -0.30981  -0.28507  -0.26321  -0.26186
 Alpha virt. eigenvalues --    0.08141   0.08915   0.11170   0.11451   0.12162
 Alpha virt. eigenvalues --    0.13054   0.13808   0.14146   0.15258   0.16710
 Alpha virt. eigenvalues --    0.17136   0.17408   0.18864   0.20079   0.21346

 Mulliken charges:
               1
     1  C   -0.394532
     2  C   -0.109165
     3  C    0.042711
     4  O   -0.255715
     5  C    0.038461
     6  C   -0.323271
     7  C    0.416760
     8  C   -0.255285
     9  O   -0.252532
    10  H    0.117588
    11  H    0.147529
    12  H    0.107876
    13  H    0.079531
    14  H    0.091994
    15  H    0.094580
    16  H    0.106371
    17  H    0.128542
    18  H    0.108663
    19  H    0.109894
 Sum of Mulliken charges =   0.00000

 Dipole moment (field-independent basis, Debye):
    X=             -0.0613    Y=             -0.4874    Z=             -3.2081  Tot=              3.2455
 Quadrupole moment (field-independent basis, Debye-Ang):
   XX=            -52.1654   YY=            -49.4270   ZZ=            -56.1311
   XY=             -0.3465   XZ=             -0.2589   YZ=              0.0117

  Exact polarizability:  81.858   0.027  80.285   0.511  -0.659  59.671
 Approx polarizability: 109.684   0.608 110.214   2.017  -0.580 103.700

                      1                      2                      3
                      A                      A                      A
 Frequencies --     80.6422               196.2104               219.1665
 Red. masses --      3.7055                 2.8714                 1.1370
 Frc consts  --      0.0142                 0.0651                 0.0322
 IR Inten    --      0.8297                 1.8011                 0.1595

                      4                      5                      6
                      A                      A                      A
 Frequencies --    249.7320               294.2360               360.6798
 Red. masses --      2.9738                 3.0579                 2.6286
 Frc consts  --      0.1093                 0.1560                 0.2015
 IR Inten    --      2.4874                 1.3055                 4.4157

                      7                      8                      9
                      A                      A                      A
 Frequencies --    395.6060               433.7091               518.1785
 Red. masses --      2.7300                 3.6350                 3.7629
 Frc consts  --      0.2517                 0.4029                 0.5953
 IR Inten    --      4.9207                 4.9322                 3.7958

                     10                     11                     12
                      A                      A                      A
 Frequencies --    600.3284               665.2521               756.8702
 Red. masses --      3.6789                 4.9227                 3.1658
 Frc consts  --      0.7812                 1.2836                 1.0685
 IR Inten    --      7.2052                 4.3534                 1.5006

                     13                     14                     15
                      A                      A                      A
 Frequencies --    806.7591               843.4252               852.9072
 Red. masses --      3.3920                 3.5623                 1.8196
 Frc consts  --      1.3008                 1.4931                 0.7799
 IR Inten    --      6.2288                10.7099                10.5076

                     16                     17                     18
                      A                      A                      A
 Frequencies --    888.3614               903.3952               955.1863
 Red. masses --      2.7482                 1.9781                 2.1189
 Frc consts  --      1.2778                 0.9511                 1.1391
 IR Inten    --     27.1836                 3.5623                12.8063

                     19                     20                     21
                      A                      A                      A
 Frequencies --    976.7252              1004.3207              1025.7875
 Red. masses --      3.1981                 1.7871                 1.4026
 Frc consts  --      1.7976                 1.0620                 0.8696
 IR Inten    --      7.3213                17.4708                 6.1579

                     22                     23                     24
                      A                      A                      A
 Frequencies --   1040.9065              1101.0685              1123.7655
 Red. masses --      2.2436                 1.1981                 1.6203
 Frc consts  --      1.4323                 0.8558                 1.2056
 IR Inten    --      3.3457                 0.3883                 3.0422

                     25                     26                     27
                      A                      A                      A
 Frequencies --   1125.5064              1135.0453              1163.6475
 Red. masses --      1.5353                 1.8117                 1.3530
 Frc consts  --      1.1459                 1.3752                 1.0794
 IR Inten    --      0.3811                 2.5945                 0.3388

                     28                     29                     30
                      A                      A                      A
 Frequencies --   1194.1727              1221.9592              1259.5091
 Red. masses --      1.7124                 1.7726                 1.3980
 Frc consts  --      1.4387                 1.5595                 1.3066
 IR Inten    --      4.7993                 2.6350                 4.8746

                     31                     32                     33
                      A                      A                      A
 Frequencies --   1289.3545              1301.0486              1326.2068
 Red. masses --      1.7626                 1.6264                 1.3208
 Frc consts  --      1.7264                 1.6220                 1.3687
 IR Inten    --      4.9295                 2.4338                 3.4225

                     34                     35                     36
                      A                      A                      A
 Frequencies --   1360.8521              1406.4115              1421.9465
 Red. masses --      1.7433                 1.4324                 2.3169
 Frc consts  --      1.9022                 1.6693                 2.7601
 IR Inten    --      0.8228                 7.9981                 8.4617

                     37                     38                     39
                      A                      A                      A
 Frequencies --   1441.3910              1467.8276              1493.1929
 Red. masses --      2.7576                 1.1233                 1.0498
 Frc consts  --      3.3755                 1.4259                 1.3791
 IR Inten    --     13.1926                 2.6363                 5.6319

                     40                     41                     42
                      A                      A                      A
 Frequencies --   1496.1241              1533.8916              3001.6674
 Red. masses --      1.0562                 1.4033                 1.0819
 Frc consts  --      1.3929                 1.9454                 5.7435
 IR Inten    --      3.6938                 4.7725                23.4233

                     43                     44                     45
                      A                      A                      A
 Frequencies --   3034.1503              3044.9094              3071.7708
 Red. masses --      1.0649                 1.0366                 1.0503
 Frc consts  --      5.7761                 5.6626                 5.8392
 IR Inten    --     22.3661                23.7501                28.4172

                     46                     47                     48
                      A                      A                      A
 Frequencies --   3099.2043              3107.8936              3136.6262
 Red. masses --      1.0980                 1.1010                 1.0893
 Frc consts  --      6.2136                 6.2658                 6.3144
 IR Inten    --      8.4335                24.8369                12.9951

                     49                     50                     51
                      A                      A                      A
 Frequencies --   3137.9807              3151.8921              3154.6234
 Red. masses --      1.0987                 1.0949                 1.1190
 Frc consts  --      6.3742                 6.4088                 6.5610
 IR Inten    --     18.6950                42.0358                24.2219

 - Thermochemistry -
 -------------------
 Temperature   298.150 Kelvin.  Pressure   1.00000 Atm.
 Atom     1 has atomic number  6 and mass  12.00000

 Molecular mass:   126.06808 amu.
 Principal axes and moments of inertia in atomic units:
                           1         2         3
     Eigenvalues --   700.946081014.401681392.12026
           X            0.99967  -0.02560   0.00016
           Y            0.02560   0.99963   0.00917
           Z           -0.00040  -0.00916   0.99996
 This molecule is an asymmetric top.
 Rotational symmetry number  1.
 Warning -- assumption of classical behavior for rotation
           may cause significant error
 Rotational temperatures (Kelvin)      0.12357     0.08538     0.06222
 Rotational constants (GHZ):           2.57472     1.77912     1.29640
 Zero-point vibrational energy     417927.5 (Joules/Mol)
                                   99.88707 (Kcal/Mol)
 Warning -- explicit consideration of  10 degrees of freedom as
           vibrations may cause significant error
 Vibrational temperatures:    116.03   282.30   315.33   359.31   423.34
          (Kelvin)            518.94   569.19   624.01   745.54   863.74
                              957.15  1088.97  1160.75  1213.50  1227.14
                             1278.15  1299.78  1374.30  1405.29  1444.99
                             1475.88  1497.63  1584.19  1616.85  1619.35
                             1633.08  1674.23  1718.15  1758.12  1812.15
                             1855.09  1871.92  1908.11  1957.96  2023.51
                             2045.86  2073.84  2111.87  2148.37  2152.59
                             2206.93  4318.72  4365.46  4380.94  4419.59
                             4459.06  4471.56  4512.90  4514.85  4534.86
                             4538.79

 Zero-point correction=                           0.159180 (Hartree/Particle)
 Thermal correction to Energy=                    0.167070
 Thermal correction to Enthalpy=                  0.168014
 Thermal correction to Gibbs Free Energy=         0.126928
 Sum of electronic and zero-point Energies=           -423.002365
 Sum of electronic and thermal Energies=              -422.994475
 Sum of electronic and thermal Enthalpies=            -422.993531
 Sum of electronic and thermal Free Energies=         -423.034617

                     E (Thermal)             CV                S
                      KCal/Mol        Cal/Mol-Kelvin    Cal/Mol-Kelvin
 Total                  104.838             31.014             86.474
 Electronic               0.000              0.000              0.000
 Translational            0.889              2.981             40.409
 Rotational               0.889              2.981             28.383
 Vibrational            103.060             25.052             17.682
 Vibration     1          0.600              1.962              3.875
 Vibration     2          0.636              1.845              2.168
 Vibration     3          0.647              1.812              1.966
 Vibration     4          0.663              1.763              1.732
 Vibration     5          0.689              1.684              1.449
 Vibration     6          0.735              1.553              1.119
 Vibration     7          0.762              1.480              0.979
 Vibration     8          0.794              1.397              0.847
 Vibration     9          0.873              1.210              0.614
 Vibration    10          0.958              1.031              0.449

 Optimization completed.
    -- Stationary point found.
 Normal termination of Gaussian 09 at Mon Jan 27 23:51:04 2020.
