 Gaussian 09, Revision D.01,
 Gaussian 09:  ES64L-G09RevD.01 24-Apr-2013

 -----------------------------
 # b3lyp 6-31G(2df,p) opt Freq
 -----------------------------

 -----
 titel
 -----
 Symbolic Z-matrix:
 Charge =  0 Multiplicity = 1

 SCF Done:  E(RB3LYP) =  -423.103598588     A.U. after   12 cycles
 Optimization completed.
    -- Stationary point found.
 Normal termination of Gaussian 09 at Mon Jan 27 21:59:53 2020.

 ----------------------------------------------------------------------
 #N Geom=AllCheck Guess=TCheck SCRF=Check GenChk RB3LYP/6-31G(2df,p) Fr
 eq
 ----------------------------------------------------------------------

 Structure from the checkpoint file:  "/scratch/puck/g09_6c4c75e5-e5df-4988-8550-704f6a2e23ce/Gau-125539.chk"
 -----
 titel
 -----
 Charge =  0 Multiplicity = 1

                         Standard orientation:
 ---------------------------------------------------------------------
 Center     Atomic      Atomic             Coordinates (Angstroms)
 Number     Number       Type             X           Y           Z
 ---------------------------------------------------------------------
      1          6           0        0.019657    2.082667    0.216180
      2          6           0        0.072756    0.666347   -0.328501
      3          8           0       -1.191537    0.358655   -0.934564
      4          6           0       -1.887595   -0.462154    0.028710
      5          8           0       -0.991871   -0.856249    1.093823
      6          6           0        0.241195   -0.579599    0.508862
      7          6           0        1.695716   -0.166277    0.834326
      8          6           0        1.469281    0.042997   -0.734842
      9          6           0        0.800204   -1.343670   -0.742301
     10          1           0       -0.316441    2.747785   -0.584987
     11          1           0       -0.701129    2.164698    1.037298
     12          1           0        0.988310    2.446018    0.566003
     13          1           0       -2.717528    0.090647    0.483126
     14          1           0       -2.257767   -1.350897   -0.497201
     15          1           0        1.851235    0.716483    1.452922
     16          1           0        2.391246   -0.966966    1.091708
     17          1           0        2.210890    0.428635   -1.432252
     18          1           0        0.101674   -1.542067   -1.552886
     19          1           0        1.449491   -2.195450   -0.532404
 ---------------------------------------------------------------------

 SCF Done:  E(RB3LYP) =  -423.103598588     A.U. after    1 cycles

 The electronic state is 1-A.
 Alpha  occ. eigenvalues --  -19.15553 -19.14574 -10.27833 -10.24493 -10.23467
 Alpha  occ. eigenvalues --  -10.21324 -10.20444 -10.18337 -10.17645  -1.08593
 Alpha  occ. eigenvalues --   -0.99549  -0.91023  -0.74142  -0.68806  -0.66868
 Alpha  occ. eigenvalues --   -0.62487  -0.60205  -0.54164  -0.50146  -0.49266
 Alpha  occ. eigenvalues --   -0.47965  -0.46135  -0.43334  -0.40913  -0.39107
 Alpha  occ. eigenvalues --   -0.38577  -0.36828  -0.35344  -0.34287  -0.33259
 Alpha  occ. eigenvalues --   -0.32749  -0.27450  -0.27201  -0.24448
 Alpha virt. eigenvalues --    0.07935   0.09584   0.11123   0.12598   0.12857
 Alpha virt. eigenvalues --    0.13440   0.13766   0.14655   0.15579   0.17256
 Alpha virt. eigenvalues --    0.18230   0.18453   0.19279   0.20411   0.21437

 Mulliken charges:
               1
     1  C   -0.477364
     2  C    0.432470
     3  O   -0.341630
     4  C   -0.012702
     5  O   -0.331052
     6  C    0.381743
     7  C   -0.317109
     8  C   -0.150378
     9  C   -0.291846
    10  H    0.130868
    11  H    0.123846
    12  H    0.116790
    13  H    0.116409
    14  H    0.112018
    15  H    0.110684
    16  H    0.107239
    17  H    0.085415
    18  H    0.113543
    19  H    0.091056
 Sum of Mulliken charges =   0.00000

 Dipole moment (field-independent basis, Debye):
    X=              0.8806    Y=              0.2983    Z=             -0.0382  Tot=              0.9305
 Quadrupole moment (field-independent basis, Debye-Ang):
   XX=            -49.9593   YY=            -52.6346   ZZ=            -56.4596
   XY=              0.4212   XZ=              0.0339   YZ=              2.1829

  Exact polarizability:  84.562  -0.563  75.310   0.827   3.556  63.582
 Approx polarizability: 120.830   0.965 106.574   0.663   0.643 103.464

                      1                      2                      3
                      A                      A                      A
 Frequencies --    132.6403               183.8558               219.3062
 Red. masses --      2.1986                 1.1660                 2.6605
 Frc consts  --      0.0228                 0.0232                 0.0754
 IR Inten    --      7.0716                 0.1660                 1.3347

                      4                      5                      6
                      A                      A                      A
 Frequencies --    333.3760               371.4722               405.8316
 Red. masses --      2.7068                 3.6355                 3.8324
 Frc consts  --      0.1772                 0.2956                 0.3719
 IR Inten    --      0.4774                 4.0927                 4.4028

                      7                      8                      9
                      A                      A                      A
 Frequencies --    496.4650               535.1675               568.1024
 Red. masses --      3.4132                 2.6285                 2.7596
 Frc consts  --      0.4957                 0.4435                 0.5248
 IR Inten    --      6.3763                 3.9489                 2.5743

                     10                     11                     12
                      A                      A                      A
 Frequencies --    634.8050               730.2373               761.6766
 Red. masses --      3.5232                 7.0712                 4.2866
 Frc consts  --      0.8365                 2.2216                 1.4652
 IR Inten    --      1.6180                 1.6625                 4.2226

                     13                     14                     15
                      A                      A                      A
 Frequencies --    791.3731               831.7460               862.9434
 Red. masses --      3.4972                 3.2408                 6.2194
 Frc consts  --      1.2904                 1.3210                 2.7287
 IR Inten    --      2.0008                17.9275                25.7753

                     16                     17                     18
                      A                      A                      A
 Frequencies --    893.2940               921.8154               953.2632
 Red. masses --      2.6621                 1.9375                 1.9944
 Frc consts  --      1.2516                 0.9700                 1.0678
 IR Inten    --      5.9045                13.2174                 4.0756

                     19                     20                     21
                      A                      A                      A
 Frequencies --    985.2048               999.5582              1036.6746
 Red. masses --      1.4977                 1.2253                 4.6129
 Frc consts  --      0.8565                 0.7213                 2.9208
 IR Inten    --      0.9358                 3.1702               112.0290

                     22                     23                     24
                      A                      A                      A
 Frequencies --   1053.8545              1072.8613              1116.4515
 Red. masses --      1.3152                 1.6859                 1.6536
 Frc consts  --      0.8606                 1.1433                 1.2144
 IR Inten    --     17.2543                16.5437                 6.4090

                     25                     26                     27
                      A                      A                      A
 Frequencies --   1122.4241              1129.4055              1139.0770
 Red. masses --      1.9279                 1.6443                 1.8163
 Frc consts  --      1.4310                 1.2358                 1.3885
 IR Inten    --     16.0009                 8.0984                 4.9412

                     28                     29                     30
                      A                      A                      A
 Frequencies --   1174.9846              1179.5951              1195.2945
 Red. masses --      1.4797                 2.3580                 1.1241
 Frc consts  --      1.2036                 1.9331                 0.9462
 IR Inten    --      1.8767                32.1552                 3.5536

                     31                     32                     33
                      A                      A                      A
 Frequencies --   1215.5918              1224.9399              1274.2470
 Red. masses --      2.2377                 1.7648                 3.3526
 Frc consts  --      1.9482                 1.5602                 3.2073
 IR Inten    --     17.5779                11.9356                84.1481

                     34                     35                     36
                      A                      A                      A
 Frequencies --   1316.9731              1409.6637              1417.5200
 Red. masses --      3.7939                 1.2707                 1.2976
 Frc consts  --      3.8770                 1.4877                 1.5362
 IR Inten    --     70.4421                 7.8960                12.8726

                     37                     38                     39
                      A                      A                      A
 Frequencies --   1484.4318              1490.3165              1502.2113
 Red. masses --      1.0662                 1.0598                 1.0860
 Frc consts  --      1.3843                 1.3869                 1.4439
 IR Inten    --      3.2744                 2.2163                 1.4180

                     40                     41                     42
                      A                      A                      A
 Frequencies --   1535.1860              1540.6071              3017.2096
 Red. masses --      1.1038                 1.1689                 1.0543
 Frc consts  --      1.5327                 1.6346                 5.6551
 IR Inten    --      8.3202                 6.2131                92.0999

                     43                     44                     45
                      A                      A                      A
 Frequencies --   3038.4995              3067.9673              3080.5356
 Red. masses --      1.0379                 1.1144                 1.0582
 Frc consts  --      5.6458                 6.1800                 5.9165
 IR Inten    --     16.0872                40.6906                31.6470

                     46                     47                     48
                      A                      A                      A
 Frequencies --   3084.8878              3102.5710              3124.0546
 Red. masses --      1.0567                 1.0993                 1.1005
 Frc consts  --      5.9247                 6.2346                 6.3283
 IR Inten    --     31.4843                14.1270                19.1169

                     49                     50                     51
                      A                      A                      A
 Frequencies --   3132.4401              3157.5469              3164.5847
 Red. masses --      1.0928                 1.1089                 1.1078
 Frc consts  --      6.3175                 6.5136                 6.5366
 IR Inten    --     40.5095                27.2596                18.7842

 - Thermochemistry -
 -------------------
 Temperature   298.150 Kelvin.  Pressure   1.00000 Atm.
 Atom     1 has atomic number  6 and mass  12.00000

 Molecular mass:   126.06808 amu.
 Principal axes and moments of inertia in atomic units:
                           1         2         3
     Eigenvalues --   709.54712 891.955551106.31031
           X            0.99990  -0.01120   0.00877
           Y            0.01032   0.99552   0.09401
           Z           -0.00978  -0.09391   0.99553
 This molecule is an asymmetric top.
 Rotational symmetry number  1.
 Warning -- assumption of classical behavior for rotation
           may cause significant error
 Rotational temperatures (Kelvin)      0.12207     0.09711     0.07829
 Rotational constants (GHZ):           2.54351     2.02335     1.63132
 Zero-point vibrational energy     419977.4 (Joules/Mol)
                                  100.37701 (Kcal/Mol)
 Warning -- explicit consideration of   9 degrees of freedom as
           vibrations may cause significant error
 Vibrational temperatures:    190.84   264.53   315.53   479.65   534.46
          (Kelvin)            583.90   714.30   769.99   817.37   913.34
                             1050.65  1095.88  1138.61  1196.70  1241.58
                             1285.25  1326.29  1371.53  1417.49  1438.14
                             1491.54  1516.26  1543.61  1606.32  1614.92
                             1624.96  1638.88  1690.54  1697.17  1719.76
                             1748.96  1762.41  1833.35  1894.83  2028.19
                             2039.49  2135.76  2144.23  2161.34  2208.79
                             2216.59  4341.09  4371.72  4414.12  4432.20
                             4438.46  4463.90  4494.81  4506.88  4543.00
                             4553.13

 Zero-point correction=                           0.159961 (Hartree/Particle)
 Thermal correction to Energy=                    0.167307
 Thermal correction to Enthalpy=                  0.168251
 Thermal correction to Gibbs Free Energy=         0.128594
 Sum of electronic and zero-point Energies=           -422.943638
 Sum of electronic and thermal Energies=              -422.936292
 Sum of electronic and thermal Enthalpies=            -422.935347
 Sum of electronic and thermal Free Energies=         -422.975005

                     E (Thermal)             CV                S
                      KCal/Mol        Cal/Mol-Kelvin    Cal/Mol-Kelvin
 Total                  104.987             30.026             83.466
 Electronic               0.000              0.000              0.000
 Translational            0.889              2.981             40.409
 Rotational               0.889              2.981             28.039
 Vibrational            103.209             24.065             15.018
 Vibration     1          0.613              1.921              2.907
 Vibration     2          0.631              1.862              2.289
 Vibration     3          0.647              1.812              1.965
 Vibration     4          0.715              1.609              1.244
 Vibration     5          0.743              1.531              1.074
 Vibration     6          0.771              1.458              0.941
 Vibration     7          0.852              1.258              0.667
 Vibration     8          0.890              1.172              0.576
 Vibration     9          0.924              1.100              0.508

 Optimization completed.
    -- Stationary point found.
 Normal termination of Gaussian 09 at Mon Jan 27 22:45:06 2020.
