 Gaussian 09, Revision D.01,
 Gaussian 09:  ES64L-G09RevD.01 24-Apr-2013

 -----------------------------
 # b3lyp 6-31G(2df,p) opt Freq
 -----------------------------

 -----
 titel
 -----
 Symbolic Z-matrix:
 Charge =  0 Multiplicity = 1

 SCF Done:  E(RB3LYP) =  -423.092375035     A.U. after   14 cycles
 Optimization completed.
    -- Stationary point found.
 Normal termination of Gaussian 09 at Mon Jan 27 22:55:38 2020.

 ----------------------------------------------------------------------
 #N Geom=AllCheck Guess=TCheck SCRF=Check GenChk RB3LYP/6-31G(2df,p) Fr
 eq
 ----------------------------------------------------------------------

 Structure from the checkpoint file:  "/scratch/puck/g09_a595a478-2ddd-44ef-abfe-aec50d194524/Gau-101371.chk"
 -----
 titel
 -----
 Charge =  0 Multiplicity = 1

                         Standard orientation:
 ---------------------------------------------------------------------
 Center     Atomic      Atomic             Coordinates (Angstroms)
 Number     Number       Type             X           Y           Z
 ---------------------------------------------------------------------
      1          6           0       -1.703918   -1.588651   -0.572567
      2          6           0       -1.360534   -0.387895    0.293574
      3          6           0       -0.161090   -0.361590    1.284695
      4          8           0       -0.252755    1.117623    1.280791
      5          6           0       -0.374774    0.739197   -0.160920
      6          6           0       -0.523465    1.828215   -1.173054
      7          6           0        0.793485   -0.236352    0.092894
      8          6           0        1.719525   -1.058137   -0.674165
      9          8           0        2.152947    0.074746    0.116428
     10          1           0       -2.406485   -1.302481   -1.362688
     11          1           0       -0.825343   -2.029875   -1.048915
     12          1           0       -2.187950   -2.367576    0.026148
     13          1           0       -2.240967    0.056028    0.765129
     14          1           0       -0.033152   -0.857654    2.246041
     15          1           0       -1.392090    2.451606   -0.942022
     16          1           0        0.369659    2.459872   -1.182670
     17          1           0       -0.658545    1.402222   -2.172474
     18          1           0        2.032081   -2.030703   -0.296845
     19          1           0        1.805879   -0.929114   -1.752194
 ---------------------------------------------------------------------

 SCF Done:  E(RB3LYP) =  -423.092375035     A.U. after    1 cycles

 The electronic state is 1-A.
 Alpha  occ. eigenvalues --  -19.15568 -19.13074 -10.24945 -10.24754 -10.24399
 Alpha  occ. eigenvalues --  -10.23877 -10.20050 -10.18686 -10.18498  -1.08526
 Alpha  occ. eigenvalues --   -1.04549  -0.79971  -0.74818  -0.71282  -0.66791
 Alpha  occ. eigenvalues --   -0.62546  -0.61894  -0.52914  -0.49305  -0.48172
 Alpha  occ. eigenvalues --   -0.46189  -0.44493  -0.43840  -0.41980  -0.40764
 Alpha  occ. eigenvalues --   -0.40147  -0.37118  -0.36022  -0.34400  -0.33778
 Alpha  occ. eigenvalues --   -0.31005  -0.29852  -0.26212  -0.23875
 Alpha virt. eigenvalues --    0.07331   0.08387   0.10275   0.11617   0.12357
 Alpha virt. eigenvalues --    0.12968   0.13516   0.14307   0.14820   0.15283
 Alpha virt. eigenvalues --    0.16320   0.17133   0.17970   0.19669   0.21061

 Mulliken charges:
               1
     1  C   -0.444252
     2  C   -0.001324
     3  C   -0.086692
     4  O   -0.347301
     5  C    0.276230
     6  C   -0.524673
     7  C    0.514251
     8  C   -0.310493
     9  O   -0.283739
    10  H    0.123652
    11  H    0.122951
    12  H    0.124955
    13  H    0.086505
    14  H    0.097734
    15  H    0.137381
    16  H    0.146720
    17  H    0.126727
    18  H    0.121695
    19  H    0.119673
 Sum of Mulliken charges =   0.00000

 Dipole moment (field-independent basis, Debye):
    X=             -1.5280    Y=             -2.1098    Z=             -1.9280  Tot=              3.2408
 Quadrupole moment (field-independent basis, Debye-Ang):
   XX=            -55.8670   YY=            -52.0070   ZZ=            -52.1949
   XY=             -2.2496   XZ=             -1.1053   YZ=             -3.6323

  Exact polarizability:  77.480  -2.632  76.822  -2.072  -1.256  72.948
 Approx polarizability: 109.858  -2.247 112.468  -2.176   3.546 111.245

                      1                      2                      3
                      A                      A                      A
 Frequencies --    159.1267               171.7035               172.7880
 Red. masses --      2.5869                 1.2916                 1.2105
 Frc consts  --      0.0386                 0.0224                 0.0213
 IR Inten    --      0.2914                 0.1261                 0.1320

                      4                      5                      6
                      A                      A                      A
 Frequencies --    179.1331               207.0559               246.6370
 Red. masses --      1.6718                 2.7248                 3.0653
 Frc consts  --      0.0316                 0.0688                 0.1099
 IR Inten    --      0.2134                 0.2668                 4.3125

                      7                      8                      9
                      A                      A                      A
 Frequencies --    314.1362               400.8200               425.7385
 Red. masses --      4.5554                 2.8951                 2.8151
 Frc consts  --      0.2649                 0.2740                 0.3006
 IR Inten    --      0.0983                 3.4239                 0.5126

                     10                     11                     12
                      A                      A                      A
 Frequencies --    514.3678               617.1424               652.8597
 Red. masses --      4.9975                 4.1659                 3.6525
 Frc consts  --      0.7790                 0.9348                 0.9172
 IR Inten    --      5.3996                 1.5239                 5.4539

                     13                     14                     15
                      A                      A                      A
 Frequencies --    671.8484               736.5187               768.1642
 Red. masses --      4.1898                 4.5211                 2.2484
 Frc consts  --      1.1143                 1.4450                 0.7817
 IR Inten    --     21.3576                17.7180                 5.3392

                     16                     17                     18
                      A                      A                      A
 Frequencies --    811.2941               869.0080               900.9669
 Red. masses --      1.8770                 3.1210                 4.6690
 Frc consts  --      0.7279                 1.3887                 2.2330
 IR Inten    --      6.5236                11.5937                34.7363

                     19                     20                     21
                      A                      A                      A
 Frequencies --    933.3989              1011.4027              1019.9921
 Red. masses --      2.4058                 3.0829                 1.1818
 Frc consts  --      1.2349                 1.8580                 0.7244
 IR Inten    --     11.9140                46.4232                 3.3089

                     22                     23                     24
                      A                      A                      A
 Frequencies --   1053.3197              1090.5660              1108.3858
 Red. masses --      1.6673                 1.6328                 1.8873
 Frc consts  --      1.0899                 1.1442                 1.3660
 IR Inten    --      4.4308                 6.9990                 3.6149

                     25                     26                     27
                      A                      A                      A
 Frequencies --   1114.1950              1120.2346              1137.2902
 Red. masses --      1.5257                 1.7687                 2.4268
 Frc consts  --      1.1159                 1.3077                 1.8494
 IR Inten    --      2.0550                 2.3848                11.8036

                     28                     29                     30
                      A                      A                      A
 Frequencies --   1170.5498              1211.7781              1225.7628
 Red. masses --      1.6597                 1.5277                 1.7073
 Frc consts  --      1.3398                 1.3217                 1.5114
 IR Inten    --      3.4860                 5.2971                 2.6181

                     31                     32                     33
                      A                      A                      A
 Frequencies --   1233.2577              1324.5027              1377.2722
 Red. masses --      2.0830                 2.1008                 1.6136
 Frc consts  --      1.8666                 2.1714                 1.8034
 IR Inten    --      7.6896                13.9959                12.9626

                     34                     35                     36
                      A                      A                      A
 Frequencies --   1408.6119              1414.7398              1466.3470
 Red. masses --      1.3378                 1.5653                 1.4471
 Frc consts  --      1.5639                 1.8459                 1.8333
 IR Inten    --      8.2366                15.9243                 4.0450

                     37                     38                     39
                      A                      A                      A
 Frequencies --   1478.8735              1489.1405              1496.2670
 Red. masses --      1.1170                 1.0607                 1.0470
 Frc consts  --      1.4394                 1.3859                 1.3810
 IR Inten    --      7.6276                 7.3323                 3.0531

                     40                     41                     42
                      A                      A                      A
 Frequencies --   1498.2533              1557.7857              3038.0621
 Red. masses --      1.0603                 2.5319                 1.0374
 Frc consts  --      1.4023                 3.6200                 5.6414
 IR Inten    --      3.5176                22.9693                23.0038

                     43                     44                     45
                      A                      A                      A
 Frequencies --   3040.5676              3083.2858              3084.6643
 Red. masses --      1.0348                 1.0508                 1.0853
 Frc consts  --      5.6367                 5.8855                 6.0846
 IR Inten    --     12.6035                19.2573                10.0211

                     46                     47                     48
                      A                      A                      A
 Frequencies --   3095.8439              3112.9756              3119.9210
 Red. masses --      1.1005                 1.1005                 1.1021
 Frc consts  --      6.2146                 6.2833                 6.3204
 IR Inten    --     17.8827                11.5032                 7.3628

                     49                     50                     51
                      A                      A                      A
 Frequencies --   3124.6830              3132.8601              3168.9321
 Red. masses --      1.0984                 1.0938                 1.1189
 Frc consts  --      6.3185                 6.3254                 6.6200
 IR Inten    --     28.6289                39.0216                17.8107

 - Thermochemistry -
 -------------------
 Temperature   298.150 Kelvin.  Pressure   1.00000 Atm.
 Atom     1 has atomic number  6 and mass  12.00000

 Molecular mass:   126.06808 amu.
 Principal axes and moments of inertia in atomic units:
                           1         2         3
     Eigenvalues --   850.180321066.560321259.93043
           X            0.99986   0.01430   0.00886
           Y           -0.01363   0.99731  -0.07199
           Z           -0.00986   0.07186   0.99737
 This molecule is an asymmetric top.
 Rotational symmetry number  1.
 Warning -- assumption of classical behavior for rotation
           may cause significant error
 Rotational temperatures (Kelvin)      0.10188     0.08121     0.06874
 Rotational constants (GHZ):           2.12277     1.69211     1.43241
 Zero-point vibrational energy     411294.3 (Joules/Mol)
                                   98.30169 (Kcal/Mol)
 Warning -- explicit consideration of  11 degrees of freedom as
           vibrations may cause significant error
 Vibrational temperatures:    228.95   247.04   248.60   257.73   297.91
          (Kelvin)            354.86   451.97   576.69   612.54   740.06
                              887.93   939.32   966.64  1059.68  1105.22
                             1167.27  1250.31  1296.29  1342.95  1455.18
                             1467.54  1515.49  1569.08  1594.72  1603.08
                             1611.77  1636.30  1684.16  1743.48  1763.60
                             1774.38  1905.66  1981.59  2026.68  2035.49
                             2109.74  2127.77  2142.54  2152.79  2155.65
                             2241.30  4371.09  4374.69  4436.16  4438.14
                             4454.22  4478.87  4488.86  4495.72  4507.48
                             4559.38

 Zero-point correction=                           0.156654 (Hartree/Particle)
 Thermal correction to Energy=                    0.165347
 Thermal correction to Enthalpy=                  0.166291
 Thermal correction to Gibbs Free Energy=         0.123826
 Sum of electronic and zero-point Energies=           -422.935721
 Sum of electronic and thermal Energies=              -422.927028
 Sum of electronic and thermal Enthalpies=            -422.926084
 Sum of electronic and thermal Free Energies=         -422.968549

                     E (Thermal)             CV                S
                      KCal/Mol        Cal/Mol-Kelvin    Cal/Mol-Kelvin
 Total                  103.757             33.310             89.377
 Electronic               0.000              0.000              0.000
 Translational            0.889              2.981             40.409
 Rotational               0.889              2.981             28.526
 Vibrational            101.980             27.348             20.442
 Vibration     1          0.621              1.892              2.560
 Vibration     2          0.626              1.877              2.417
 Vibration     3          0.626              1.876              2.405
 Vibration     4          0.629              1.868              2.337
 Vibration     5          0.641              1.830              2.069
 Vibration     6          0.661              1.768              1.754
 Vibration     7          0.702              1.647              1.340
 Vibration     8          0.767              1.468              0.960
 Vibration     9          0.788              1.414              0.873
 Vibration    10          0.869              1.218              0.623
 Vibration    11          0.977              0.996              0.421

 Optimization completed.
    -- Stationary point found.
 Normal termination of Gaussian 09 at Mon Jan 27 23:40:38 2020.
