 Gaussian 09, Revision D.01,
 Gaussian 09:  ES64L-G09RevD.01 24-Apr-2013

 -----------------------------
 # b3lyp 6-31G(2df,p) opt Freq
 -----------------------------

 -----
 titel
 -----
 Symbolic Z-matrix:
 Charge =  0 Multiplicity = 1

 SCF Done:  E(RB3LYP) =  -423.132257576     A.U. after   13 cycles
 SCF Done:  E(RB3LYP) =  -423.132258512     A.U. after    7 cycles
 SCF Done:  E(RB3LYP) =  -423.132259571     A.U. after    8 cycles
 SCF Done:  E(RB3LYP) =  -423.132260439     A.U. after    9 cycles
 SCF Done:  E(RB3LYP) =  -423.132260649     A.U. after    7 cycles
 Optimization completed.
    -- Stationary point found.
 Normal termination of Gaussian 09 at Mon Jan 27 11:45:31 2020.

 ----------------------------------------------------------------------
 #N Geom=AllCheck Guess=TCheck SCRF=Check GenChk RB3LYP/6-31G(2df,p) Fr
 eq
 ----------------------------------------------------------------------

 Structure from the checkpoint file:  "/scratch/puck/g09_a96c87b3-9807-481c-ab2e-32e347f455c4/Gau-131190.chk"
 -----
 titel
 -----
 Charge =  0 Multiplicity = 1

                         Standard orientation:
 ---------------------------------------------------------------------
 Center     Atomic      Atomic             Coordinates (Angstroms)
 Number     Number       Type             X           Y           Z
 ---------------------------------------------------------------------
      1          6           0       -2.840371   -0.410588    0.000000
      2          8           0       -2.343499    0.936788    0.000000
      3          6           0       -1.406894   -0.132266    0.000000
      4          6           0       -0.346694   -0.268233    1.096900
      5          6           0        0.740166   -0.091077    0.000000
      6          6           0        1.695357    1.121284    0.000001
      7          6           0        2.811760    0.060278    0.000000
      8          8           0        1.844142   -1.011553    0.000000
      9          6           0       -0.346694   -0.268231   -1.096900
     10          1           0       -3.332478   -0.726119    0.919643
     11          1           0       -3.332478   -0.726118   -0.919644
     12          1           0       -0.380055    0.477704    1.894902
     13          1           0       -0.302193   -1.271421    1.531373
     14          1           0        1.643798    1.751066   -0.889846
     15          1           0        1.643798    1.751065    0.889847
     16          1           0        3.448468    0.034323   -0.892080
     17          1           0        3.448469    0.034323    0.892079
     18          1           0       -0.380055    0.477706   -1.894902
     19          1           0       -0.302193   -1.271420   -1.531374
 ---------------------------------------------------------------------

 SCF Done:  E(RB3LYP) =  -423.132260649     A.U. after    1 cycles

 The electronic state is 1-A.
 Alpha  occ. eigenvalues --  -19.14677 -19.13220 -10.24220 -10.24062 -10.23136
 Alpha  occ. eigenvalues --  -10.22963 -10.18939 -10.18183 -10.18182  -1.06737
 Alpha  occ. eigenvalues --   -1.03903  -0.83230  -0.73994  -0.67594  -0.66680
 Alpha  occ. eigenvalues --   -0.64798  -0.56130  -0.52182  -0.49617  -0.49320
 Alpha  occ. eigenvalues --   -0.48244  -0.47051  -0.44813  -0.42153  -0.40428
 Alpha  occ. eigenvalues --   -0.37815  -0.36470  -0.35940  -0.33308  -0.33034
 Alpha  occ. eigenvalues --   -0.30587  -0.28044  -0.26111  -0.24199
 Alpha virt. eigenvalues --    0.05756   0.09224   0.10421   0.11392   0.11580
 Alpha virt. eigenvalues --    0.11749   0.13012   0.15466   0.15932   0.16045
 Alpha virt. eigenvalues --    0.17189   0.17686   0.18729   0.19762   0.21441

 Mulliken charges:
               1
     1  C   -0.268240
     2  O   -0.268759
     3  C    0.440032
     4  C   -0.374140
     5  C    0.450692
     6  C   -0.344237
     7  C   -0.075519
     8  O   -0.314732
     9  C   -0.374140
    10  H    0.113880
    11  H    0.113880
    12  H    0.112934
    13  H    0.118429
    14  H    0.114790
    15  H    0.114790
    16  H    0.104488
    17  H    0.104488
    18  H    0.112934
    19  H    0.118429
 Sum of Mulliken charges =   0.00000

 Dipole moment (field-independent basis, Debye):
    X=              0.5370    Y=             -0.0529    Z=              0.0000  Tot=              0.5396
 Quadrupole moment (field-independent basis, Debye-Ang):
   XX=            -51.9718   YY=            -56.0569   ZZ=            -50.8611
   XY=              8.0723   XZ=              0.0000   YZ=              0.0000

  Exact polarizability:  95.463   4.473  63.184   0.000   0.000  69.153
 Approx polarizability: 116.030   1.909 101.568   0.000   0.000 100.402

                      1                      2                      3
                      A                      A                      A
 Frequencies --     40.3662                61.6316               234.6047
 Red. masses --      3.7995                 2.1694                 2.8995
 Frc consts  --      0.0036                 0.0049                 0.0940
 IR Inten    --      2.4272                 0.8336                 5.6919

                      4                      5                      6
                      A                      A                      A
 Frequencies --    273.6146               309.2548               347.0751
 Red. masses --      3.0745                 4.1753                 2.2823
 Frc consts  --      0.1356                 0.2353                 0.1620
 IR Inten    --      1.1528                 0.0559                 3.1411

                      7                      8                      9
                      A                      A                      A
 Frequencies --    379.6718               422.7400               452.5151
 Red. masses --      2.1940                 3.1357                 2.5234
 Frc consts  --      0.1863                 0.3302                 0.3044
 IR Inten    --      2.1681                 4.0608                 0.0570

                     10                     11                     12
                      A                      A                      A
 Frequencies --    643.8319               777.9739               798.3436
 Red. masses --      3.3101                 1.1584                 3.8857
 Frc consts  --      0.8084                 0.4131                 1.4591
 IR Inten    --      2.3748                 0.0012                41.0389

                     13                     14                     15
                      A                      A                      A
 Frequencies --    814.3112               849.5603               865.3841
 Red. masses --      1.5132                 3.1168                 4.1378
 Frc consts  --      0.5912                 1.3254                 1.8257
 IR Inten    --      0.0218                 0.2853                 8.5865

                     16                     17                     18
                      A                      A                      A
 Frequencies --    887.3764               912.7479               915.2219
 Red. masses --      1.4782                 1.8163                 3.6668
 Frc consts  --      0.6858                 0.8915                 1.8096
 IR Inten    --      1.0703                 2.4132                21.5293

                     19                     20                     21
                      A                      A                      A
 Frequencies --    962.8750               982.6787              1026.8995
 Red. masses --      3.2937                 3.6374                 8.4779
 Frc consts  --      1.7992                 2.0695                 5.2674
 IR Inten    --     13.2592                20.2569               119.8282

                     22                     23                     24
                      A                      A                      A
 Frequencies --   1045.5287              1120.6378              1124.0011
 Red. masses --      1.0359                 1.7510                 1.2622
 Frc consts  --      0.6672                 1.2956                 0.9396
 IR Inten    --      0.1019                22.0874                 2.0899

                     25                     26                     27
                      A                      A                      A
 Frequencies --   1138.6050              1140.1940              1164.8896
 Red. masses --      2.3983                 2.5897                 1.2310
 Frc consts  --      1.8319                 1.9836                 0.9842
 IR Inten    --      1.2746                43.8863                 0.9365

                     28                     29                     30
                      A                      A                      A
 Frequencies --   1182.6608              1205.5329              1208.1467
 Red. masses --      1.6818                 1.6408                 1.4034
 Frc consts  --      1.3860                 1.4049                 1.2069
 IR Inten    --      1.2382                 6.7417                 1.1990

                     31                     32                     33
                      A                      A                      A
 Frequencies --   1236.7507              1239.3642              1254.0561
 Red. masses --      1.9365                 1.5088                 1.4948
 Frc consts  --      1.7451                 1.3655                 1.3850
 IR Inten    --      6.3108                 8.7999                 0.3241

                     34                     35                     36
                      A                      A                      A
 Frequencies --   1301.2774              1358.9976              1431.6723
 Red. masses --      2.7274                 1.4842                 1.8073
 Frc consts  --      2.7211                 1.6150                 2.1826
 IR Inten    --     38.2295                 2.7289                18.9038

                     37                     38                     39
                      A                      A                      A
 Frequencies --   1443.5496              1470.6026              1486.2438
 Red. masses --      1.0938                 1.2560                 1.1037
 Frc consts  --      1.3430                 1.6004                 1.4365
 IR Inten    --      9.2259                 1.4149                 2.7332

                     40                     41                     42
                      A                      A                      A
 Frequencies --   1530.7077              1538.8921              3021.5527
 Red. masses --      1.1175                 1.6841                 1.0551
 Frc consts  --      1.5427                 2.3498                 5.6754
 IR Inten    --      1.0388                 7.1296                94.0277

                     43                     44                     45
                      A                      A                      A
 Frequencies --   3053.2041              3058.6697              3061.8631
 Red. masses --      1.0572                 1.0593                 1.1116
 Frc consts  --      5.8066                 5.8392                 6.1401
 IR Inten    --     22.8007                 2.3527                34.6403

                     46                     47                     48
                      A                      A                      A
 Frequencies --   3076.2605              3078.4204              3116.3371
 Red. masses --      1.0504                 1.0590                 1.1081
 Frc consts  --      5.8566                 5.9131                 6.3401
 IR Inten    --     26.9665                21.6245                16.9096

                     49                     50                     51
                      A                      A                      A
 Frequencies --   3116.7441              3133.1903              3161.0821
 Red. masses --      1.1075                 1.1087                 1.1191
 Frc consts  --      6.3389                 6.4129                 6.5887
 IR Inten    --      2.8774                21.6636                22.5233

 - Thermochemistry -
 -------------------
 Temperature   298.150 Kelvin.  Pressure   1.00000 Atm.
 Atom     1 has atomic number  6 and mass  12.00000

 Molecular mass:   126.06808 amu.
 Principal axes and moments of inertia in atomic units:
                           1         2         3
     Eigenvalues --   378.481961785.274531837.03398
           X            0.99960   0.02829   0.00000
           Y           -0.02829   0.99960   0.00000
           Z            0.00000   0.00000   1.00000
 This molecule is an asymmetric top.
 Rotational symmetry number  1.
 Rotational temperatures (Kelvin)      0.22885     0.04852     0.04715
 Rotational constants (GHZ):           4.76837     1.01090     0.98242
 Zero-point vibrational energy     415453.0 (Joules/Mol)
                                   99.29564 (Kcal/Mol)
 Warning -- explicit consideration of   9 degrees of freedom as
           vibrations may cause significant error
 Vibrational temperatures:     58.08    88.67   337.54   393.67   444.95
          (Kelvin)            499.36   546.26   608.23   651.07   926.33
                             1119.33  1148.64  1171.61  1222.33  1245.09
                             1276.74  1313.24  1316.80  1385.36  1413.85
                             1477.48  1504.28  1612.35  1617.18  1638.20
                             1640.48  1676.01  1701.58  1734.49  1738.25
                             1779.41  1783.17  1804.30  1872.25  1955.29
                             2059.85  2076.94  2115.87  2138.37  2202.34
                             2214.12  4347.34  4392.87  4400.74  4405.33
                             4426.05  4429.15  4483.71  4484.29  4507.96
                             4548.09

 Zero-point correction=                           0.158238 (Hartree/Particle)
 Thermal correction to Energy=                    0.166411
 Thermal correction to Enthalpy=                  0.167355
 Thermal correction to Gibbs Free Energy=         0.124555
 Sum of electronic and zero-point Energies=           -422.974023
 Sum of electronic and thermal Energies=              -422.965850
 Sum of electronic and thermal Enthalpies=            -422.964905
 Sum of electronic and thermal Free Energies=         -423.007706

                     E (Thermal)             CV                S
                      KCal/Mol        Cal/Mol-Kelvin    Cal/Mol-Kelvin
 Total                  104.425             31.108             90.081
 Electronic               0.000              0.000              0.000
 Translational            0.889              2.981             40.409
 Rotational               0.889              2.981             28.608
 Vibrational            102.647             25.146             21.064
 Vibration     1          0.594              1.981              5.241
 Vibration     2          0.597              1.973              4.404
 Vibration     3          0.654              1.788              1.843
 Vibration     4          0.676              1.722              1.573
 Vibration     5          0.699              1.656              1.366
 Vibration     6          0.725              1.581              1.179
 Vibration     7          0.750              1.513              1.040
 Vibration     8          0.785              1.421              0.883
 Vibration     9          0.811              1.355              0.788

 Optimization completed.
    -- Stationary point found.
 Normal termination of Gaussian 09 at Mon Jan 27 12:36:19 2020.
