 Gaussian 09, Revision D.01,
 Gaussian 09:  ES64L-G09RevD.01 24-Apr-2013

 -----------------------------
 # b3lyp 6-31G(2df,p) opt Freq
 -----------------------------

 -----
 titel
 -----
 Symbolic Z-matrix:
 Charge =  0 Multiplicity = 1

 SCF Done:  E(RB3LYP) =  -423.170452788     A.U. after   14 cycles
 Optimization completed.
    -- Stationary point found.
 Normal termination of Gaussian 09 at Mon Jan 27 14:17:25 2020.

 ----------------------------------------------------------------------
 #N Geom=AllCheck Guess=TCheck SCRF=Check GenChk RB3LYP/6-31G(2df,p) Fr
 eq
 ----------------------------------------------------------------------

 Structure from the checkpoint file:  "/scratch/puck/g09_8fb2388f-9e10-44da-962d-78e5c2d688fe/Gau-5717.chk"
 -----
 titel
 -----
 Charge =  0 Multiplicity = 1

                         Standard orientation:
 ---------------------------------------------------------------------
 Center     Atomic      Atomic             Coordinates (Angstroms)
 Number     Number       Type             X           Y           Z
 ---------------------------------------------------------------------
      1          6           0        2.779972    0.406638   -0.122306
      2          6           0        1.481114   -0.364843    0.021765
      3          8           0        1.428707   -1.435002    0.588713
      4          6           0        0.239716    0.248876   -0.599644
      5          6           0       -0.269235    1.682669   -0.186027
      6          6           0       -1.634039    1.068398    0.151354
      7          6           0       -1.453429    0.027851    1.233607
      8          6           0       -1.116601   -0.323844   -0.187014
      9          8           0       -1.761369   -1.328911   -0.879208
     10          1           0        2.711693    1.364304    0.406128
     11          1           0        3.607600   -0.175738    0.284622
     12          1           0        2.971116    0.641881   -1.175436
     13          1           0        0.355783    0.212437   -1.689502
     14          1           0        0.249278    2.153168    0.656045
     15          1           0       -0.284294    2.381116   -1.024482
     16          1           0       -2.595375    1.517131   -0.062981
     17          1           0       -0.687966    0.137473    1.998213
     18          1           0       -2.376914   -0.426373    1.577848
     19          1           0       -1.454616   -2.168571   -0.516900
 ---------------------------------------------------------------------

 SCF Done:  E(RB3LYP) =  -423.170452788     A.U. after    1 cycles

 The electronic state is 1-A.
 Alpha  occ. eigenvalues --  -19.14437 -19.12895 -10.26851 -10.23899 -10.19780
 Alpha  occ. eigenvalues --  -10.19614 -10.19264 -10.18968 -10.18332  -1.03942
 Alpha  occ. eigenvalues --   -1.03076  -0.89063  -0.76484  -0.72509  -0.66714
 Alpha  occ. eigenvalues --   -0.60302  -0.55793  -0.53943  -0.51189  -0.47070
 Alpha  occ. eigenvalues --   -0.46508  -0.44424  -0.43763  -0.41787  -0.40866
 Alpha  occ. eigenvalues --   -0.39058  -0.38335  -0.36144  -0.35665  -0.33529
 Alpha  occ. eigenvalues --   -0.31530  -0.26644  -0.25580  -0.23668
 Alpha virt. eigenvalues --   -0.01410   0.08179   0.09051   0.10526   0.11174
 Alpha virt. eigenvalues --    0.12030   0.14289   0.15144   0.15871   0.16615
 Alpha virt. eigenvalues --    0.17160   0.19049   0.20157   0.21284   0.21903

 Mulliken charges:
               1
     1  C   -0.477926
     2  C    0.364355
     3  O   -0.307065
     4  C   -0.176201
     5  C   -0.260497
     6  C   -0.110069
     7  C   -0.335221
     8  C    0.417008
     9  O   -0.466269
    10  H    0.143036
    11  H    0.141658
    12  H    0.136435
    13  H    0.105498
    14  H    0.099899
    15  H    0.110975
    16  H    0.097112
    17  H    0.108377
    18  H    0.115718
    19  H    0.293178
 Sum of Mulliken charges =   0.00000

 Dipole moment (field-independent basis, Debye):
    X=              0.6832    Y=              1.8571    Z=             -0.3834  Tot=              2.0156
 Quadrupole moment (field-independent basis, Debye-Ang):
   XX=            -52.8365   YY=            -52.7125   ZZ=            -53.8326
   XY=              3.2155   XZ=             -3.9234   YZ=              0.1344

  Exact polarizability:  82.577   1.003  77.312  -1.980  -3.986  65.776
 Approx polarizability: 105.223   0.131 122.659  -0.193  -8.361 104.012

                      1                      2                      3
                      A                      A                      A
 Frequencies --     38.3118               110.3665               124.5114
 Red. masses --      3.4720                 1.3607                 2.5547
 Frc consts  --      0.0030                 0.0098                 0.0233
 IR Inten    --      2.7910                 1.7410                 1.9544

                      4                      5                      6
                      A                      A                      A
 Frequencies --    144.5084               267.0327               294.6277
 Red. masses --      3.5427                 2.7732                 2.1395
 Frc consts  --      0.0436                 0.1165                 0.1094
 IR Inten    --      4.7358                 3.7411                11.1996

                      7                      8                      9
                      A                      A                      A
 Frequencies --    329.6679               389.2958               438.7954
 Red. masses --      1.3883                 2.6956                 3.2629
 Frc consts  --      0.0889                 0.2407                 0.3701
 IR Inten    --     89.3654                 0.7607                 4.0745

                     10                     11                     12
                      A                      A                      A
 Frequencies --    457.9412               510.7714               608.0831
 Red. masses --      2.6016                 3.3257                 3.0122
 Frc consts  --      0.3214                 0.5112                 0.6562
 IR Inten    --     22.0497                 3.2373                11.1929

                     13                     14                     15
                      A                      A                      A
 Frequencies --    641.1226               720.2334               767.0991
 Red. masses --      3.3396                 3.1328                 2.0139
 Frc consts  --      0.8088                 0.9575                 0.6982
 IR Inten    --      2.5206                 3.6982                 0.6632

                     16                     17                     18
                      A                      A                      A
 Frequencies --    850.1539               885.4729               905.6121
 Red. masses --      2.9473                 1.7290                 2.1295
 Frc consts  --      1.2551                 0.7987                 1.0290
 IR Inten    --     15.0190                 6.5107                 9.7327

                     19                     20                     21
                      A                      A                      A
 Frequencies --    944.4456               985.0560              1003.2332
 Red. masses --      1.5418                 1.3630                 3.0941
 Frc consts  --      0.8103                 0.7792                 1.8348
 IR Inten    --      5.2062                 0.5846                18.0879

                     22                     23                     24
                      A                      A                      A
 Frequencies --   1013.7992              1022.3904              1037.3168
 Red. masses --      1.3928                 1.5976                 1.6313
 Frc consts  --      0.8434                 0.9839                 1.0342
 IR Inten    --      4.6672                 0.0978                 1.9563

                     25                     26                     27
                      A                      A                      A
 Frequencies --   1075.3617              1095.0109              1151.5366
 Red. masses --      1.6117                 2.2629                 1.8533
 Frc consts  --      1.0981                 1.5986                 1.4479
 IR Inten    --      6.1798                 4.4493                21.2111

                     28                     29                     30
                      A                      A                      A
 Frequencies --   1178.9629              1206.9977              1228.1673
 Red. masses --      1.3302                 1.7455                 1.7410
 Frc consts  --      1.0894                 1.4982                 1.5473
 IR Inten    --     20.0418                45.2552                16.8610

                     31                     32                     33
                      A                      A                      A
 Frequencies --   1238.6033              1296.0040              1313.8799
 Red. masses --      2.0339                 1.9271                 1.6056
 Frc consts  --      1.8384                 1.9071                 1.6330
 IR Inten    --     36.7464                28.4755                50.7949

                     34                     35                     36
                      A                      A                      A
 Frequencies --   1340.8083              1381.8064              1414.8743
 Red. masses --      2.0521                 1.3593                 1.9446
 Frc consts  --      2.1736                 1.5292                 2.2936
 IR Inten    --     38.2968                39.5519                35.3548

                     37                     38                     39
                      A                      A                      A
 Frequencies --   1462.3586              1474.9051              1482.9381
 Red. masses --      1.0540                 1.0498                 1.1895
 Frc consts  --      1.3280                 1.3455                 1.5412
 IR Inten    --      9.9600                 9.0461                 3.5252

                     40                     41                     42
                      A                      A                      A
 Frequencies --   1509.0908              1795.7603              3035.1575
 Red. masses --      1.3946                11.0183                 1.0402
 Frc consts  --      1.8712                20.9345                 5.6458
 IR Inten    --     21.3935               133.4613                 1.0483

                     43                     44                     45
                      A                      A                      A
 Frequencies --   3043.2787              3046.5585              3095.7953
 Red. masses --      1.0790                 1.0633                 1.0979
 Frc consts  --      5.8877                 5.8148                 6.1992
 IR Inten    --     11.4037                40.0386                 7.6189

                     46                     47                     48
                      A                      A                      A
 Frequencies --   3109.1908              3113.4860              3150.2306
 Red. masses --      1.0567                 1.1023                 1.1021
 Frc consts  --      6.0186                 6.2956                 6.4437
 IR Inten    --     11.8697                24.0573                10.7447

                     49                     50                     51
                      A                      A                      A
 Frequencies --   3196.2673              3207.0451              3786.5367
 Red. masses --      1.0977                 1.1091                 1.0658
 Frc consts  --      6.6072                 6.7207                 9.0036
 IR Inten    --      6.7926                13.9607                29.3708

 - Thermochemistry -
 -------------------
 Temperature   298.150 Kelvin.  Pressure   1.00000 Atm.
 Atom     1 has atomic number  6 and mass  12.00000

 Molecular mass:   126.06808 amu.
 Principal axes and moments of inertia in atomic units:
                           1         2         3
     Eigenvalues --   673.333861338.088851622.48144
           X            0.99940   0.02707  -0.02155
           Y           -0.02737   0.99953  -0.01366
           Z            0.02117   0.01424   0.99967
 This molecule is an asymmetric top.
 Rotational symmetry number  1.
 Warning -- assumption of classical behavior for rotation
           may cause significant error
 Rotational temperatures (Kelvin)      0.12863     0.06473     0.05338
 Rotational constants (GHZ):           2.68031     1.34875     1.11233
 Zero-point vibrational energy     412235.9 (Joules/Mol)
                                   98.52674 (Kcal/Mol)
 Warning -- explicit consideration of  12 degrees of freedom as
           vibrations may cause significant error
 Vibrational temperatures:     55.12   158.79   179.14   207.92   384.20
          (Kelvin)            423.90   474.32   560.11   631.33   658.87
                              734.89   874.89   922.43  1036.25  1103.68
                             1223.18  1274.00  1302.97  1358.84  1417.27
                             1443.43  1458.63  1470.99  1492.47  1547.20
                             1575.47  1656.80  1696.26  1736.60  1767.06
                             1782.07  1864.66  1890.38  1929.12  1988.11
                             2035.69  2104.01  2122.06  2133.61  2171.24
                             2583.70  4366.91  4378.59  4383.31  4454.15
                             4473.43  4479.61  4532.47  4598.71  4614.22
                             5447.97

 Zero-point correction=                           0.157012 (Hartree/Particle)
 Thermal correction to Energy=                    0.166193
 Thermal correction to Enthalpy=                  0.167137
 Thermal correction to Gibbs Free Energy=         0.122482
 Sum of electronic and zero-point Energies=           -423.013440
 Sum of electronic and thermal Energies=              -423.004260
 Sum of electronic and thermal Enthalpies=            -423.003316
 Sum of electronic and thermal Free Energies=         -423.047971

                     E (Thermal)             CV                S
                      KCal/Mol        Cal/Mol-Kelvin    Cal/Mol-Kelvin
 Total                  104.287             34.101             93.984
 Electronic               0.000              0.000              0.000
 Translational            0.889              2.981             40.409
 Rotational               0.889              2.981             28.771
 Vibrational            102.510             28.139             24.805
 Vibration     1          0.594              1.982              5.345
 Vibration     2          0.606              1.941              3.262
 Vibration     3          0.610              1.928              3.029
 Vibration     4          0.616              1.909              2.743
 Vibration     5          0.672              1.734              1.615
 Vibration     6          0.689              1.684              1.447
 Vibration     7          0.712              1.616              1.262
 Vibration     8          0.757              1.493              1.003
 Vibration     9          0.799              1.386              0.830
 Vibration    10          0.816              1.343              0.772
 Vibration    11          0.866              1.226              0.632
 Vibration    12          0.967              1.015              0.436

 Normal termination of Gaussian 09 at Mon Jan 27 16:09:33 2020.
