 Gaussian 09, Revision D.01,
 Gaussian 09:  ES64L-G09RevD.01 24-Apr-2013

 -----------------------------
 # b3lyp 6-31G(2df,p) opt Freq
 -----------------------------

 -----
 titel
 -----
 Symbolic Z-matrix:
 Charge =  0 Multiplicity = 1

 SCF Done:  E(RB3LYP) =  -423.209604058     A.U. after   14 cycles
 SCF Done:  E(RB3LYP) =  -423.209603626     A.U. after    8 cycles
 SCF Done:  E(RB3LYP) =  -423.209604253     A.U. after    7 cycles
 Optimization completed.
    -- Stationary point found.
 Normal termination of Gaussian 09 at Tue Jan 28 08:21:40 2020.

 ----------------------------------------------------------------------
 #N Geom=AllCheck Guess=TCheck SCRF=Check GenChk RB3LYP/6-31G(2df,p) Fr
 eq
 ----------------------------------------------------------------------

 Structure from the checkpoint file:  "/scratch/puck/g09_e0caaca1-f369-4463-bca9-013bc1eeedda/Gau-92061.chk"
 -----
 titel
 -----
 Charge =  0 Multiplicity = 1

                         Standard orientation:
 ---------------------------------------------------------------------
 Center     Atomic      Atomic             Coordinates (Angstroms)
 Number     Number       Type             X           Y           Z
 ---------------------------------------------------------------------
      1          6           0       -3.411437   -0.405316    0.000461
      2          6           0       -1.930663   -0.772600   -0.000601
      3          6           0       -1.004508    0.434733   -0.000199
      4          8           0       -1.430477    1.572575   -0.000042
      5          6           0        0.457279    0.157897   -0.000005
      6          6           0        1.407056    1.096444   -0.000083
      7          6           0        2.760092    0.461356    0.000237
      8          8           0        2.518224   -0.942759   -0.000404
      9          6           0        1.117049   -1.202734    0.000409
     10          1           0       -3.663752    0.190360    0.881297
     11          1           0       -3.663975    0.194079   -0.877760
     12          1           0       -4.033110   -1.304776   -0.001276
     13          1           0       -1.673482   -1.393502    0.869750
     14          1           0       -1.674421   -1.391730   -0.872528
     15          1           0        1.227978    2.163681   -0.000224
     16          1           0        3.353315    0.744522   -0.884236
     17          1           0        3.352474    0.744077    0.885454
     18          1           0        0.851586   -1.802504   -0.884235
     19          1           0        0.852204   -1.801416    0.886015
 ---------------------------------------------------------------------

 SCF Done:  E(RB3LYP) =  -423.209604253     A.U. after    1 cycles

 The electronic state is 1-A.
 Alpha  occ. eigenvalues --  -19.14315 -19.12755 -10.27100 -10.24179 -10.24102
 Alpha  occ. eigenvalues --  -10.20600 -10.19895 -10.19681 -10.17750  -1.04283
 Alpha  occ. eigenvalues --   -1.03658  -0.81148  -0.77967  -0.74758  -0.66586
 Alpha  occ. eigenvalues --   -0.62104  -0.58493  -0.53832  -0.49953  -0.48977
 Alpha  occ. eigenvalues --   -0.46229  -0.44894  -0.43347  -0.42191  -0.42058
 Alpha  occ. eigenvalues --   -0.38275  -0.38265  -0.37220  -0.36209  -0.34696
 Alpha  occ. eigenvalues --   -0.33236  -0.28499  -0.24934  -0.24323
 Alpha virt. eigenvalues --   -0.05417   0.06571   0.08075   0.09966   0.11305
 Alpha virt. eigenvalues --    0.12542   0.13187   0.15373   0.16113   0.16781
 Alpha virt. eigenvalues --    0.16782   0.17927   0.19179   0.20665   0.23430

 Mulliken charges:
               1
     1  C   -0.381978
     2  C   -0.290901
     3  C    0.282126
     4  O   -0.317784
     5  C    0.217153
     6  C   -0.170677
     7  C   -0.107949
     8  O   -0.268751
     9  C   -0.171974
    10  H    0.133107
    11  H    0.133201
    12  H    0.109538
    13  H    0.124210
    14  H    0.124268
    15  H    0.133931
    16  H    0.116304
    17  H    0.116256
    18  H    0.109982
    19  H    0.109938
 Sum of Mulliken charges =   0.00000

 Dipole moment (field-independent basis, Debye):
    X=              0.3131    Y=             -1.0642    Z=              0.0005  Tot=              1.1093
 Quadrupole moment (field-independent basis, Debye-Ang):
   XX=            -55.0193   YY=            -55.6868   ZZ=            -52.1838
   XY=              9.2803   XZ=              0.0038   YZ=             -0.0012

  Exact polarizability: 106.669   9.348  79.475   0.001   0.001  54.963
 Approx polarizability: 139.730  11.559 127.541  -0.001   0.004  85.389

                      1                      2                      3
                      A                      A                      A
 Frequencies --     56.3851                70.4997               103.0533
 Red. masses --      3.7338                 1.7154                 2.7517
 Frc consts  --      0.0070                 0.0050                 0.0172
 IR Inten    --      4.5002                 0.9723                 6.1887

                      4                      5                      6
                      A                      A                      A
 Frequencies --    142.1588               167.8927               203.7475
 Red. masses --      3.6747                 1.5429                 1.8707
 Frc consts  --      0.0438                 0.0256                 0.0458
 IR Inten    --      1.4959                 0.3674                 0.0955

                      7                      8                      9
                      A                      A                      A
 Frequencies --    280.3911               356.4899               409.1039
 Red. masses --      3.9073                 4.7444                 2.3312
 Frc consts  --      0.1810                 0.3552                 0.2299
 IR Inten    --     11.0632                 0.3639                 0.0427

                     10                     11                     12
                      A                      A                      A
 Frequencies --    467.0896               573.0212               696.8485
 Red. masses --      6.1052                 1.9030                 3.6331
 Frc consts  --      0.7848                 0.3681                 1.0394
 IR Inten    --      4.6319                 1.6534                10.4902

                     13                     14                     15
                      A                      A                      A
 Frequencies --    776.6007               797.9386               859.1774
 Red. masses --      7.3653                 1.3441                 5.2513
 Frc consts  --      2.6172                 0.5042                 2.2839
 IR Inten    --      9.3926                12.8081                31.3233

                     16                     17                     18
                      A                      A                      A
 Frequencies --    868.2757               919.2906               961.5167
 Red. masses --      1.2772                 3.0177                 2.5468
 Frc consts  --      0.5673                 1.5026                 1.3872
 IR Inten    --      0.3822                15.5662                 9.6890

                     19                     20                     21
                      A                      A                      A
 Frequencies --    985.3539              1028.5149              1034.6060
 Red. masses --      2.2030                 1.5227                 1.9560
 Frc consts  --      1.2602                 0.9491                 1.2336
 IR Inten    --      7.7076                11.2020                26.2823

                     22                     23                     24
                      A                      A                      A
 Frequencies --   1059.0624              1089.7006              1090.6905
 Red. masses --      1.6925                 3.1176                 1.8068
 Frc consts  --      1.1185                 2.1812                 1.2664
 IR Inten    --      0.2861                18.7698                 0.0017

                     25                     26                     27
                      A                      A                      A
 Frequencies --   1116.2240              1175.9750              1224.7073
 Red. masses --      4.5296                 1.0877                 3.1998
 Frc consts  --      3.3252                 0.8862                 2.8277
 IR Inten    --     26.9110                 1.6325               173.6757

                     28                     29                     30
                      A                      A                      A
 Frequencies --   1227.4946              1280.2322              1280.7291
 Red. masses --      1.0639                 1.7543                 1.1837
 Frc consts  --      0.9445                 1.6941                 1.1440
 IR Inten    --      0.0702                 0.7951                 0.4020

                     31                     32                     33
                      A                      A                      A
 Frequencies --   1360.1291              1381.2952              1395.7586
 Red. masses --      1.6169                 1.8656                 1.5458
 Frc consts  --      1.7624                 2.0973                 1.7743
 IR Inten    --     10.1344                25.3998                 5.4701

                     34                     35                     36
                      A                      A                      A
 Frequencies --   1412.4972              1450.2054              1489.9786
 Red. masses --      1.2281                 1.0942                 1.0382
 Frc consts  --      1.4436                 1.3559                 1.3580
 IR Inten    --      3.3060                 7.8440                 5.2544

                     37                     38                     39
                      A                      A                      A
 Frequencies --   1496.4965              1509.6318              1526.9193
 Red. masses --      1.0512                 1.0821                 1.0862
 Frc consts  --      1.3870                 1.4530                 1.4921
 IR Inten    --      8.3683                 1.5748                 2.7804

                     40                     41                     42
                      A                      A                      A
 Frequencies --   1681.2885              1774.3753              2969.5302
 Red. masses --      7.8065                11.1931                 1.0547
 Frc consts  --     13.0014                20.7630                 5.4798
 IR Inten    --    100.2059               108.0659               126.4990

                     43                     44                     45
                      A                      A                      A
 Frequencies --   2977.3558              2986.3042              2991.4445
 Red. masses --      1.0569                 1.1040                 1.1070
 Frc consts  --      5.5200                 5.8008                 5.8365
 IR Inten    --      7.0412                18.3008                58.1780

                     46                     47                     48
                      A                      A                      A
 Frequencies --   3010.2102              3035.9441              3052.1760
 Red. masses --      1.0606                 1.0981                 1.0352
 Frc consts  --      5.6622                 5.9632                 5.6821
 IR Inten    --     20.9607                12.6040                22.0267

                     49                     50                     51
                      A                      A                      A
 Frequencies --   3123.7561              3127.9934              3232.5566
 Red. masses --      1.1021                 1.1016                 1.0950
 Frc consts  --      6.3361                 6.3505                 6.7416
 IR Inten    --     20.4344                18.6242                 0.1726

 - Thermochemistry -
 -------------------
 Temperature   298.150 Kelvin.  Pressure   1.00000 Atm.
 Atom     1 has atomic number  6 and mass  12.00000

 Molecular mass:   126.06808 amu.
 Principal axes and moments of inertia in atomic units:
                           1         2         3
     Eigenvalues --   441.470341944.472302341.33128
           X            0.99951   0.03117   0.00001
           Y           -0.03117   0.99951  -0.00001
           Z           -0.00001   0.00001   1.00000
 This molecule is an asymmetric top.
 Rotational symmetry number  1.
 Warning -- assumption of classical behavior for rotation
           may cause significant error
 Rotational temperatures (Kelvin)      0.19619     0.04454     0.03699
 Rotational constants (GHZ):           4.08802     0.92814     0.77082
 Zero-point vibrational energy     414438.0 (Joules/Mol)
                                   99.05305 (Kcal/Mol)
 Warning -- explicit consideration of  11 degrees of freedom as
           vibrations may cause significant error
 Vibrational temperatures:     81.13   101.43   148.27   204.53   241.56
          (Kelvin)            293.15   403.42   512.91   588.61   672.04
                              824.45  1002.61  1117.35  1148.05  1236.16
                             1249.25  1322.65  1383.41  1417.70  1479.80
                             1488.57  1523.75  1567.83  1569.26  1606.00
                             1691.96  1762.08  1766.09  1841.97  1842.68
                             1956.92  1987.37  2008.18  2032.27  2086.52
                             2143.74  2153.12  2172.02  2196.89  2419.00
                             2552.93  4272.49  4283.75  4296.62  4304.02
                             4331.02  4368.04  4391.39  4494.38  4500.48
                             4650.92

 Zero-point correction=                           0.157851 (Hartree/Particle)
 Thermal correction to Energy=                    0.167214
 Thermal correction to Enthalpy=                  0.168158
 Thermal correction to Gibbs Free Energy=         0.122572
 Sum of electronic and zero-point Energies=           -423.051753
 Sum of electronic and thermal Energies=              -423.042391
 Sum of electronic and thermal Enthalpies=            -423.041446
 Sum of electronic and thermal Free Energies=         -423.087032

                     E (Thermal)             CV                S
                      KCal/Mol        Cal/Mol-Kelvin    Cal/Mol-Kelvin
 Total                  104.928             32.842             95.944
 Electronic               0.000              0.000              0.000
 Translational            0.889              2.981             40.409
 Rotational               0.889              2.981             29.087
 Vibrational            103.151             26.880             26.448
 Vibration     1          0.596              1.975              4.580
 Vibration     2          0.598              1.968              4.139
 Vibration     3          0.605              1.947              3.396
 Vibration     4          0.616              1.911              2.775
 Vibration     5          0.625              1.882              2.459
 Vibration     6          0.639              1.835              2.099
 Vibration     7          0.680              1.710              1.531
 Vibration     8          0.732              1.562              1.137
 Vibration     9          0.773              1.450              0.930
 Vibration    10          0.824              1.323              0.746
 Vibration    11          0.929              1.090              0.498

 Normal termination of Gaussian 09 at Tue Jan 28 08:58:11 2020.
