 Gaussian 09, Revision D.01,
 Gaussian 09:  ES64L-G09RevD.01 24-Apr-2013

 -----------------------------
 # b3lyp 6-31G(2df,p) opt Freq
 -----------------------------

 -----
 titel
 -----
 Symbolic Z-matrix:
 Charge =  0 Multiplicity = 1

 SCF Done:  E(RB3LYP) =  -423.182401394     A.U. after   13 cycles
 Optimization completed.
    -- Stationary point found.
 Normal termination of Gaussian 09 at Mon Jan 27 19:03:31 2020.

 ----------------------------------------------------------------------
 #N Geom=AllCheck Guess=TCheck SCRF=Check GenChk RB3LYP/6-31G(2df,p) Fr
 eq
 ----------------------------------------------------------------------

 Structure from the checkpoint file:  "/scratch/puck/g09_587c51e5-a90c-4bb1-b6f7-ccfb1d8afcf1/Gau-183530.chk"
 -----
 titel
 -----
 Charge =  0 Multiplicity = 1

                         Standard orientation:
 ---------------------------------------------------------------------
 Center     Atomic      Atomic             Coordinates (Angstroms)
 Number     Number       Type             X           Y           Z
 ---------------------------------------------------------------------
      1          8           0       -2.459897   -0.267067    0.204011
      2          6           0       -1.100668   -0.058813   -0.036685
      3          6           0       -0.648974    1.185358   -0.805540
      4          6           0        0.562266    1.724272   -0.005518
      5          6           0        1.113484    0.512507    0.785848
      6          6           0        1.938468   -0.439137   -0.099110
      7          8           0        0.981941   -1.187460   -0.861764
      8          6           0       -0.192405   -1.272784   -0.091655
      9          6           0       -0.131424   -0.343939    1.090250
     10          1           0       -2.857580   -0.603960   -0.606558
     11          1           0       -0.370764    0.935598   -1.834603
     12          1           0       -1.471620    1.904126   -0.840311
     13          1           0        1.323350    2.191033   -0.639142
     14          1           0        0.219507    2.482739    0.705919
     15          1           0        1.667257    0.812250    1.678224
     16          1           0        2.599012    0.075677   -0.803468
     17          1           0        2.543605   -1.120669    0.517616
     18          1           0       -0.631190   -2.264151   -0.030176
     19          1           0       -0.442406   -0.621217    2.088972
 ---------------------------------------------------------------------

 SCF Done:  E(RB3LYP) =  -423.182401394     A.U. after    1 cycles

 The electronic state is 1-A.
 Alpha  occ. eigenvalues --  -19.14368 -19.13816 -10.23198 -10.22512 -10.22432
 Alpha  occ. eigenvalues --  -10.19243 -10.18300 -10.18123 -10.17700  -1.04275
 Alpha  occ. eigenvalues --   -1.02416  -0.85748  -0.77544  -0.72853  -0.65270
 Alpha  occ. eigenvalues --   -0.58624  -0.57690  -0.55302  -0.53565  -0.47490
 Alpha  occ. eigenvalues --   -0.46587  -0.44145  -0.43318  -0.41434  -0.41065
 Alpha  occ. eigenvalues --   -0.37313  -0.35888  -0.34963  -0.33850  -0.32384
 Alpha  occ. eigenvalues --   -0.30316  -0.28561  -0.26415  -0.22341
 Alpha virt. eigenvalues --    0.07632   0.08723   0.10754   0.11661   0.13481
 Alpha virt. eigenvalues --    0.14384   0.15399   0.15648   0.15916   0.17715
 Alpha virt. eigenvalues --    0.18421   0.19175   0.20381   0.21051   0.23047

 Mulliken charges:
               1
     1  O   -0.478127
     2  C    0.363169
     3  C   -0.292046
     4  C   -0.202593
     5  C   -0.063007
     6  C   -0.075356
     7  O   -0.260401
     8  C    0.018021
     9  C   -0.162176
    10  H    0.282921
    11  H    0.108574
    12  H    0.103266
    13  H    0.093588
    14  H    0.102213
    15  H    0.075145
    16  H    0.105104
    17  H    0.091642
    18  H    0.094224
    19  H    0.095841
 Sum of Mulliken charges =   0.00000

 Dipole moment (field-independent basis, Debye):
    X=              0.3118    Y=              0.4784    Z=              0.0799  Tot=              0.5766
 Quadrupole moment (field-independent basis, Debye-Ang):
   XX=            -51.6989   YY=            -52.8513   ZZ=            -52.9744
   XY=              3.1288   XZ=              5.2348   YZ=             -1.0961

  Exact polarizability:  81.116   1.534  72.465   2.642  -1.413  65.795
 Approx polarizability: 112.979   1.517 103.165   1.965   1.525 104.204

                      1                      2                      3
                      A                      A                      A
 Frequencies --    148.5339               213.6381               266.1386
 Red. masses --      2.2023                 3.0467                 1.8302
 Frc consts  --      0.0286                 0.0819                 0.0764
 IR Inten    --      0.1199                 1.3625                62.9954

                      4                      5                      6
                      A                      A                      A
 Frequencies --    318.4512               359.4967               389.5273
 Red. masses --      1.7842                 2.9437                 2.4144
 Frc consts  --      0.1066                 0.2241                 0.2158
 IR Inten    --     25.7313                21.7120                 6.4138

                      7                      8                      9
                      A                      A                      A
 Frequencies --    491.8739               542.9848               572.6988
 Red. masses --      3.5931                 2.8005                 3.7776
 Frc consts  --      0.5122                 0.4865                 0.7300
 IR Inten    --      3.6943                 0.4106                 1.7614

                     10                     11                     12
                      A                      A                      A
 Frequencies --    720.0218               753.5350               780.0034
 Red. masses --      5.9972                 4.8204                 2.1515
 Frc consts  --      1.8319                 1.6127                 0.7712
 IR Inten    --      5.6487                 2.1481                 3.2065

                     13                     14                     15
                      A                      A                      A
 Frequencies --    801.2879               847.5735               882.1229
 Red. masses --      2.4865                 2.0380                 1.9313
 Frc consts  --      0.9406                 0.8626                 0.8854
 IR Inten    --      1.7573                 2.6472                10.9759

                     16                     17                     18
                      A                      A                      A
 Frequencies --    903.6563               947.5967               949.1229
 Red. masses --      2.2457                 2.7662                 1.8562
 Frc consts  --      1.0805                 1.4635                 0.9852
 IR Inten    --     11.2084                 9.4850                 1.8894

                     19                     20                     21
                      A                      A                      A
 Frequencies --    971.8393               992.4558              1017.9025
 Red. masses --      1.7939                 2.6632                 2.8578
 Frc consts  --      0.9982                 1.5455                 1.7446
 IR Inten    --      3.1335                 6.8595                 4.8598

                     22                     23                     24
                      A                      A                      A
 Frequencies --   1038.2261              1063.2421              1092.7932
 Red. masses --      1.7484                 1.6525                 1.5412
 Frc consts  --      1.1104                 1.1007                 1.0844
 IR Inten    --      1.9146                 9.0483                25.8997

                     25                     26                     27
                      A                      A                      A
 Frequencies --   1111.8052              1163.2356              1181.6856
 Red. masses --      4.2166                 1.7769                 1.4525
 Frc consts  --      3.0709                 1.4166                 1.1950
 IR Inten    --    133.0831                 1.3188                 7.8420

                     28                     29                     30
                      A                      A                      A
 Frequencies --   1212.5608              1228.5324              1263.2269
 Red. masses --      1.3157                 1.3518                 1.9411
 Frc consts  --      1.1397                 1.2020                 1.8250
 IR Inten    --      4.1385                 1.6760                55.3856

                     31                     32                     33
                      A                      A                      A
 Frequencies --   1271.6600              1282.5118              1292.2016
 Red. masses --      1.6140                 1.6333                 1.3848
 Frc consts  --      1.5378                 1.5829                 1.3623
 IR Inten    --      1.5328                 4.8413                19.0418

                     34                     35                     36
                      A                      A                      A
 Frequencies --   1316.1184              1332.2981              1351.4741
 Red. masses --      1.4767                 1.7523                 1.3834
 Frc consts  --      1.5070                 1.8326                 1.4888
 IR Inten    --     29.3137                 1.2934                 4.8248

                     37                     38                     39
                      A                      A                      A
 Frequencies --   1381.9101              1431.0134              1482.6833
 Red. masses --      1.4238                 2.4271                 1.0907
 Frc consts  --      1.6019                 2.9284                 1.4127
 IR Inten    --      2.5600                 6.1920                 0.4301

                     40                     41                     42
                      A                      A                      A
 Frequencies --   1499.9549              1515.6547              2989.4546
 Red. masses --      1.1123                 1.1008                 1.0692
 Frc consts  --      1.4745                 1.4900                 5.6298
 IR Inten    --      3.0251                 0.3135                76.4619

                     43                     44                     45
                      A                      A                      A
 Frequencies --   3042.1159              3051.1026              3080.1485
 Red. masses --      1.0593                 1.0633                 1.1000
 Frc consts  --      5.7757                 5.8319                 6.1486
 IR Inten    --     28.5885                31.0799                 0.3867

                     46                     47                     48
                      A                      A                      A
 Frequencies --   3085.5611              3090.3010              3105.0116
 Red. masses --      1.0963                 1.0882                 1.1044
 Frc consts  --      6.1494                 6.1231                 6.2731
 IR Inten    --     48.9755                33.9031                32.0964

                     49                     50                     51
                      A                      A                      A
 Frequencies --   3155.4399              3198.7765              3793.3869
 Red. masses --      1.0905                 1.0938                 1.0661
 Frc consts  --      6.3972                 6.5942                 9.0387
 IR Inten    --     21.5267                 7.4149                21.1341

 - Thermochemistry -
 -------------------
 Temperature   298.150 Kelvin.  Pressure   1.00000 Atm.
 Atom     1 has atomic number  8 and mass  15.99491

 Molecular mass:   126.06808 amu.
 Principal axes and moments of inertia in atomic units:
                           1         2         3
     Eigenvalues --   648.357201003.400081254.93177
           X            0.99938   0.02667   0.02319
           Y           -0.02566   0.99876  -0.04274
           Z           -0.02430   0.04212   0.99882
 This molecule is an asymmetric top.
 Rotational symmetry number  1.
 Warning -- assumption of classical behavior for rotation
           may cause significant error
 Rotational temperatures (Kelvin)      0.13359     0.08632     0.06902
 Rotational constants (GHZ):           2.78356     1.79863     1.43812
 Zero-point vibrational energy     424522.1 (Joules/Mol)
                                  101.46321 (Kcal/Mol)
 Warning -- explicit consideration of   9 degrees of freedom as
           vibrations may cause significant error
 Vibrational temperatures:    213.71   307.38   382.91   458.18   517.23
          (Kelvin)            560.44   707.70   781.23   823.98  1035.95
                             1084.17  1122.25  1152.87  1219.47  1269.18
                             1300.16  1363.38  1365.57  1398.26  1427.92
                             1464.53  1493.77  1529.77  1572.28  1599.64
                             1673.63  1700.18  1744.60  1767.58  1817.50
                             1829.63  1845.25  1859.19  1893.60  1916.88
                             1944.47  1988.26  2058.91  2133.25  2158.10
                             2180.69  4301.15  4376.92  4389.85  4431.64
                             4439.43  4446.25  4467.41  4539.97  4602.32
                             5457.83

 Zero-point correction=                           0.161692 (Hartree/Particle)
 Thermal correction to Energy=                    0.168869
 Thermal correction to Enthalpy=                  0.169813
 Thermal correction to Gibbs Free Energy=         0.130494
 Sum of electronic and zero-point Energies=           -423.020709
 Sum of electronic and thermal Energies=              -423.013533
 Sum of electronic and thermal Enthalpies=            -423.012588
 Sum of electronic and thermal Free Energies=         -423.051907

                     E (Thermal)             CV                S
                      KCal/Mol        Cal/Mol-Kelvin    Cal/Mol-Kelvin
 Total                  105.967             29.607             82.753
 Electronic               0.000              0.000              0.000
 Translational            0.889              2.981             40.409
 Rotational               0.889              2.981             28.192
 Vibrational            104.189             23.645             14.153
 Vibration     1          0.618              1.904              2.691
 Vibration     2          0.644              1.820              2.012
 Vibration     3          0.672              1.735              1.621
 Vibration     4          0.705              1.638              1.318
 Vibration     5          0.734              1.556              1.124
 Vibration     6          0.757              1.493              1.002
 Vibration     7          0.848              1.268              0.679
 Vibration     8          0.898              1.155              0.559
 Vibration     9          0.929              1.090              0.499

 Optimization completed.
    -- Stationary point found.
 Normal termination of Gaussian 09 at Mon Jan 27 19:46:06 2020.
