 Gaussian 09, Revision D.01,
 Gaussian 09:  ES64L-G09RevD.01 24-Apr-2013

 -----------------------------
 # b3lyp 6-31G(2df,p) opt Freq
 -----------------------------

 -----
 titel
 -----
 Symbolic Z-matrix:
 Charge =  0 Multiplicity = 1

 SCF Done:  E(RB3LYP) =  -423.194664832     A.U. after   14 cycles
 SCF Done:  E(RB3LYP) =  -423.194662236     A.U. after    8 cycles
 SCF Done:  E(RB3LYP) =  -423.194664773     A.U. after    9 cycles
 SCF Done:  E(RB3LYP) =  -423.194664727     A.U. after    7 cycles
 SCF Done:  E(RB3LYP) =  -423.194664890     A.U. after    7 cycles
 Optimization completed.
    -- Stationary point found.
 Normal termination of Gaussian 09 at Mon Jan 27 17:04:02 2020.

 ----------------------------------------------------------------------
 #N Geom=AllCheck Guess=TCheck SCRF=Check GenChk RB3LYP/6-31G(2df,p) Fr
 eq
 ----------------------------------------------------------------------

 Structure from the checkpoint file:  "/scratch/puck/g09_2a02d49f-4f7a-459a-90aa-717521831a7b/Gau-85072.chk"
 -----
 titel
 -----
 Charge =  0 Multiplicity = 1

                         Standard orientation:
 ---------------------------------------------------------------------
 Center     Atomic      Atomic             Coordinates (Angstroms)
 Number     Number       Type             X           Y           Z
 ---------------------------------------------------------------------
      1          6           0        0.288816   -0.770483    1.623785
      2          6           0        0.418806   -0.003657    0.298991
      3          6           0        0.935146   -0.904250   -0.880638
      4          6           0        2.346564   -0.287081   -0.688941
      5          6           0        1.725613    0.833221    0.188753
      6          6           0       -0.853120    0.749827   -0.003849
      7          8           0       -0.949600    1.955570   -0.060784
      8          6           0       -2.132254   -0.054780   -0.304472
      9          8           0       -2.194690   -1.255330   -0.345869
     10          1           0       -0.524239   -1.498781    1.583305
     11          1           0        1.218558   -1.309384    1.832189
     12          1           0        0.108609   -0.084164    2.458358
     13          1           0        0.822294   -1.980707   -0.739718
     14          1           0        0.488592   -0.634457   -1.841667
     15          1           0        3.013990   -0.943114   -0.124728
     16          1           0        2.866729    0.031026   -1.594644
     17          1           0        2.226784    1.067068    1.131051
     18          1           0        1.558162    1.764768   -0.355382
     19          1           0       -3.002584    0.609043   -0.497305
 ---------------------------------------------------------------------

 SCF Done:  E(RB3LYP) =  -423.194664890     A.U. after    1 cycles

 The electronic state is 1-A.
 Alpha  occ. eigenvalues --  -19.17110 -19.15787 -10.28826 -10.28052 -10.20879
 Alpha  occ. eigenvalues --  -10.19222 -10.18824 -10.18777 -10.18385  -1.07731
 Alpha  occ. eigenvalues --   -1.05998  -0.85941  -0.74482  -0.69061  -0.66621
 Alpha  occ. eigenvalues --   -0.64230  -0.57629  -0.52296  -0.49640  -0.47865
 Alpha  occ. eigenvalues --   -0.47602  -0.45628  -0.44059  -0.42831  -0.40439
 Alpha  occ. eigenvalues --   -0.39515  -0.38884  -0.37660  -0.34646  -0.33335
 Alpha  occ. eigenvalues --   -0.31927  -0.31474  -0.30254  -0.24519
 Alpha virt. eigenvalues --   -0.09273   0.03058   0.08009   0.09738   0.11688
 Alpha virt. eigenvalues --    0.12545   0.13952   0.15240   0.15503   0.16257
 Alpha virt. eigenvalues --    0.17233   0.19256   0.19837   0.21102   0.22072

 Mulliken charges:
               1
     1  C   -0.473056
     2  C    0.248409
     3  C   -0.258065
     4  C   -0.213878
     5  C   -0.265816
     6  C    0.224421
     7  O   -0.287243
     8  C    0.092694
     9  O   -0.224691
    10  H    0.145339
    11  H    0.124612
    12  H    0.124385
    13  H    0.114892
    14  H    0.105682
    15  H    0.107239
    16  H    0.104779
    17  H    0.100757
    18  H    0.119905
    19  H    0.109636
 Sum of Mulliken charges =   0.00000

 Dipole moment (field-independent basis, Debye):
    X=              1.1273    Y=             -0.5314    Z=              0.2800  Tot=              1.2773
 Quadrupole moment (field-independent basis, Debye-Ang):
   XX=            -52.8928   YY=            -60.7070   ZZ=            -51.1305
   XY=             -2.3168   XZ=             -0.2633   YZ=             -0.9640

  Exact polarizability:  84.543  -1.439  78.301   0.687  -0.242  65.324
 Approx polarizability: 108.579  -1.768 136.661   1.700   0.307  94.882

                      1                      2                      3
                      A                      A                      A
 Frequencies --     64.0387               108.3431               113.4881
 Red. masses --      5.1944                 2.2565                 3.2183
 Frc consts  --      0.0126                 0.0156                 0.0244
 IR Inten    --      0.0478                 1.5697                13.9100

                      4                      5                      6
                      A                      A                      A
 Frequencies --    156.2309               210.8720               252.1389
 Red. masses --      4.1796                 2.6087                 1.4437
 Frc consts  --      0.0601                 0.0683                 0.0541
 IR Inten    --      1.6649                 1.7356                 2.9559

                      7                      8                      9
                      A                      A                      A
 Frequencies --    274.1569               318.3026               356.1933
 Red. masses --      1.8859                 2.6854                 2.3797
 Frc consts  --      0.0835                 0.1603                 0.1779
 IR Inten    --      7.4678                 3.2591                 4.4008

                     10                     11                     12
                      A                      A                      A
 Frequencies --    468.8709               551.6337               607.8902
 Red. masses --      5.0748                 4.6241                 3.1131
 Frc consts  --      0.6573                 0.8290                 0.6778
 IR Inten    --      1.1921                26.7074                 0.6055

                     13                     14                     15
                      A                      A                      A
 Frequencies --    647.2861               705.5143               797.1209
 Red. masses --      6.1166                 1.4247                 1.2381
 Frc consts  --      1.5099                 0.4178                 0.4635
 IR Inten    --     33.0369                 2.8340                 0.9575

                     16                     17                     18
                      A                      A                      A
 Frequencies --    849.5376               875.9803               930.3415
 Red. masses --      2.3107                 2.2717                 2.1206
 Frc consts  --      0.9825                 1.0270                 1.0814
 IR Inten    --      1.2799                11.4074                 1.1894

                     19                     20                     21
                      A                      A                      A
 Frequencies --    938.2647               947.5890               992.7043
 Red. masses --      1.8997                 2.5110                 1.8740
 Frc consts  --      0.9853                 1.3284                 1.0881
 IR Inten    --      2.4846                 1.0990                 0.2688

                     22                     23                     24
                      A                      A                      A
 Frequencies --   1010.3275              1054.8421              1120.2083
 Red. masses --      1.9842                 1.3098                 3.0068
 Frc consts  --      1.1933                 0.8587                 2.2231
 IR Inten    --      0.1511                 0.1670                12.2038

                     25                     26                     27
                      A                      A                      A
 Frequencies --   1162.0426              1186.9029              1215.1051
 Red. masses --      2.0768                 2.2820                 1.3333
 Frc consts  --      1.6523                 1.8941                 1.1598
 IR Inten    --      1.9904                 0.2562                 0.7028

                     28                     29                     30
                      A                      A                      A
 Frequencies --   1241.9993              1259.9123              1274.6480
 Red. masses --      1.7222                 1.2787                 1.5114
 Frc consts  --      1.5652                 1.1959                 1.4468
 IR Inten    --      7.6019                 0.5690                 1.1645

                     31                     32                     33
                      A                      A                      A
 Frequencies --   1278.9279              1320.5081              1366.5311
 Red. masses --      1.6385                 2.5271                 1.1990
 Frc consts  --      1.5790                 2.5963                 1.3192
 IR Inten    --      0.8638                 2.4025                 6.9885

                     34                     35                     36
                      A                      A                      A
 Frequencies --   1404.6348              1476.3392              1484.2986
 Red. masses --      1.2083                 1.0818                 1.0779
 Frc consts  --      1.4046                 1.3892                 1.3991
 IR Inten    --      3.8946                 3.7402                 2.2805

                     37                     38                     39
                      A                      A                      A
 Frequencies --   1495.3452              1506.1045              1506.5843
 Red. masses --      1.0531                 1.0579                 1.1230
 Frc consts  --      1.3874                 1.4138                 1.5018
 IR Inten    --      2.0749                 4.9841                 1.9552

                     40                     41                     42
                      A                      A                      A
 Frequencies --   1787.6713              1821.7383              2913.8560
 Red. masses --     11.8961                11.0407                 1.0874
 Frc consts  --     22.3991                21.5883                 5.4397
 IR Inten    --     96.6522                93.3672               112.5373

                     43                     44                     45
                      A                      A                      A
 Frequencies --   3035.3909              3061.2937              3065.6873
 Red. masses --      1.0361                 1.0596                 1.0588
 Frc consts  --      5.6244                 5.8504                 5.8628
 IR Inten    --     19.4663                31.6704                30.4100

                     46                     47                     48
                      A                      A                      A
 Frequencies --   3072.0839              3099.9511              3107.3156
 Red. masses --      1.0619                 1.1014                 1.1066
 Frc consts  --      5.9048                 6.2357                 6.2952
 IR Inten    --     24.4312                18.6775                 5.4078

                     49                     50                     51
                      A                      A                      A
 Frequencies --   3121.7633              3130.5296              3132.2713
 Red. masses --      1.1066                 1.1011                 1.1058
 Frc consts  --      6.3537                 6.3579                 6.3924
 IR Inten    --      6.8654                16.5834                35.1378

 - Thermochemistry -
 -------------------
 Temperature   298.150 Kelvin.  Pressure   1.00000 Atm.
 Atom     1 has atomic number  6 and mass  12.00000

 Molecular mass:   126.06808 amu.
 Principal axes and moments of inertia in atomic units:
                           1         2         3
     Eigenvalues --   730.768141348.524801569.74662
           X            0.99989  -0.01407  -0.00472
           Y            0.01391   0.99937  -0.03252
           Z            0.00517   0.03245   0.99946
 This molecule is an asymmetric top.
 Rotational symmetry number  1.
 Warning -- assumption of classical behavior for rotation
           may cause significant error
 Rotational temperatures (Kelvin)      0.11852     0.06423     0.05518
 Rotational constants (GHZ):           2.46965     1.33831     1.14970
 Zero-point vibrational energy     412001.7 (Joules/Mol)
                                   98.47078 (Kcal/Mol)
 Warning -- explicit consideration of  12 degrees of freedom as
           vibrations may cause significant error
 Vibrational temperatures:     92.14   155.88   163.28   224.78   303.40
          (Kelvin)            362.77   394.45   457.97   512.48   674.60
                              793.68   874.62   931.30  1015.08  1146.88
                             1222.29  1260.34  1338.55  1349.95  1363.37
                             1428.28  1453.63  1517.68  1611.73  1671.92
                             1707.69  1748.26  1786.96  1812.73  1833.93
                             1840.09  1899.91  1966.13  2020.95  2124.12
                             2135.57  2151.47  2166.95  2167.64  2572.06
                             2621.07  4192.38  4367.25  4404.51  4410.83
                             4420.04  4460.13  4470.73  4491.52  4504.13
                             4506.63

 Zero-point correction=                           0.156923 (Hartree/Particle)
 Thermal correction to Energy=                    0.166322
 Thermal correction to Enthalpy=                  0.167267
 Thermal correction to Gibbs Free Energy=         0.122396
 Sum of electronic and zero-point Energies=           -423.037742
 Sum of electronic and thermal Energies=              -423.028343
 Sum of electronic and thermal Enthalpies=            -423.027398
 Sum of electronic and thermal Free Energies=         -423.072269

                     E (Thermal)             CV                S
                      KCal/Mol        Cal/Mol-Kelvin    Cal/Mol-Kelvin
 Total                  104.369             33.986             94.437
 Electronic               0.000              0.000              0.000
 Translational            0.889              2.981             40.409
 Rotational               0.889              2.981             28.827
 Vibrational            102.591             28.024             25.202
 Vibration     1          0.597              1.971              4.329
 Vibration     2          0.606              1.943              3.298
 Vibration     3          0.607              1.938              3.208
 Vibration     4          0.620              1.896              2.595
 Vibration     5          0.643              1.824              2.036
 Vibration     6          0.664              1.759              1.716
 Vibration     7          0.676              1.721              1.570
 Vibration     8          0.705              1.639              1.319
 Vibration     9          0.732              1.563              1.139
 Vibration    10          0.826              1.319              0.741
 Vibration    11          0.907              1.136              0.541
 Vibration    12          0.967              1.015              0.436

 Optimization completed.
    -- Stationary point found.
 Normal termination of Gaussian 09 at Mon Jan 27 17:49:56 2020.
