 Gaussian 09, Revision D.01,
 Gaussian 09:  ES64L-G09RevD.01 24-Apr-2013

 -----------------------------
 # b3lyp 6-31G(2df,p) opt Freq
 -----------------------------

 -----
 titel
 -----
 Symbolic Z-matrix:
 Charge =  0 Multiplicity = 1

 SCF Done:  E(RB3LYP) =  -423.160473648     A.U. after   14 cycles
 Optimization completed.
    -- Stationary point found.
 Normal termination of Gaussian 09 at Tue Jan 28 13:44:12 2020.

 ----------------------------------------------------------------------
 #N Geom=AllCheck Guess=TCheck SCRF=Check GenChk RB3LYP/6-31G(2df,p) Fr
 eq
 ----------------------------------------------------------------------

 Structure from the checkpoint file:  "/scratch/puck/g09_98dd1f28-caea-4e8a-b135-26aa80b1d9ba/Gau-145948.chk"
 -----
 titel
 -----
 Charge =  0 Multiplicity = 1

                         Standard orientation:
 ---------------------------------------------------------------------
 Center     Atomic      Atomic             Coordinates (Angstroms)
 Number     Number       Type             X           Y           Z
 ---------------------------------------------------------------------
      1          6           0        3.014783    0.371147    0.083293
      2          6           0        1.546426    0.743712   -0.143258
      3          6           0        0.584755   -0.280563    0.456776
      4          6           0        0.494591   -1.645948   -0.322273
      5          6           0       -0.991651   -1.372945   -0.577548
      6          8           0       -1.632682   -1.199561    0.669888
      7          6           0       -0.909310   -0.066964    0.146735
      8          6           0       -1.708892    1.145299   -0.103802
      9          8           0       -1.268937    2.270027   -0.114133
     10          1           0        3.680709    1.119014   -0.357173
     11          1           0        3.245346    0.307623    1.152413
     12          1           0        3.260785   -0.597480   -0.365601
     13          1           0        1.333433    1.724901    0.290983
     14          1           0        1.348876    0.842576   -1.218800
     15          1           0        0.764108   -0.391836    1.530560
     16          1           0        1.089004   -1.632114   -1.239295
     17          1           0        0.700101   -2.562358    0.235224
     18          1           0       -1.611484   -1.660619   -1.420362
     19          1           0       -2.782132    0.924133   -0.293527
 ---------------------------------------------------------------------

 SCF Done:  E(RB3LYP) =  -423.160473648     A.U. after    1 cycles

 The electronic state is 1-A.
 Alpha  occ. eigenvalues --  -19.17433 -19.14394 -10.27710 -10.26030 -10.25242
 Alpha  occ. eigenvalues --  -10.20515 -10.20119 -10.18565 -10.17833  -1.10183
 Alpha  occ. eigenvalues --   -1.04923  -0.83022  -0.75587  -0.71392  -0.66616
 Alpha  occ. eigenvalues --   -0.61583  -0.60444  -0.54166  -0.51499  -0.48100
 Alpha  occ. eigenvalues --   -0.47338  -0.45030  -0.42971  -0.42607  -0.40603
 Alpha  occ. eigenvalues --   -0.39197  -0.38614  -0.37037  -0.34221  -0.34206
 Alpha  occ. eigenvalues --   -0.33292  -0.30556  -0.27172  -0.25677
 Alpha virt. eigenvalues --   -0.03897   0.08438   0.09516   0.10468   0.11851
 Alpha virt. eigenvalues --    0.12537   0.12885   0.13834   0.14688   0.15457
 Alpha virt. eigenvalues --    0.17135   0.17958   0.18782   0.19775   0.21619

 Mulliken charges:
               1
     1  C   -0.384920
     2  C   -0.197505
     3  C   -0.065683
     4  C   -0.260595
     5  C   -0.031697
     6  O   -0.273571
     7  C    0.316107
     8  C    0.059370
     9  O   -0.261401
    10  H    0.117833
    11  H    0.118025
    12  H    0.115440
    13  H    0.128152
    14  H    0.095003
    15  H    0.087516
    16  H    0.114499
    17  H    0.117807
    18  H    0.115978
    19  H    0.089642
 Sum of Mulliken charges =   0.00000

 Dipole moment (field-independent basis, Debye):
    X=              1.0236    Y=             -2.0249    Z=             -1.1838  Tot=              2.5592
 Quadrupole moment (field-independent basis, Debye-Ang):
   XX=            -52.8707   YY=            -59.4023   ZZ=            -52.0961
   XY=              1.0032   XZ=              2.4887   YZ=              2.7689

  Exact polarizability:  85.242  -0.470  85.788   2.185   2.546  60.558
 Approx polarizability: 109.318   3.901 139.176  -0.758   4.159  97.865

                      1                      2                      3
                      A                      A                      A
 Frequencies --     96.3832               111.1020               129.1440
 Red. masses --      3.1329                 2.2789                 4.9116
 Frc consts  --      0.0171                 0.0166                 0.0483
 IR Inten    --      2.2650                 0.8279                 3.3294

                      4                      5                      6
                      A                      A                      A
 Frequencies --    190.4956               219.6921               238.2519
 Red. masses --      1.9082                 3.2709                 1.3757
 Frc consts  --      0.0408                 0.0930                 0.0460
 IR Inten    --      4.0034                 6.9521                 1.6851

                      7                      8                      9
                      A                      A                      A
 Frequencies --    316.0531               378.0467               438.0097
 Red. masses --      2.2896                 4.4668                 2.0367
 Frc consts  --      0.1347                 0.3761                 0.2302
 IR Inten    --      1.6423                 1.5509                 0.0934

                     10                     11                     12
                      A                      A                      A
 Frequencies --    479.8059               523.4498               682.4429
 Red. masses --      4.1085                 5.6541                 4.2417
 Frc consts  --      0.5573                 0.9128                 1.1639
 IR Inten    --     18.5510                 5.7956                10.3915

                     13                     14                     15
                      A                      A                      A
 Frequencies --    769.7362               802.3547               834.2887
 Red. masses --      1.7167                 1.5741                 3.8671
 Frc consts  --      0.5993                 0.5971                 1.5859
 IR Inten    --      8.7900                 5.2249                32.5765

                     16                     17                     18
                      A                      A                      A
 Frequencies --    843.1027               888.3717               951.4546
 Red. masses --      3.4404                 2.4694                 1.6760
 Frc consts  --      1.4409                 1.1482                 0.8939
 IR Inten    --     10.2337                 4.6663                 7.4895

                     19                     20                     21
                      A                      A                      A
 Frequencies --    958.5365               972.5510              1008.0170
 Red. masses --      2.4562                 2.0352                 1.5760
 Frc consts  --      1.3296                 1.1342                 0.9435
 IR Inten    --      4.7706                 7.1252                 2.4912

                     22                     23                     24
                      A                      A                      A
 Frequencies --   1040.8712              1062.4848              1104.3296
 Red. masses --      1.6201                 2.2871                 1.6752
 Frc consts  --      1.0341                 1.5212                 1.2037
 IR Inten    --      4.4727                 4.0691                 4.3782

                     25                     26                     27
                      A                      A                      A
 Frequencies --   1129.5276              1192.7068              1208.7437
 Red. masses --      1.8490                 1.6137                 2.0528
 Frc consts  --      1.3899                 1.3525                 1.7671
 IR Inten    --      1.8130                 2.0430                10.6919

                     28                     29                     30
                      A                      A                      A
 Frequencies --   1238.7627              1267.5369              1282.0764
 Red. masses --      1.3545                 1.4965                 1.3474
 Frc consts  --      1.2246                 1.4166                 1.3049
 IR Inten    --      3.7794                 4.4918                 7.9588

                     31                     32                     33
                      A                      A                      A
 Frequencies --   1303.0302              1331.9874              1363.8745
 Red. masses --      2.2565                 1.3902                 1.7451
 Frc consts  --      2.2574                 1.4532                 1.9126
 IR Inten    --      9.4127                 4.7512                10.4842

                     34                     35                     36
                      A                      A                      A
 Frequencies --   1387.8106              1412.8883              1431.4437
 Red. masses --      1.6040                 1.2344                 1.9087
 Frc consts  --      1.8201                 1.4518                 2.3043
 IR Inten    --      1.9248                 2.9506                28.0277

                     37                     38                     39
                      A                      A                      A
 Frequencies --   1469.1372              1489.1177              1498.9999
 Red. masses --      1.1416                 1.0635                 1.0402
 Frc consts  --      1.4518                 1.3894                 1.3771
 IR Inten    --      0.2253                 1.9836                 5.7519

                     40                     41                     42
                      A                      A                      A
 Frequencies --   1507.4310              1804.2452              2897.8938
 Red. masses --      1.0746                10.5437                 1.0836
 Frc consts  --      1.4386                20.2225                 5.3612
 IR Inten    --      3.1701               201.8218               100.2671

                     43                     44                     45
                      A                      A                      A
 Frequencies --   3025.0914              3031.7818              3062.5013
 Red. masses --      1.0691                 1.0363                 1.0812
 Frc consts  --      5.7640                 5.6121                 5.9744
 IR Inten    --     10.8357                24.7936                20.9428

                     46                     47                     48
                      A                      A                      A
 Frequencies --   3067.8050              3081.6376              3102.9989
 Red. masses --      1.0602                 1.0950                 1.1008
 Frc consts  --      5.8790                 6.1265                 6.2447
 IR Inten    --     23.6822                 0.2175                41.1576

                     49                     50                     51
                      A                      A                      A
 Frequencies --   3107.5574              3125.7348              3176.7056
 Red. masses --      1.1000                 1.1084                 1.0934
 Frc consts  --      6.2589                 6.3803                 6.5011
 IR Inten    --     31.5561                18.2808                17.6291

 - Thermochemistry -
 -------------------
 Temperature   298.150 Kelvin.  Pressure   1.00000 Atm.
 Atom     1 has atomic number  6 and mass  12.00000

 Molecular mass:   126.06808 amu.
 Principal axes and moments of inertia in atomic units:
                           1         2         3
     Eigenvalues --   818.169051233.603281872.95379
           X            0.99970   0.02240   0.00993
           Y           -0.02255   0.99964   0.01442
           Z           -0.00960  -0.01464   0.99985
 This molecule is an asymmetric top.
 Rotational symmetry number  1.
 Warning -- assumption of classical behavior for rotation
           may cause significant error
 Rotational temperatures (Kelvin)      0.10586     0.07021     0.04624
 Rotational constants (GHZ):           2.20583     1.46298     0.96358
 Zero-point vibrational energy     412939.0 (Joules/Mol)
                                   98.69478 (Kcal/Mol)
 Warning -- explicit consideration of  11 degrees of freedom as
           vibrations may cause significant error
 Vibrational temperatures:    138.67   159.85   185.81   274.08   316.09
          (Kelvin)            342.79   454.73   543.92   630.20   690.33
                              753.13   981.88  1107.48  1154.41  1200.35
                             1213.04  1278.17  1368.93  1379.12  1399.28
                             1450.31  1497.58  1528.68  1588.88  1625.14
                             1716.04  1739.11  1782.30  1823.70  1844.62
                             1874.77  1916.43  1962.31  1996.75  2032.83
                             2059.53  2113.76  2142.51  2156.72  2168.85
                             2595.90  4169.42  4352.43  4362.05  4406.25
                             4413.88  4433.78  4464.52  4471.08  4497.23
                             4570.57

 Zero-point correction=                           0.157280 (Hartree/Particle)
 Thermal correction to Energy=                    0.166205
 Thermal correction to Enthalpy=                  0.167149
 Thermal correction to Gibbs Free Energy=         0.123435
 Sum of electronic and zero-point Energies=           -423.003194
 Sum of electronic and thermal Energies=              -422.994269
 Sum of electronic and thermal Enthalpies=            -422.993325
 Sum of electronic and thermal Free Energies=         -423.037039

                     E (Thermal)             CV                S
                      KCal/Mol        Cal/Mol-Kelvin    Cal/Mol-Kelvin
 Total                  104.295             32.939             92.003
 Electronic               0.000              0.000              0.000
 Translational            0.889              2.981             40.409
 Rotational               0.889              2.981             29.026
 Vibrational            102.518             26.977             22.568
 Vibration     1          0.603              1.952              3.526
 Vibration     2          0.607              1.940              3.250
 Vibration     3          0.612              1.924              2.959
 Vibration     4          0.634              1.853              2.223
 Vibration     5          0.647              1.811              1.962
 Vibration     6          0.656              1.782              1.816
 Vibration     7          0.703              1.643              1.330
 Vibration     8          0.748              1.517              1.047
 Vibration     9          0.798              1.387              0.833
 Vibration    10          0.836              1.295              0.711
 Vibration    11          0.878              1.198              0.602

 Optimization completed.
    -- Stationary point found.
 Normal termination of Gaussian 09 at Tue Jan 28 14:25:11 2020.
