 Gaussian 09, Revision D.01,
 Gaussian 09:  ES64L-G09RevD.01 24-Apr-2013

 -----------------------------
 # b3lyp 6-31G(2df,p) opt Freq
 -----------------------------

 -----
 titel
 -----
 Symbolic Z-matrix:
 Charge =  0 Multiplicity = 1

 SCF Done:  E(RB3LYP) =  -423.218736275     A.U. after   14 cycles
 Optimization completed.
    -- Stationary point found.
 Normal termination of Gaussian 09 at Tue Jan 28 00:05:21 2020.

 ----------------------------------------------------------------------
 #N Geom=AllCheck Guess=TCheck SCRF=Check GenChk RB3LYP/6-31G(2df,p) Fr
 eq
 ----------------------------------------------------------------------

 Structure from the checkpoint file:  "/scratch/puck/g09_09f04333-5533-4a8f-b531-4671c2828394/Gau-82509.chk"
 -----
 titel
 -----
 Charge =  0 Multiplicity = 1

                         Standard orientation:
 ---------------------------------------------------------------------
 Center     Atomic      Atomic             Coordinates (Angstroms)
 Number     Number       Type             X           Y           Z
 ---------------------------------------------------------------------
      1          6           0        1.121195    2.050233   -0.252340
      2          6           0        1.081865    0.529583   -0.379146
      3          6           0        0.880028   -0.301704    0.909692
      4          6           0       -0.537423    0.077842    1.370952
      5          6           0       -1.254782    0.224373    0.011773
      6          8           0       -2.406696    0.510912   -0.176726
      7          6           0       -0.180542   -0.083893   -1.038608
      8          6           0        0.143694   -1.585507   -0.851076
      9          8           0        0.829636   -1.648494    0.413045
     10          1           0        1.231342    2.512734   -1.238216
     11          1           0        0.213205    2.462051    0.198204
     12          1           0        1.972431    2.368282    0.358615
     13          1           0        1.986727    0.180279   -0.887332
     14          1           0        1.662000   -0.243860    1.667091
     15          1           0       -1.001988   -0.701392    1.980168
     16          1           0       -0.582181    1.017753    1.930146
     17          1           0       -0.444380    0.208282   -2.053755
     18          1           0       -0.749136   -2.220752   -0.824373
     19          1           0        0.804244   -1.948287   -1.648584
 ---------------------------------------------------------------------

 SCF Done:  E(RB3LYP) =  -423.218736276     A.U. after    1 cycles

 The electronic state is 1-A.
 Alpha  occ. eigenvalues --  -19.14228 -19.13283 -10.26961 -10.24109 -10.23939
 Alpha  occ. eigenvalues --  -10.20361 -10.20033 -10.19009 -10.18997  -1.04873
 Alpha  occ. eigenvalues --   -1.03764  -0.84135  -0.76206  -0.74316  -0.67312
 Alpha  occ. eigenvalues --   -0.61878  -0.57532  -0.53896  -0.49875  -0.49147
 Alpha  occ. eigenvalues --   -0.47428  -0.44053  -0.41960  -0.41498  -0.40873
 Alpha  occ. eigenvalues --   -0.40005  -0.39774  -0.36815  -0.36132  -0.35416
 Alpha  occ. eigenvalues --   -0.34796  -0.30904  -0.25381  -0.23918
 Alpha virt. eigenvalues --   -0.01676   0.07790   0.10701   0.11259   0.12155
 Alpha virt. eigenvalues --    0.13548   0.14735   0.15130   0.15559   0.16461
 Alpha virt. eigenvalues --    0.16853   0.18781   0.19556   0.20107   0.20756

 Mulliken charges:
               1
     1  C   -0.436983
     2  C    0.008987
     3  C    0.090071
     4  C   -0.341742
     5  C    0.422693
     6  O   -0.329836
     7  C   -0.159401
     8  C   -0.100236
     9  O   -0.279474
    10  H    0.127252
    11  H    0.130545
    12  H    0.122688
    13  H    0.086016
    14  H    0.081956
    15  H    0.137447
    16  H    0.128725
    17  H    0.086232
    18  H    0.116292
    19  H    0.108769
 Sum of Mulliken charges =   0.00000

 Dipole moment (field-independent basis, Debye):
    X=              2.3000    Y=              0.6996    Z=             -0.2526  Tot=              2.4173
 Quadrupole moment (field-independent basis, Debye-Ang):
   XX=            -60.9321   YY=            -54.4302   ZZ=            -49.7549
   XY=              4.6012   XZ=             -1.3948   YZ=              2.3786

  Exact polarizability:  75.874   1.020  73.311   0.209   2.899  72.470
 Approx polarizability: 117.132  -3.916 104.118   3.125   2.580 107.123

                      1                      2                      3
                      A                      A                      A
 Frequencies --    110.6894               196.1371               235.3663
 Red. masses --      5.4805                 1.1264                 2.5979
 Frc consts  --      0.0396                 0.0255                 0.0848
 IR Inten    --      5.2259                 0.2591                 2.2280

                      4                      5                      6
                      A                      A                      A
 Frequencies --    251.3142               281.8565               400.9928
 Red. masses --      2.3748                 2.5058                 2.4837
 Frc consts  --      0.0884                 0.1173                 0.2353
 IR Inten    --      0.5711                 1.2978                 2.4771

                      7                      8                      9
                      A                      A                      A
 Frequencies --    449.7545               499.5318               556.1184
 Red. masses --      4.7433                 2.9420                 5.1067
 Frc consts  --      0.5653                 0.4325                 0.9305
 IR Inten    --      6.0825                 0.4273                 4.7794

                     10                     11                     12
                      A                      A                      A
 Frequencies --    628.5825               678.5274               740.6695
 Red. masses --      2.9529                 4.1894                 2.8846
 Frc consts  --      0.6874                 1.1364                 0.9324
 IR Inten    --      3.2506                 3.3318                 6.6724

                     13                     14                     15
                      A                      A                      A
 Frequencies --    773.5181               856.4309               888.3436
 Red. masses --      2.9495                 2.5153                 2.9244
 Frc consts  --      1.0398                 1.0870                 1.3597
 IR Inten    --      3.6550                10.6023                 2.9735

                     16                     17                     18
                      A                      A                      A
 Frequencies --    909.2295               945.6673               959.0152
 Red. masses --      3.3153                 2.0823                 1.8102
 Frc consts  --      1.6148                 1.0972                 0.9809
 IR Inten    --     14.1055                19.7006                 0.4443

                     19                     20                     21
                      A                      A                      A
 Frequencies --    968.8357              1000.2874              1044.1877
 Red. masses --      1.8491                 3.3871                 1.4658
 Frc consts  --      1.0226                 1.9968                 0.9416
 IR Inten    --     11.3057                11.2957                 5.7067

                     22                     23                     24
                      A                      A                      A
 Frequencies --   1047.2957              1091.8209              1119.3098
 Red. masses --      2.2324                 1.2550                 2.4747
 Frc consts  --      1.4427                 0.8815                 1.8267
 IR Inten    --     28.6505                 3.9907                23.1342

                     25                     26                     27
                      A                      A                      A
 Frequencies --   1153.3106              1155.8730              1171.2733
 Red. masses --      1.7402                 2.3134                 1.6208
 Frc consts  --      1.3638                 1.8211                 1.3101
 IR Inten    --      3.9964                38.8714                18.0666

                     28                     29                     30
                      A                      A                      A
 Frequencies --   1206.8991              1242.5275              1257.0003
 Red. masses --      1.4096                 1.6238                 1.7781
 Frc consts  --      1.2097                 1.4771                 1.6553
 IR Inten    --      3.3700                 5.6870                 4.2630

                     31                     32                     33
                      A                      A                      A
 Frequencies --   1288.5069              1314.1482              1338.5010
 Red. masses --      1.2998                 1.6269                 1.4910
 Frc consts  --      1.2714                 1.6554                 1.5739
 IR Inten    --      2.6649                 2.7114                13.2705

                     34                     35                     36
                      A                      A                      A
 Frequencies --   1359.9067              1394.9446              1419.7245
 Red. masses --      1.3347                 1.4842                 1.2351
 Frc consts  --      1.4543                 1.7016                 1.4667
 IR Inten    --      3.7882                 4.4102                 2.9499

                     37                     38                     39
                      A                      A                      A
 Frequencies --   1441.2278              1497.7466              1503.3970
 Red. masses --      1.1023                 1.0498                 1.0466
 Frc consts  --      1.3491                 1.3875                 1.3937
 IR Inten    --     12.0503                 2.1780                 4.6246

                     40                     41                     42
                      A                      A                      A
 Frequencies --   1527.8311              1859.1541              3017.3083
 Red. masses --      1.0868                12.4067                 1.0583
 Frc consts  --      1.4947                25.2660                 5.6768
 IR Inten    --      0.1076               221.0490                61.2252

                     43                     44                     45
                      A                      A                      A
 Frequencies --   3038.2774              3052.8869              3059.6980
 Red. masses --      1.0363                 1.0857                 1.1070
 Frc consts  --      5.6361                 5.9616                 6.1058
 IR Inten    --     20.3109                11.9688                33.0706

                     46                     47                     48
                      A                      A                      A
 Frequencies --   3063.0184              3102.1992              3111.3387
 Red. masses --      1.0623                 1.1013                 1.1000
 Frc consts  --      5.8719                 6.2443                 6.2740
 IR Inten    --      6.2464                15.4365                27.3219

                     49                     50                     51
                      A                      A                      A
 Frequencies --   3116.8226              3118.9010              3137.9147
 Red. masses --      1.1017                 1.0899                 1.0895
 Frc consts  --      6.3060                 6.2467                 6.3208
 IR Inten    --      5.9680                35.3273                10.8727

 - Thermochemistry -
 -------------------
 Temperature   298.150 Kelvin.  Pressure   1.00000 Atm.
 Atom     1 has atomic number  6 and mass  12.00000

 Molecular mass:   126.06808 amu.
 Principal axes and moments of inertia in atomic units:
                           1         2         3
     Eigenvalues --   853.61201 941.800261221.36864
           X            0.92840   0.37080  -0.02407
           Y           -0.37001   0.92848   0.03192
           Z            0.03418  -0.02073   0.99920
 This molecule is an asymmetric top.
 Rotational symmetry number  1.
 Warning -- assumption of classical behavior for rotation
           may cause significant error
 Rotational temperatures (Kelvin)      0.10147     0.09197     0.07092
 Rotational constants (GHZ):           2.11424     1.91627     1.47764
 Zero-point vibrational energy     422185.0 (Joules/Mol)
                                  100.90464 (Kcal/Mol)
 Warning -- explicit consideration of   9 degrees of freedom as
           vibrations may cause significant error
 Vibrational temperatures:    159.26   282.20   338.64   361.58   405.53
          (Kelvin)            576.94   647.10   718.71   800.13   904.39
                              976.25  1065.66  1112.92  1232.21  1278.13
                             1308.18  1360.60  1379.81  1393.94  1439.19
                             1502.35  1506.82  1570.88  1610.44  1659.35
                             1663.04  1685.20  1736.46  1787.72  1808.54
                             1853.87  1890.76  1925.80  1956.60  2007.01
                             2042.66  2073.60  2154.92  2163.05  2198.21
                             2674.90  4341.23  4371.40  4392.42  4402.22
                             4406.99  4463.37  4476.52  4484.41  4487.40
                             4514.75

 Zero-point correction=                           0.160802 (Hartree/Particle)
 Thermal correction to Energy=                    0.168413
 Thermal correction to Enthalpy=                  0.169357
 Thermal correction to Gibbs Free Energy=         0.128945
 Sum of electronic and zero-point Energies=           -423.057935
 Sum of electronic and thermal Energies=              -423.050324
 Sum of electronic and thermal Enthalpies=            -423.049379
 Sum of electronic and thermal Free Energies=         -423.089792

                     E (Thermal)             CV                S
                      KCal/Mol        Cal/Mol-Kelvin    Cal/Mol-Kelvin
 Total                  105.681             30.262             85.054
 Electronic               0.000              0.000              0.000
 Translational            0.889              2.981             40.409
 Rotational               0.889              2.981             28.375
 Vibrational            103.903             24.301             16.270
 Vibration     1          0.607              1.941              3.257
 Vibration     2          0.636              1.845              2.169
 Vibration     3          0.655              1.787              1.838
 Vibration     4          0.663              1.761              1.721
 Vibration     5          0.681              1.707              1.522
 Vibration     6          0.767              1.468              0.959
 Vibration     7          0.809              1.361              0.797
 Vibration     8          0.855              1.251              0.659
 Vibration     9          0.912              1.126              0.532

 Optimization completed.
    -- Stationary point found.
 Normal termination of Gaussian 09 at Tue Jan 28 00:49:48 2020.
