 Gaussian 09, Revision D.01,
 Gaussian 09:  ES64L-G09RevD.01 24-Apr-2013

 -----------------------------
 # b3lyp 6-31G(2df,p) opt Freq
 -----------------------------

 -----
 titel
 -----
 Symbolic Z-matrix:
 Charge =  0 Multiplicity = 1

 SCF Done:  E(RB3LYP) =  -423.169784513     A.U. after   14 cycles
 SCF Done:  E(RB3LYP) =  -423.169784351     A.U. after    7 cycles
 SCF Done:  E(RB3LYP) =  -423.169784334     A.U. after    7 cycles
 SCF Done:  E(RB3LYP) =  -423.169784509     A.U. after    7 cycles
 Optimization completed.
    -- Stationary point found.
 Normal termination of Gaussian 09 at Mon Jan 27 14:28:55 2020.

 ----------------------------------------------------------------------
 #N Geom=AllCheck Guess=TCheck SCRF=Check GenChk RB3LYP/6-31G(2df,p) Fr
 eq
 ----------------------------------------------------------------------

 Structure from the checkpoint file:  "/scratch/puck/g09_efb06fbe-4da2-40cd-9627-16fd27623fdf/Gau-77910.chk"
 -----
 titel
 -----
 Charge =  0 Multiplicity = 1

                         Standard orientation:
 ---------------------------------------------------------------------
 Center     Atomic      Atomic             Coordinates (Angstroms)
 Number     Number       Type             X           Y           Z
 ---------------------------------------------------------------------
      1          6           0        3.079050    0.297433   -0.229377
      2          6           0        1.620796   -0.112628   -0.023812
      3          6           0        1.461465   -0.988476    1.225860
      4          8           0        1.256870   -0.836728   -1.192031
      5          6           0        0.738976    1.171129    0.081312
      6          6           0       -0.684176    0.875673    0.097910
      7          6           0       -1.853877    0.567596    0.086670
      8          6           0       -3.256739    0.244608    0.087435
      9          8           0       -3.708567   -0.838910   -0.206412
     10          1           0        3.706729   -0.593251   -0.315636
     11          1           0        3.185120    0.877551   -1.150449
     12          1           0        3.441524    0.898296    0.609891
     13          1           0        2.050298   -1.902224    1.110909
     14          1           0        1.800770   -0.466955    2.126974
     15          1           0        0.414061   -1.271072    1.374086
     16          1           0        0.335761   -1.108788   -1.097649
     17          1           0        1.009851    1.748188    0.974164
     18          1           0        0.952809    1.806801   -0.786681
     19          1           0       -3.916317    1.084542    0.385941
 ---------------------------------------------------------------------

 SCF Done:  E(RB3LYP) =  -423.169784509     A.U. after    1 cycles

 The electronic state is 1-A.
 Alpha  occ. eigenvalues --  -19.14676 -19.13783 -10.29280 -10.25533 -10.22203
 Alpha  occ. eigenvalues --  -10.21904 -10.19870 -10.18223 -10.18148  -1.05255
 Alpha  occ. eigenvalues --   -1.02549  -0.82259  -0.78000  -0.72822  -0.70050
 Alpha  occ. eigenvalues --   -0.65408  -0.58220  -0.52409  -0.50722  -0.48947
 Alpha  occ. eigenvalues --   -0.47176  -0.44855  -0.44157  -0.42647  -0.40645
 Alpha  occ. eigenvalues --   -0.39185  -0.38810  -0.37153  -0.36493  -0.33031
 Alpha  occ. eigenvalues --   -0.29661  -0.28974  -0.27125  -0.26884
 Alpha virt. eigenvalues --   -0.06439   0.02076   0.07163   0.09056   0.11012
 Alpha virt. eigenvalues --    0.12703   0.12977   0.14370   0.14494   0.15172
 Alpha virt. eigenvalues --    0.17073   0.18542   0.19591   0.21113   0.21663

 Mulliken charges:
               1
     1  C   -0.398179
     2  C    0.345040
     3  C   -0.417937
     4  O   -0.456779
     5  C   -0.375112
     6  C    0.042661
     7  C    0.065131
     8  C    0.023986
     9  O   -0.231513
    10  H    0.127698
    11  H    0.123882
    12  H    0.112490
    13  H    0.128261
    14  H    0.113040
    15  H    0.125637
    16  H    0.287932
    17  H    0.136042
    18  H    0.146725
    19  H    0.100996
 Sum of Mulliken charges =   0.00000

 Dipole moment (field-independent basis, Debye):
    X=              1.9663    Y=              2.4040    Z=              1.5666  Tot=              3.4785
 Quadrupole moment (field-independent basis, Debye-Ang):
   XX=            -58.8989   YY=            -53.0977   ZZ=            -54.6739
   XY=             -4.1486   XZ=              0.8920   YZ=             -1.0324

  Exact polarizability: 119.844   8.335  70.499   0.661   1.555  60.116
 Approx polarizability: 170.074  27.157 112.501   2.908   7.198  90.159

                      1                      2                      3
                      A                      A                      A
 Frequencies --     34.4370                58.1622                71.5805
 Red. masses --      4.0138                 5.7887                 2.8167
 Frc consts  --      0.0028                 0.0115                 0.0085
 IR Inten    --      5.7823                 1.2932                 1.4274

                      4                      5                      6
                      A                      A                      A
 Frequencies --    172.6153               196.9860               219.2056
 Red. masses --      4.2434                 3.1039                 1.0932
 Frc consts  --      0.0745                 0.0710                 0.0310
 IR Inten    --      3.6696                 3.8923                 0.7718

                      7                      8                      9
                      A                      A                      A
 Frequencies --    261.7299               302.7788               328.7375
 Red. masses --      1.1034                 2.7516                 2.2037
 Frc consts  --      0.0445                 0.1486                 0.1403
 IR Inten    --      0.9544                 2.0059                 0.5726

                     10                     11                     12
                      A                      A                      A
 Frequencies --    370.9135               377.9377               398.8880
 Red. masses --      1.5094                 2.6472                 2.1405
 Frc consts  --      0.1223                 0.2228                 0.2007
 IR Inten    --     71.4931                34.9660                10.8949

                     13                     14                     15
                      A                      A                      A
 Frequencies --    406.7506               450.5139               520.6231
 Red. masses --      3.4272                 3.0882                 3.4390
 Frc consts  --      0.3341                 0.3693                 0.5492
 IR Inten    --      7.3697                11.5029                11.1078

                     16                     17                     18
                      A                      A                      A
 Frequencies --    645.4583               764.3741               832.0853
 Red. masses --      6.6320                 3.9111                 4.4610
 Frc consts  --      1.6279                 1.3463                 1.8198
 IR Inten    --      1.1882                 2.2691                72.3035

                     19                     20                     21
                      A                      A                      A
 Frequencies --    866.1702               918.4225               939.5996
 Red. masses --      1.9298                 2.3212                 1.5184
 Frc consts  --      0.8530                 1.1536                 0.7898
 IR Inten    --      5.5626                12.0207                 4.8636

                     22                     23                     24
                      A                      A                      A
 Frequencies --    987.5701              1017.7334              1022.5128
 Red. masses --      1.9541                 1.3386                 1.7426
 Frc consts  --      1.1229                 0.8169                 1.0735
 IR Inten    --     28.7382                 2.1987                 0.4544

                     25                     26                     27
                      A                      A                      A
 Frequencies --   1127.9134              1154.4806              1173.2460
 Red. masses --      1.6960                 3.6353                 1.5463
 Frc consts  --      1.2713                 2.8547                 1.2541
 IR Inten    --     26.2877                45.7337                40.3459

                     28                     29                     30
                      A                      A                      A
 Frequencies --   1227.3937              1284.7810              1299.7118
 Red. masses --      2.7221                 1.6115                 1.4528
 Frc consts  --      2.4161                 1.5672                 1.4460
 IR Inten    --     43.0955                13.9345                34.2920

                     31                     32                     33
                      A                      A                      A
 Frequencies --   1384.6805              1406.6808              1420.3800
 Red. masses --      1.3256                 1.4647                 1.2850
 Frc consts  --      1.4975                 1.7076                 1.5274
 IR Inten    --     27.0106                33.0097                24.7802

                     34                     35                     36
                      A                      A                      A
 Frequencies --   1422.5427              1445.2264              1478.5917
 Red. masses --      1.2251                 1.0932                 1.0528
 Frc consts  --      1.4607                 1.3453                 1.3560
 IR Inten    --      6.0723                 2.7542                 1.4338

                     37                     38                     39
                      A                      A                      A
 Frequencies --   1489.1474              1498.5008              1509.2343
 Red. masses --      1.0588                 1.0745                 1.0543
 Frc consts  --      1.3834                 1.4216                 1.4149
 IR Inten    --      2.7416                 2.0289                 4.1681

                     40                     41                     42
                      A                      A                      A
 Frequencies --   1765.6011              2319.0815              2921.4219
 Red. masses --     10.4864                11.9360                 1.0818
 Frc consts  --     19.2603                37.8218                 5.4398
 IR Inten    --    233.2364               176.7430               101.8765

                     43                     44                     45
                      A                      A                      A
 Frequencies --   3027.9165              3035.7887              3045.8034
 Red. masses --      1.0571                 1.0358                 1.0356
 Frc consts  --      5.7102                 5.6244                 5.6602
 IR Inten    --      7.8232                12.7534                14.3493

                     46                     47                     48
                      A                      A                      A
 Frequencies --   3067.7265              3104.6491              3119.2761
 Red. masses --      1.1014                 1.1012                 1.1019
 Frc consts  --      6.1073                 6.2537                 6.3166
 IR Inten    --      4.9770                20.4766                13.1296

                     49                     50                     51
                      A                      A                      A
 Frequencies --   3121.3295              3125.9488              3781.9078
 Red. masses --      1.1022                 1.1015                 1.0657
 Frc consts  --      6.3270                 6.3416                 8.9809
 IR Inten    --     15.4931                30.9686                17.9490

 - Thermochemistry -
 -------------------
 Temperature   298.150 Kelvin.  Pressure   1.00000 Atm.
 Atom     1 has atomic number  6 and mass  12.00000

 Molecular mass:   126.06808 amu.
 Principal axes and moments of inertia in atomic units:
                           1         2         3
     Eigenvalues --   488.075352539.850862638.97631
           X            0.99998  -0.00393   0.00478
           Y            0.00445   0.99339  -0.11472
           Z           -0.00430   0.11474   0.99339
 This molecule is an asymmetric top.
 Rotational symmetry number  1.
 Warning -- assumption of classical behavior for rotation
           may cause significant error
 Rotational temperatures (Kelvin)      0.17746     0.03410     0.03282
 Rotational constants (GHZ):           3.69767     0.71057     0.68388
 Zero-point vibrational energy     406280.2 (Joules/Mol)
                                   97.10330 (Kcal/Mol)
 Warning -- explicit consideration of  15 degrees of freedom as
           vibrations may cause significant error
 Vibrational temperatures:     49.55    83.68   102.99   248.35   283.42
          (Kelvin)            315.39   376.57   435.63   472.98   533.66
                              543.77   573.91   585.22   648.19   749.06
                              928.67  1099.76  1197.18  1246.22  1321.40
                             1351.87  1420.89  1464.29  1471.17  1622.81
                             1661.04  1688.04  1765.94  1848.51  1869.99
                             1992.24  2023.90  2043.61  2046.72  2079.36
                             2127.36  2142.55  2156.01  2171.45  2540.30
                             3336.64  4203.27  4356.49  4367.82  4382.23
                             4413.77  4466.89  4487.94  4490.89  4497.54
                             5441.32

 Zero-point correction=                           0.154744 (Hartree/Particle)
 Thermal correction to Energy=                    0.165500
 Thermal correction to Enthalpy=                  0.166444
 Thermal correction to Gibbs Free Energy=         0.117835
 Sum of electronic and zero-point Energies=           -423.015041
 Sum of electronic and thermal Energies=              -423.004285
 Sum of electronic and thermal Enthalpies=            -423.003341
 Sum of electronic and thermal Free Energies=         -423.051950

                     E (Thermal)             CV                S
                      KCal/Mol        Cal/Mol-Kelvin    Cal/Mol-Kelvin
 Total                  103.853             37.861            102.307
 Electronic               0.000              0.000              0.000
 Translational            0.889              2.981             40.409
 Rotational               0.889              2.981             29.571
 Vibrational            102.075             31.899             32.327
 Vibration     1          0.594              1.983              5.556
 Vibration     2          0.596              1.974              4.519
 Vibration     3          0.598              1.968              4.109
 Vibration     4          0.626              1.876              2.407
 Vibration     5          0.636              1.844              2.161
 Vibration     6          0.647              1.812              1.966
 Vibration     7          0.669              1.743              1.650
 Vibration     8          0.694              1.668              1.401
 Vibration     9          0.712              1.618              1.266
 Vibration    10          0.743              1.532              1.076
 Vibration    11          0.748              1.517              1.047
 Vibration    12          0.765              1.473              0.967
 Vibration    13          0.772              1.456              0.938
 Vibration    14          0.809              1.360              0.794
 Vibration    15          0.876              1.204              0.609

 Optimization completed.
    -- Stationary point found.
 Normal termination of Gaussian 09 at Mon Jan 27 15:02:18 2020.
