 Gaussian 09, Revision D.01,
 Gaussian 09:  ES64L-G09RevD.01 24-Apr-2013

 -----------------------------
 # b3lyp 6-31G(2df,p) opt Freq
 -----------------------------

 -----
 titel
 -----
 Symbolic Z-matrix:
 Charge =  0 Multiplicity = 1

 SCF Done:  E(RB3LYP) =  -423.121068772     A.U. after   13 cycles
 Optimization completed.
    -- Stationary point found.
 Normal termination of Gaussian 09 at Tue Jan 28 02:56:43 2020.

 ----------------------------------------------------------------------
 #N Geom=AllCheck Guess=TCheck SCRF=Check GenChk RB3LYP/6-31G(2df,p) Fr
 eq
 ----------------------------------------------------------------------

 Structure from the checkpoint file:  "/scratch/puck/g09_068e55d1-c08e-4d44-9200-c4d0c6f58f86/Gau-89753.chk"
 -----
 titel
 -----
 Charge =  0 Multiplicity = 1

                         Standard orientation:
 ---------------------------------------------------------------------
 Center     Atomic      Atomic             Coordinates (Angstroms)
 Number     Number       Type             X           Y           Z
 ---------------------------------------------------------------------
      1          6           0        2.517000   -0.242270   -0.390272
      2          6           0        1.020863   -0.494173   -0.545281
      3          6           0        0.405796   -1.504739    0.480567
      4          6           0       -0.481957   -0.382767    1.092293
      5          6           0       -1.869144   -0.169084    0.436486
      6          8           0       -1.765017   -0.530299   -0.950213
      7          6           0       -1.319146    0.768068   -0.556386
      8          6           0        0.105454    0.632720    0.042569
      9          8           0        0.617530    1.891121    0.350083
     10          1           0        2.847242    0.604620   -1.000706
     11          1           0        2.792180   -0.035048    0.652782
     12          1           0        3.090434   -1.122910   -0.697275
     13          1           0        0.787400   -0.732383   -1.586114
     14          1           0       -0.144658   -2.334784    0.036412
     15          1           0        1.142336   -1.900366    1.185574
     16          1           0       -0.434922   -0.184589    2.163256
     17          1           0       -2.854984   -0.237125    0.882808
     18          1           0       -1.740228    1.629984   -1.062832
     19          1           0        1.421907    1.779498    0.867282
 ---------------------------------------------------------------------

 SCF Done:  E(RB3LYP) =  -423.121068772     A.U. after    1 cycles

 The electronic state is 1-A.
 Alpha  occ. eigenvalues --  -19.15314 -19.14932 -10.23600 -10.23514 -10.23263
 Alpha  occ. eigenvalues --  -10.18454 -10.18248 -10.18088 -10.17767  -1.07963
 Alpha  occ. eigenvalues --   -1.03183  -0.84060  -0.75034  -0.69357  -0.66169
 Alpha  occ. eigenvalues --   -0.59771  -0.58077  -0.55136  -0.52274  -0.49682
 Alpha  occ. eigenvalues --   -0.46221  -0.43394  -0.41560  -0.40643  -0.39550
 Alpha  occ. eigenvalues --   -0.38938  -0.37511  -0.36595  -0.33023  -0.32072
 Alpha  occ. eigenvalues --   -0.30962  -0.28427  -0.25323  -0.23764
 Alpha virt. eigenvalues --    0.05987   0.07747   0.09291   0.10409   0.13681
 Alpha virt. eigenvalues --    0.14358   0.15010   0.15294   0.16217   0.16630
 Alpha virt. eigenvalues --    0.17243   0.17825   0.19422   0.20525   0.21392

 Mulliken charges:
               1
     1  C   -0.433594
     2  C   -0.024373
     3  C   -0.249143
     4  C   -0.146829
     5  C    0.015568
     6  O   -0.237768
     7  C   -0.013213
     8  C    0.373685
     9  O   -0.483135
    10  H    0.125020
    11  H    0.098760
    12  H    0.122753
    13  H    0.082488
    14  H    0.112839
    15  H    0.091310
    16  H    0.073441
    17  H    0.103569
    18  H    0.104829
    19  H    0.283791
 Sum of Mulliken charges =   0.00000

 Dipole moment (field-independent basis, Debye):
    X=              1.1239    Y=              0.0551    Z=              1.5354  Tot=              1.9035
 Quadrupole moment (field-independent basis, Debye-Ang):
   XX=            -50.2817   YY=            -55.9632   ZZ=            -52.2668
   XY=             -0.9526   XZ=             -1.0611   YZ=             -0.8719

  Exact polarizability:  83.560  -0.546  70.935  -1.025  -3.243  67.142
 Approx polarizability: 109.500   3.106 109.137   0.775  -3.438 107.836

                      1                      2                      3
                      A                      A                      A
 Frequencies --    111.0712               226.8229               238.3068
 Red. masses --      2.8960                 1.5821                 1.5285
 Frc consts  --      0.0211                 0.0480                 0.0511
 IR Inten    --      0.7918                 0.2777                 7.6577

                      4                      5                      6
                      A                      A                      A
 Frequencies --    251.5034               298.9134               312.3272
 Red. masses --      2.3098                 3.3301                 1.5127
 Frc consts  --      0.0861                 0.1753                 0.0869
 IR Inten    --      9.1595                 5.5643                90.5330

                      7                      8                      9
                      A                      A                      A
 Frequencies --    352.3431               411.2687               476.7930
 Red. masses --      2.8852                 4.0677                 2.0453
 Frc consts  --      0.2110                 0.4054                 0.2739
 IR Inten    --      4.3250                11.8914                 1.1076

                     10                     11                     12
                      A                      A                      A
 Frequencies --    562.2167               635.8134               698.4476
 Red. masses --      6.2847                 3.8108                 3.2927
 Frc consts  --      1.1704                 0.9077                 0.9464
 IR Inten    --      5.4512                 3.5397                 3.6195

                     13                     14                     15
                      A                      A                      A
 Frequencies --    793.8876               802.3552               838.0343
 Red. masses --      2.3730                 4.1256                 3.3031
 Frc consts  --      0.8812                 1.5648                 1.3668
 IR Inten    --      7.4562                 3.1253                 7.6528

                     16                     17                     18
                      A                      A                      A
 Frequencies --    853.9574               862.3383               916.6397
 Red. masses --      1.5635                 2.4532                 1.8671
 Frc consts  --      0.6718                 1.0748                 0.9243
 IR Inten    --     19.8289                 1.2634                 6.9490

                     19                     20                     21
                      A                      A                      A
 Frequencies --    946.5778               973.5550              1008.4639
 Red. masses --      1.9817                 1.9412                 2.1302
 Frc consts  --      1.0462                 1.0840                 1.2764
 IR Inten    --     20.2035                 5.2280                10.4558

                     22                     23                     24
                      A                      A                      A
 Frequencies --   1021.2358              1046.3623              1075.2083
 Red. masses --      2.2245                 1.3227                 1.8167
 Frc consts  --      1.3669                 0.8532                 1.2374
 IR Inten    --      7.8658                 3.7159                 0.4080

                     25                     26                     27
                      A                      A                      A
 Frequencies --   1079.5510              1099.0698              1114.4640
 Red. masses --      2.4155                 1.5980                 2.1165
 Frc consts  --      1.6586                 1.1373                 1.5489
 IR Inten    --     13.9325                 0.5875                 3.5267

                     28                     29                     30
                      A                      A                      A
 Frequencies --   1199.3204              1201.9368              1235.7546
 Red. masses --      1.6211                 1.6103                 1.4031
 Frc consts  --      1.3738                 1.3706                 1.2624
 IR Inten    --      5.4630                 8.3656                22.2285

                     31                     32                     33
                      A                      A                      A
 Frequencies --   1241.2017              1257.7064              1282.7102
 Red. masses --      1.3807                 1.8914                 1.6889
 Frc consts  --      1.2532                 1.7628                 1.6372
 IR Inten    --      8.4396                85.4681                29.7556

                     34                     35                     36
                      A                      A                      A
 Frequencies --   1293.6492              1330.3743              1378.1890
 Red. masses --      1.8988                 1.5646                 2.7429
 Frc consts  --      1.8723                 1.6315                 3.0696
 IR Inten    --     38.7570                 3.0318                 6.1915

                     37                     38                     39
                      A                      A                      A
 Frequencies --   1387.1465              1408.6207              1471.0972
 Red. masses --      2.0371                 1.3206                 1.1191
 Frc consts  --      2.3095                 1.5439                 1.4269
 IR Inten    --      9.5383                 1.7653                 7.1093

                     40                     41                     42
                      A                      A                      A
 Frequencies --   1496.5184              1502.0058              3012.1026
 Red. masses --      1.0483                 1.0479                 1.0424
 Frc consts  --      1.3832                 1.3929                 5.5722
 IR Inten    --      5.8856                 2.6378                25.3787

                     43                     44                     45
                      A                      A                      A
 Frequencies --   3060.5499              3065.9451              3085.1996
 Red. masses --      1.0629                 1.0857                 1.0915
 Frc consts  --      5.8662                 6.0132                 6.1211
 IR Inten    --     32.6081                 2.8324                45.7288

                     46                     47                     48
                      A                      A                      A
 Frequencies --   3102.4803              3114.4857              3129.9785
 Red. masses --      1.1017                 1.0893                 1.1027
 Frc consts  --      6.2478                 6.2257                 6.3649
 IR Inten    --     19.6796                13.7774                21.9818

                     49                     50                     51
                      A                      A                      A
 Frequencies --   3170.6330              3185.5181              3815.5443
 Red. masses --      1.0871                 1.1020                 1.0656
 Frc consts  --      6.4392                 6.5883                 9.1402
 IR Inten    --     18.5552                27.0619                19.5366

 - Thermochemistry -
 -------------------
 Temperature   298.150 Kelvin.  Pressure   1.00000 Atm.
 Atom     1 has atomic number  6 and mass  12.00000

 Molecular mass:   126.06808 amu.
 Principal axes and moments of inertia in atomic units:
                           1         2         3
     Eigenvalues --   648.907261111.114561345.28732
           X            0.99939  -0.03084  -0.01663
           Y            0.03038   0.99918  -0.02683
           Z            0.01744   0.02631   0.99950
 This molecule is an asymmetric top.
 Rotational symmetry number  1.
 Warning -- assumption of classical behavior for rotation
           may cause significant error
 Rotational temperatures (Kelvin)      0.13348     0.07795     0.06438
 Rotational constants (GHZ):           2.78120     1.62426     1.34153
 Zero-point vibrational energy     415320.7 (Joules/Mol)
                                   99.26402 (Kcal/Mol)
 Warning -- explicit consideration of  10 degrees of freedom as
           vibrations may cause significant error
 Vibrational temperatures:    159.81   326.35   342.87   361.86   430.07
          (Kelvin)            449.37   506.94   591.72   686.00   808.90
                              914.79  1004.91  1142.23  1154.41  1205.74
                             1228.65  1240.71  1318.84  1361.91  1400.73
                             1450.95  1469.33  1505.48  1546.98  1553.23
                             1581.31  1603.46  1725.55  1729.32  1777.97
                             1785.81  1809.56  1845.53  1861.27  1914.11
                             1982.90  1995.79  2026.69  2116.58  2153.15
                             2161.05  4333.74  4403.44  4411.21  4438.91
                             4463.77  4481.04  4503.34  4561.83  4583.24
                             5489.71

 Zero-point correction=                           0.158187 (Hartree/Particle)
 Thermal correction to Energy=                    0.166243
 Thermal correction to Enthalpy=                  0.167187
 Thermal correction to Gibbs Free Energy=         0.126136
 Sum of electronic and zero-point Energies=           -422.962881
 Sum of electronic and thermal Energies=              -422.954826
 Sum of electronic and thermal Enthalpies=            -422.953882
 Sum of electronic and thermal Free Energies=         -422.994932

                     E (Thermal)             CV                S
                      KCal/Mol        Cal/Mol-Kelvin    Cal/Mol-Kelvin
 Total                  104.319             32.276             86.399
 Electronic               0.000              0.000              0.000
 Translational            0.889              2.981             40.409
 Rotational               0.889              2.981             28.363
 Vibrational            102.542             26.315             17.627
 Vibration     1          0.607              1.940              3.250
 Vibration     2          0.650              1.800              1.904
 Vibration     3          0.656              1.782              1.815
 Vibration     4          0.663              1.760              1.720
 Vibration     5          0.692              1.676              1.423
 Vibration     6          0.701              1.650              1.350
 Vibration     7          0.729              1.570              1.156
 Vibration     8          0.775              1.446              0.922
 Vibration     9          0.833              1.302              0.719
 Vibration    10          0.918              1.113              0.519

 Optimization completed.
    -- Stationary point found.
 Normal termination of Gaussian 09 at Tue Jan 28 03:53:29 2020.
