 Gaussian 09, Revision D.01,
 Gaussian 09:  ES64L-G09RevD.01 24-Apr-2013

 -----------------------------
 # b3lyp 6-31G(2df,p) opt Freq
 -----------------------------

 -----
 titel
 -----
 Symbolic Z-matrix:
 Charge =  0 Multiplicity = 1

 SCF Done:  E(RB3LYP) =  -423.139787132     A.U. after   14 cycles
 Optimization completed.
    -- Stationary point found.
 Normal termination of Gaussian 09 at Mon Jan 27 12:10:59 2020.

 ----------------------------------------------------------------------
 #N Geom=AllCheck Guess=TCheck SCRF=Check GenChk RB3LYP/6-31G(2df,p) Fr
 eq
 ----------------------------------------------------------------------

 Structure from the checkpoint file:  "/scratch/puck/g09_4c9c118f-77fa-4d8c-bab0-b1d59d39894d/Gau-152969.chk"
 -----
 titel
 -----
 Charge =  0 Multiplicity = 1

                         Standard orientation:
 ---------------------------------------------------------------------
 Center     Atomic      Atomic             Coordinates (Angstroms)
 Number     Number       Type             X           Y           Z
 ---------------------------------------------------------------------
      1          6           0        2.758058    0.511104    0.073038
      2          8           0        2.451520   -0.883858    0.099519
      3          6           0        1.448265    0.023069   -0.373881
      4          6           0        0.208623    0.149886    0.470519
      5          6           0       -0.696938    1.371139    0.088338
      6          6           0       -1.953151    0.570433   -0.313334
      7          6           0       -2.126301   -0.448035    0.834510
      8          6           0       -0.835237   -0.955292    0.160668
      9          8           0       -1.378000   -0.505505   -1.122817
     10          1           0        2.848758    0.987318    1.049175
     11          1           0        3.505439    0.813570   -0.659355
     12          1           0        1.260276   -0.040226   -1.446191
     13          1           0        0.494217    0.147468    1.526614
     14          1           0       -0.868643    2.059352    0.919723
     15          1           0       -0.298183    1.937731   -0.756882
     16          1           0       -2.783453    1.091313   -0.789420
     17          1           0       -2.090942   -0.101046    1.870767
     18          1           0       -2.967227   -1.119989    0.662006
     19          1           0       -0.508313   -1.994409    0.170797
 ---------------------------------------------------------------------

 SCF Done:  E(RB3LYP) =  -423.139787132     A.U. after    1 cycles

 The electronic state is 1-A.
 Alpha  occ. eigenvalues --  -19.14583 -19.13508 -10.24074 -10.23807 -10.23263
 Alpha  occ. eigenvalues --  -10.23066 -10.19430 -10.19045 -10.18912  -1.06559
 Alpha  occ. eigenvalues --   -1.04935  -0.80499  -0.73365  -0.71230  -0.66283
 Alpha  occ. eigenvalues --   -0.62101  -0.56883  -0.55218  -0.52699  -0.49382
 Alpha  occ. eigenvalues --   -0.47508  -0.46131  -0.44078  -0.41629  -0.38962
 Alpha  occ. eigenvalues --   -0.37244  -0.36020  -0.35671  -0.34428  -0.32531
 Alpha  occ. eigenvalues --   -0.32212  -0.29598  -0.26283  -0.24933
 Alpha virt. eigenvalues --    0.08373   0.09355   0.10871   0.11463   0.11606
 Alpha virt. eigenvalues --    0.12307   0.14041   0.14502   0.16114   0.16458
 Alpha virt. eigenvalues --    0.17012   0.17807   0.18178   0.19046   0.20433

 Mulliken charges:
               1
     1  C   -0.186863
     2  O   -0.245718
     3  C    0.077443
     4  C   -0.002088
     5  C   -0.256118
     6  C    0.086662
     7  C   -0.236323
     8  C    0.066058
     9  O   -0.300597
    10  H    0.108220
    11  H    0.114081
    12  H    0.105956
    13  H    0.075897
    14  H    0.101919
    15  H    0.109954
    16  H    0.081221
    17  H    0.094595
    18  H    0.113788
    19  H    0.091911
 Sum of Mulliken charges =   0.00000

 Dipole moment (field-independent basis, Debye):
    X=             -0.8857    Y=              2.0611    Z=              1.2799  Tot=              2.5828
 Quadrupole moment (field-independent basis, Debye-Ang):
   XX=            -53.0123   YY=            -53.0924   ZZ=            -53.8222
   XY=              3.3010   XZ=             -2.7726   YZ=             -0.9889

  Exact polarizability:  89.818   2.714  68.872  -0.172  -0.344  65.467
 Approx polarizability: 113.676   0.118 107.273   3.468   0.857 104.751

                      1                      2                      3
                      A                      A                      A
 Frequencies --     76.1224               132.4805               172.6905
 Red. masses --      3.7518                 3.7252                 3.5178
 Frc consts  --      0.0128                 0.0385                 0.0618
 IR Inten    --      2.4093                 2.0335                 3.0210

                      4                      5                      6
                      A                      A                      A
 Frequencies --    321.0216               379.3924               420.5836
 Red. masses --      3.7337                 2.1097                 2.8082
 Frc consts  --      0.2267                 0.1789                 0.2927
 IR Inten    --      0.5352                 1.3001                 1.8660

                      7                      8                      9
                      A                      A                      A
 Frequencies --    471.9572               587.9028               720.4460
 Red. masses --      2.9026                 3.6371                 3.7820
 Frc consts  --      0.3809                 0.7406                 1.1566
 IR Inten    --      8.9125                 7.8822                 7.6985

                     10                     11                     12
                      A                      A                      A
 Frequencies --    806.0171               833.3359               846.9718
 Red. masses --      1.9537                 3.1081                 3.2927
 Frc consts  --      0.7478                 1.2717                 1.3917
 IR Inten    --      2.0223                 8.5805                24.1837

                     13                     14                     15
                      A                      A                      A
 Frequencies --    858.5249               868.6065               877.2432
 Red. masses --      5.1057                 2.4983                 2.9685
 Frc consts  --      2.2173                 1.1105                 1.3459
 IR Inten    --     14.1863                 2.8576                27.9216

                     16                     17                     18
                      A                      A                      A
 Frequencies --    913.7604               943.5644               962.1070
 Red. masses --      2.4183                 2.8864                 1.9930
 Frc consts  --      1.1897                 1.5141                 1.0870
 IR Inten    --      3.9204                38.8970                15.8117

                     19                     20                     21
                      A                      A                      A
 Frequencies --    981.9563               994.4287              1038.0139
 Red. masses --      1.8552                 2.2061                 2.2992
 Frc consts  --      1.0540                 1.2853                 1.4596
 IR Inten    --      5.5669                 2.3852                 8.6265

                     22                     23                     24
                      A                      A                      A
 Frequencies --   1051.7933              1089.4129              1110.0722
 Red. masses --      1.2405                 1.7524                 1.3735
 Frc consts  --      0.8085                 1.2254                 0.9972
 IR Inten    --      1.0744                 0.7350                 1.4466

                     25                     26                     27
                      A                      A                      A
 Frequencies --   1126.2718              1156.4844              1177.8458
 Red. masses --      1.1976                 1.3745                 1.3397
 Frc consts  --      0.8950                 1.0831                 1.0950
 IR Inten    --      1.7369                 0.5402                 4.3639

                     28                     29                     30
                      A                      A                      A
 Frequencies --   1194.3052              1208.6204              1226.0087
 Red. masses --      1.7203                 1.8374                 1.4890
 Frc consts  --      1.4457                 1.5814                 1.3186
 IR Inten    --     10.5578                 6.2231                 5.4676

                     31                     32                     33
                      A                      A                      A
 Frequencies --   1239.4307              1262.7607              1281.4714
 Red. masses --      1.5031                 1.2887                 1.4351
 Frc consts  --      1.3605                 1.2107                 1.3885
 IR Inten    --      6.9323                 1.4094                 0.6094

                     34                     35                     36
                      A                      A                      A
 Frequencies --   1288.2743              1291.2465              1322.2396
 Red. masses --      1.5825                 1.5127                 1.4757
 Frc consts  --      1.5474                 1.4860                 1.5201
 IR Inten    --      3.3942                 5.2827                 3.9387

                     37                     38                     39
                      A                      A                      A
 Frequencies --   1341.0578              1451.9427              1480.0494
 Red. masses --      1.6731                 1.7795                 1.1163
 Frc consts  --      1.7729                 2.2103                 1.4408
 IR Inten    --      4.6247                 9.5999                 2.1297

                     40                     41                     42
                      A                      A                      A
 Frequencies --   1494.6888              1531.0831              3062.0997
 Red. masses --      1.1262                 1.3762                 1.0701
 Frc consts  --      1.4824                 1.9007                 5.9115
 IR Inten    --      0.9549                 3.1045                15.1953

                     43                     44                     45
                      A                      A                      A
 Frequencies --   3063.4468              3069.7322              3078.1452
 Red. masses --      1.0623                 1.0710                 1.0506
 Frc consts  --      5.8737                 5.9463                 5.8649
 IR Inten    --     24.4699                21.9298                33.0580

                     46                     47                     48
                      A                      A                      A
 Frequencies --   3111.5101              3115.8775              3126.3244
 Red. masses --      1.0958                 1.0990                 1.0906
 Frc consts  --      6.2509                 6.2865                 6.2805
 IR Inten    --      4.3476                28.5769                56.0759

                     49                     50                     51
                      A                      A                      A
 Frequencies --   3133.8175              3146.1155              3163.7761
 Red. masses --      1.0940                 1.1049                 1.1189
 Frc consts  --      6.3299                 6.4436                 6.5987
 IR Inten    --     14.8416                25.3461                30.8736

 - Thermochemistry -
 -------------------
 Temperature   298.150 Kelvin.  Pressure   1.00000 Atm.
 Atom     1 has atomic number  6 and mass  12.00000

 Molecular mass:   126.06808 amu.
 Principal axes and moments of inertia in atomic units:
                           1         2         3
     Eigenvalues --   437.315121603.447461708.08358
           X            0.99981   0.01408  -0.01365
           Y           -0.01449   0.99942  -0.03075
           Z            0.01321   0.03094   0.99943
 This molecule is an asymmetric top.
 Rotational symmetry number  1.
 Warning -- assumption of classical behavior for rotation
           may cause significant error
 Rotational temperatures (Kelvin)      0.19806     0.05402     0.05071
 Rotational constants (GHZ):           4.12687     1.12554     1.05659
 Zero-point vibrational energy     422299.9 (Joules/Mol)
                                  100.93210 (Kcal/Mol)
 Warning -- explicit consideration of   8 degrees of freedom as
           vibrations may cause significant error
 Vibrational temperatures:    109.52   190.61   248.46   461.88   545.86
          (Kelvin)            605.13   679.04   845.86  1036.56  1159.68
                             1198.98  1218.60  1235.22  1249.73  1262.16
                             1314.70  1357.58  1384.26  1412.81  1430.76
                             1493.47  1513.29  1567.42  1597.14  1620.45
                             1663.92  1694.66  1718.34  1738.93  1763.95
                             1783.26  1816.83  1843.75  1853.54  1857.81
                             1902.41  1929.48  2089.02  2129.46  2150.52
                             2202.88  4405.67  4407.61  4416.65  4428.76
                             4476.76  4483.05  4498.08  4508.86  4526.55
                             4551.96

 Zero-point correction=                           0.160846 (Hartree/Particle)
 Thermal correction to Energy=                    0.168206
 Thermal correction to Enthalpy=                  0.169150
 Thermal correction to Gibbs Free Energy=         0.128575
 Sum of electronic and zero-point Energies=           -422.978942
 Sum of electronic and thermal Energies=              -422.971582
 Sum of electronic and thermal Enthalpies=            -422.970637
 Sum of electronic and thermal Free Energies=         -423.011212

                     E (Thermal)             CV                S
                      KCal/Mol        Cal/Mol-Kelvin    Cal/Mol-Kelvin
 Total                  105.551             28.956             85.397
 Electronic               0.000              0.000              0.000
 Translational            0.889              2.981             40.409
 Rotational               0.889              2.981             28.573
 Vibrational            103.773             22.995             16.416
 Vibration     1          0.599              1.965              3.988
 Vibration     2          0.613              1.921              2.910
 Vibration     3          0.626              1.876              2.406
 Vibration     4          0.706              1.633              1.305
 Vibration     5          0.749              1.514              1.042
 Vibration     6          0.783              1.426              0.890
 Vibration     7          0.829              1.312              0.732
 Vibration     8          0.945              1.058              0.471

 Optimization completed.
    -- Stationary point found.
 Normal termination of Gaussian 09 at Mon Jan 27 12:52:31 2020.
