 Gaussian 09, Revision D.01,
 Gaussian 09:  ES64L-G09RevD.01 24-Apr-2013

 -----------------------------
 # b3lyp 6-31G(2df,p) opt Freq
 -----------------------------

 -----
 titel
 -----
 Symbolic Z-matrix:
 Charge =  0 Multiplicity = 1

 SCF Done:  E(RB3LYP) =  -423.163331030     A.U. after   15 cycles
 Optimization completed.
    -- Stationary point found.
 Normal termination of Gaussian 09 at Tue Jan 28 08:20:26 2020.

 ----------------------------------------------------------------------
 #N Geom=AllCheck Guess=TCheck SCRF=Check GenChk RB3LYP/6-31G(2df,p) Fr
 eq
 ----------------------------------------------------------------------

 Structure from the checkpoint file:  "/scratch/puck/g09_edbd81c0-fc6d-47ab-b722-16c202102177/Gau-59926.chk"
 -----
 titel
 -----
 Charge =  0 Multiplicity = 1

                         Standard orientation:
 ---------------------------------------------------------------------
 Center     Atomic      Atomic             Coordinates (Angstroms)
 Number     Number       Type             X           Y           Z
 ---------------------------------------------------------------------
      1          6           0        3.312711   -0.631990   -0.303996
      2          6           0        1.797617   -0.654742   -0.493157
      3          6           0        1.110380    0.613837   -0.010447
      4          8           0        1.696168    1.462491    0.620913
      5          6           0       -0.364413    0.802011   -0.372041
      6          6           0       -1.241535   -0.429122   -0.061662
      7          8           0       -1.011543   -0.912207    1.259143
      8          6           0       -2.656549   -0.135874   -0.301533
      9          6           0       -3.814370    0.139964   -0.469372
     10          1           0        3.769165    0.175698   -0.882804
     11          1           0        3.567212   -0.463758    0.744774
     12          1           0        3.756259   -1.578837   -0.623993
     13          1           0        1.525464   -0.826055   -1.543749
     14          1           0        1.348549   -1.486477    0.066399
     15          1           0       -0.730626    1.675886    0.174052
     16          1           0       -0.439483    1.028064   -1.443757
     17          1           0       -0.939384   -1.259172   -0.710224
     18          1           0       -1.356330   -0.257038    1.877019
     19          1           0       -4.840882    0.364908   -0.624907
 ---------------------------------------------------------------------

 SCF Done:  E(RB3LYP) =  -423.163331030     A.U. after    1 cycles

 The electronic state is 1-A.
 Alpha  occ. eigenvalues --  -19.15568 -19.12937 -10.27285 -10.26981 -10.19943
 Alpha  occ. eigenvalues --  -10.19308 -10.19258 -10.18899 -10.17517  -1.04238
 Alpha  occ. eigenvalues --   -1.03653  -0.80520  -0.77549  -0.74382  -0.67591
 Alpha  occ. eigenvalues --   -0.63882  -0.56390  -0.52748  -0.50671  -0.48815
 Alpha  occ. eigenvalues --   -0.47593  -0.46054  -0.44806  -0.42424  -0.39929
 Alpha  occ. eigenvalues --   -0.37815  -0.36190  -0.35994  -0.35563  -0.34350
 Alpha  occ. eigenvalues --   -0.30345  -0.28445  -0.27839  -0.24325
 Alpha virt. eigenvalues --   -0.01301   0.02207   0.04531   0.08464   0.09679
 Alpha virt. eigenvalues --    0.11525   0.12166   0.13501   0.15168   0.15968
 Alpha virt. eigenvalues --    0.16547   0.17685   0.19360   0.21732   0.22645

 Mulliken charges:
               1
     1  C   -0.388924
     2  C   -0.282287
     3  C    0.390497
     4  O   -0.301115
     5  C   -0.318458
     6  C   -0.074871
     7  O   -0.415100
     8  C    0.293509
     9  C   -0.412806
    10  H    0.125930
    11  H    0.137518
    12  H    0.109690
    13  H    0.111488
    14  H    0.149141
    15  H    0.124828
    16  H    0.130025
    17  H    0.125712
    18  H    0.291783
    19  H    0.203440
 Sum of Mulliken charges =   0.00000

 Dipole moment (field-independent basis, Debye):
    X=             -1.6381    Y=             -0.6239    Z=             -1.4124  Tot=              2.2511
 Quadrupole moment (field-independent basis, Debye-Ang):
   XX=            -49.9628   YY=            -57.7760   ZZ=            -51.4877
   XY=             -6.5227   XZ=             -2.5733   YZ=              0.1857

  Exact polarizability: 108.610  -5.144  65.344   5.364   2.503  62.463
 Approx polarizability: 142.477  -6.013 102.399  12.072   6.200  98.283

                      1                      2                      3
                      A                      A                      A
 Frequencies --     50.1856                56.3018                86.3654
 Red. masses --      4.9922                 2.8314                 2.3895
 Frc consts  --      0.0074                 0.0053                 0.0105
 IR Inten    --      3.5082                 2.5967                 0.4069

                      4                      5                      6
                      A                      A                      A
 Frequencies --    115.5488               171.7933               199.4827
 Red. masses --      3.2819                 3.9774                 1.2147
 Frc consts  --      0.0258                 0.0692                 0.0285
 IR Inten    --      0.4942                 0.4539                 0.3857

                      7                      8                      9
                      A                      A                      A
 Frequencies --    228.2033               267.6503               314.2548
 Red. masses --      3.1156                 3.0799                 1.2302
 Frc consts  --      0.0956                 0.1300                 0.0716
 IR Inten    --      3.8626                16.8863                87.1481

                     10                     11                     12
                      A                      A                      A
 Frequencies --    364.8565               430.4197               458.1946
 Red. masses --      3.2447                 3.8076                 3.6365
 Frc consts  --      0.2545                 0.4156                 0.4498
 IR Inten    --      4.3968                 7.9867                 6.0326

                     13                     14                     15
                      A                      A                      A
 Frequencies --    552.5210               566.5583               636.8877
 Red. masses --      2.6077                 5.3461                 1.2507
 Frc consts  --      0.4690                 1.0111                 0.2989
 IR Inten    --     15.6431                15.7937                45.2866

                     16                     17                     18
                      A                      A                      A
 Frequencies --    643.6171               677.5937               758.4409
 Red. masses --      3.4480                 1.2505                 1.8947
 Frc consts  --      0.8415                 0.3383                 0.6422
 IR Inten    --     10.3593                34.8163                 3.6941

                     19                     20                     21
                      A                      A                      A
 Frequencies --    771.9354               866.9092               932.9361
 Red. masses --      2.0072                 2.3752                 2.3548
 Frc consts  --      0.7047                 1.0517                 1.2075
 IR Inten    --      3.5338                 5.9902                20.1711

                     22                     23                     24
                      A                      A                      A
 Frequencies --    997.3407              1011.7272              1060.6952
 Red. masses --      1.8461                 1.9002                 3.2901
 Frc consts  --      1.0819                 1.1459                 2.1809
 IR Inten    --     13.2282                21.7637                52.2076

                     25                     26                     27
                      A                      A                      A
 Frequencies --   1083.2467              1104.0844              1145.3399
 Red. masses --      2.2626                 2.3980                 2.0507
 Frc consts  --      1.5642                 1.7223                 1.5849
 IR Inten    --      3.1226                37.1304                33.0452

                     28                     29                     30
                      A                      A                      A
 Frequencies --   1206.6300              1267.2742              1286.0475
 Red. masses --      1.5713                 1.2656                 1.2405
 Frc consts  --      1.3479                 1.1976                 1.2088
 IR Inten    --     80.9749                 1.9386                 2.9904

                     31                     32                     33
                      A                      A                      A
 Frequencies --   1300.1438              1355.5661              1373.5577
 Red. masses --      1.3605                 1.3633                 1.8277
 Frc consts  --      1.3550                 1.4760                 2.0317
 IR Inten    --     11.5876                 5.9916                33.0049

                     34                     35                     36
                      A                      A                      A
 Frequencies --   1412.4772              1418.9141              1456.7981
 Red. masses --      1.2224                 1.1934                 1.0900
 Frc consts  --      1.4369                 1.4157                 1.3629
 IR Inten    --      2.5260                59.7214                 7.3963

                     37                     38                     39
                      A                      A                      A
 Frequencies --   1461.6347              1493.0542              1498.8959
 Red. masses --      1.0913                 1.0389                 1.0503
 Frc consts  --      1.3736                 1.3645                 1.3902
 IR Inten    --      1.7505                 5.7802                 7.2790

                     40                     41                     42
                      A                      A                      A
 Frequencies --   1810.2794              2234.0157              3018.1371
 Red. masses --     11.0968                 5.8984                 1.0612
 Frc consts  --     21.4260                17.3443                 5.6955
 IR Inten    --    146.3602                 1.3294                19.5375

                     43                     44                     45
                      A                      A                      A
 Frequencies --   3035.0924              3048.5873              3050.5962
 Red. masses --      1.0638                 1.0862                 1.0599
 Frc consts  --      5.7739                 5.9480                 5.8114
 IR Inten    --      5.6984                11.3439                18.3862

                     46                     47                     48
                      A                      A                      A
 Frequencies --   3052.8849              3103.2149              3119.9281
 Red. masses --      1.0683                 1.0985                 1.1022
 Frc consts  --      5.8662                 6.2328                 6.3210
 IR Inten    --     11.1061                12.5699                22.0412

                     49                     50                     51
                      A                      A                      A
 Frequencies --   3132.3047              3501.9236              3799.6405
 Red. masses --      1.1013                 1.1629                 1.0662
 Frc consts  --      6.3662                 8.4022                 9.0692
 IR Inten    --     17.2030                69.6485                27.9837

 - Thermochemistry -
 -------------------
 Temperature   298.150 Kelvin.  Pressure   1.00000 Atm.
 Atom     1 has atomic number  6 and mass  12.00000

 Molecular mass:   126.06808 amu.
 Principal axes and moments of inertia in atomic units:
                           1         2         3
     Eigenvalues --   482.185022325.895172439.47840
           X            0.99970  -0.02326  -0.00735
           Y            0.02344   0.99942   0.02480
           Z            0.00677  -0.02497   0.99967
 This molecule is an asymmetric top.
 Rotational symmetry number  1.
 Warning -- assumption of classical behavior for rotation
           may cause significant error
 Rotational temperatures (Kelvin)      0.17963     0.03724     0.03551
 Rotational constants (GHZ):           3.74284     0.77593     0.73981
 Zero-point vibrational energy     406674.6 (Joules/Mol)
                                   97.19757 (Kcal/Mol)
 Warning -- explicit consideration of  14 degrees of freedom as
           vibrations may cause significant error
 Vibrational temperatures:     72.21    81.01   124.26   166.25   247.17
          (Kelvin)            287.01   328.33   385.09   452.14   524.95
                              619.28   659.24   794.95   815.15   916.34
                              926.02   974.90  1091.23  1110.64  1247.29
                             1342.29  1434.95  1455.65  1526.10  1558.55
                             1588.53  1647.89  1736.07  1823.32  1850.33
                             1870.61  1950.35  1976.24  2032.24  2041.50
                             2096.00  2102.96  2148.17  2156.57  2604.58
                             3214.25  4342.42  4366.82  4386.23  4389.12
                             4392.42  4464.83  4488.88  4506.68  5038.48
                             5466.83

 Zero-point correction=                           0.154894 (Hartree/Particle)
 Thermal correction to Energy=                    0.165617
 Thermal correction to Enthalpy=                  0.166562
 Thermal correction to Gibbs Free Energy=         0.118172
 Sum of electronic and zero-point Energies=           -423.008437
 Sum of electronic and thermal Energies=              -422.997714
 Sum of electronic and thermal Enthalpies=            -422.996769
 Sum of electronic and thermal Free Energies=         -423.045159

                     E (Thermal)             CV                S
                      KCal/Mol        Cal/Mol-Kelvin    Cal/Mol-Kelvin
 Total                  103.926             37.762            101.844
 Electronic               0.000              0.000              0.000
 Translational            0.889              2.981             40.409
 Rotational               0.889              2.981             29.394
 Vibrational            102.149             31.801             32.042
 Vibration     1          0.595              1.978              4.810
 Vibration     2          0.596              1.975              4.583
 Vibration     3          0.601              1.959              3.741
 Vibration     4          0.608              1.937              3.174
 Vibration     5          0.626              1.877              2.416
 Vibration     6          0.638              1.841              2.138
 Vibration     7          0.651              1.798              1.893
 Vibration     8          0.673              1.733              1.611
 Vibration     9          0.702              1.646              1.340
 Vibration    10          0.738              1.545              1.101
 Vibration    11          0.792              1.404              0.857
 Vibration    12          0.816              1.343              0.771
 Vibration    13          0.908              1.134              0.539
 Vibration    14          0.922              1.104              0.511

 Optimization completed.
    -- Stationary point found.
 Normal termination of Gaussian 09 at Tue Jan 28 09:58:58 2020.
