 Gaussian 09, Revision D.01,
 Gaussian 09:  ES64L-G09RevD.01 24-Apr-2013

 -----------------------------
 # b3lyp 6-31G(2df,p) opt Freq
 -----------------------------

 -----
 titel
 -----
 Symbolic Z-matrix:
 Charge =  0 Multiplicity = 1

 SCF Done:  E(RB3LYP) =  -423.113625243     A.U. after   13 cycles
 Optimization completed.
    -- Stationary point found.
 Normal termination of Gaussian 09 at Tue Jan 28 09:39:26 2020.

 ----------------------------------------------------------------------
 #N Geom=AllCheck Guess=TCheck SCRF=Check GenChk RB3LYP/6-31G(2df,p) Fr
 eq
 ----------------------------------------------------------------------

 Structure from the checkpoint file:  "/scratch/puck/g09_1eeb9dab-6586-4213-8c15-90b95305853a/Gau-132230.chk"
 -----
 titel
 -----
 Charge =  0 Multiplicity = 1

                         Standard orientation:
 ---------------------------------------------------------------------
 Center     Atomic      Atomic             Coordinates (Angstroms)
 Number     Number       Type             X           Y           Z
 ---------------------------------------------------------------------
      1          6           0        2.720983   -0.487089    0.283671
      2          8           0        1.660511   -0.253614   -0.625671
      3          6           0        0.490555    0.162916   -0.013637
      4          6           0        0.323242    1.596150    0.428244
      5          6           0       -0.499743    1.049349   -0.725733
      6          6           0       -1.773205    0.225384   -0.441425
      7          6           0       -1.710136   -0.149393    1.056708
      8          6           0       -0.500448   -0.919975    0.483561
      9          8           0       -1.305166   -1.142232   -0.729204
     10          1           0        2.477787   -1.281934    1.003459
     11          1           0        3.583948   -0.800898   -0.307798
     12          1           0        2.979484    0.421890    0.845163
     13          1           0       -0.124781    1.873984    1.374923
     14          1           0        1.134802    2.249827    0.120816
     15          1           0       -0.313523    1.405629   -1.730903
     16          1           0       -2.694222    0.493619   -0.957516
     17          1           0       -1.585564    0.609660    1.829314
     18          1           0       -2.514907   -0.837209    1.314145
     19          1           0       -0.093282   -1.831855    0.919055
 ---------------------------------------------------------------------

 SCF Done:  E(RB3LYP) =  -423.113625243     A.U. after    1 cycles

 The electronic state is 1-A.
 Alpha  occ. eigenvalues --  -19.14705 -19.12567 -10.24176 -10.23993 -10.23699
 Alpha  occ. eigenvalues --  -10.22602 -10.19391 -10.19025 -10.18938  -1.05253
 Alpha  occ. eigenvalues --   -1.03108  -0.86017  -0.73785  -0.70519  -0.68042
 Alpha  occ. eigenvalues --   -0.63381  -0.55233  -0.54499  -0.53174  -0.49179
 Alpha  occ. eigenvalues --   -0.47631  -0.44676  -0.44113  -0.42402  -0.40076
 Alpha  occ. eigenvalues --   -0.38931  -0.37355  -0.34800  -0.34104  -0.32789
 Alpha  occ. eigenvalues --   -0.30610  -0.26326  -0.25654  -0.23844
 Alpha virt. eigenvalues --    0.08802   0.09354   0.09914   0.10808   0.11749
 Alpha virt. eigenvalues --    0.13516   0.14194   0.14716   0.15854   0.16619
 Alpha virt. eigenvalues --    0.17144   0.18311   0.19009   0.20205   0.20823

 Mulliken charges:
               1
     1  C   -0.253558
     2  O   -0.281150
     3  C    0.477067
     4  C   -0.376494
     5  C   -0.138371
     6  C    0.066729
     7  C   -0.244159
     8  C   -0.015190
     9  O   -0.296459
    10  H    0.107158
    11  H    0.128762
    12  H    0.108671
    13  H    0.113515
    14  H    0.119448
    15  H    0.108818
    16  H    0.082019
    17  H    0.096724
    18  H    0.116067
    19  H    0.080401
 Sum of Mulliken charges =   0.00000

 Dipole moment (field-independent basis, Debye):
    X=              0.4491    Y=              1.2956    Z=              2.0735  Tot=              2.4859
 Quadrupole moment (field-independent basis, Debye-Ang):
   XX=            -49.3604   YY=            -53.8752   ZZ=            -53.6424
   XY=             -2.2286   XZ=              0.6273   YZ=             -3.1157

  Exact polarizability:  85.332  -0.483  71.631   1.346  -1.629  65.903
 Approx polarizability: 112.375  -1.735 109.997   4.938   1.284 104.655

                      1                      2                      3
                      A                      A                      A
 Frequencies --     98.2235               164.1438               170.6495
 Red. masses --      2.6436                 2.4634                 1.2519
 Frc consts  --      0.0150                 0.0391                 0.0215
 IR Inten    --      2.3277                 0.2414                 0.4835

                      4                      5                      6
                      A                      A                      A
 Frequencies --    304.2776               346.7262               409.8869
 Red. masses --      3.6387                 4.1521                 3.1347
 Frc consts  --      0.1985                 0.2941                 0.3103
 IR Inten    --      2.5286                 1.1768                 2.9548

                      7                      8                      9
                      A                      A                      A
 Frequencies --    469.3814               511.9600               617.0676
 Red. masses --      2.8329                 2.0924                 4.7706
 Frc consts  --      0.3677                 0.3231                 1.0703
 IR Inten    --      3.4113                 0.9638                15.0250

                     10                     11                     12
                      A                      A                      A
 Frequencies --    640.0240               708.5407               768.5880
 Red. masses --      3.7914                 3.4257                 2.8970
 Frc consts  --      0.9150                 1.0133                 1.0083
 IR Inten    --      4.9489                 5.3403                13.4027

                     13                     14                     15
                      A                      A                      A
 Frequencies --    846.3947               860.0148               862.6437
 Red. masses --      3.4825                 2.5733                 2.4163
 Frc consts  --      1.4699                 1.1214                 1.0594
 IR Inten    --     13.3110                 1.7610                30.5440

                     16                     17                     18
                      A                      A                      A
 Frequencies --    898.7889               928.6799               957.8623
 Red. masses --      2.4311                 1.9370                 3.1929
 Frc consts  --      1.1571                 0.9843                 1.7260
 IR Inten    --     15.9337                 8.9046                36.5962

                     19                     20                     21
                      A                      A                      A
 Frequencies --    986.3914              1009.1909              1021.2158
 Red. masses --      2.2139                 1.9780                 1.5889
 Frc consts  --      1.2691                 1.1869                 0.9763
 IR Inten    --     10.3715                 9.7927                 2.7010

                     22                     23                     24
                      A                      A                      A
 Frequencies --   1036.2317              1074.5976              1082.9110
 Red. masses --      1.4756                 1.2957                 3.9214
 Frc consts  --      0.9335                 0.8816                 2.7094
 IR Inten    --      2.2026                 2.7290                16.5743

                     25                     26                     27
                      A                      A                      A
 Frequencies --   1094.5492              1108.5879              1178.3302
 Red. masses --      2.5333                 1.4629                 1.4654
 Frc consts  --      1.7882                 1.0592                 1.1987
 IR Inten    --     33.5515                 0.6263                15.2786

                     28                     29                     30
                      A                      A                      A
 Frequencies --   1182.3255              1199.1103              1225.3919
 Red. masses --      1.3724                 1.5734                 1.4902
 Frc consts  --      1.1303                 1.3330                 1.3184
 IR Inten    --      6.3862                23.1390                13.8035

                     31                     32                     33
                      A                      A                      A
 Frequencies --   1234.6371              1257.7198              1283.3642
 Red. masses --      1.5907                 1.8591                 1.8812
 Frc consts  --      1.4286                 1.7327                 1.8255
 IR Inten    --      2.4756                34.7838                 2.2638

                     34                     35                     36
                      A                      A                      A
 Frequencies --   1295.5991              1305.1613              1377.7332
 Red. masses --      1.6225                 1.9138                 2.0685
 Frc consts  --      1.6047                 1.9207                 2.3133
 IR Inten    --     12.5362                35.3705                67.7609

                     37                     38                     39
                      A                      A                      A
 Frequencies --   1471.2214              1486.5154              1489.1680
 Red. masses --      1.1692                 1.1419                 1.1817
 Frc consts  --      1.4911                 1.4867                 1.5440
 IR Inten    --      5.3133                 2.3566                 5.5233

                     40                     41                     42
                      A                      A                      A
 Frequencies --   1505.7360              1514.6469              2988.6778
 Red. masses --      1.0558                 1.1592                 1.0353
 Frc consts  --      1.4103                 1.5668                 5.4487
 IR Inten    --      7.1046                 7.3477                52.3316

                     43                     44                     45
                      A                      A                      A
 Frequencies --   3040.3671              3087.8084              3121.1505
 Red. masses --      1.1036                 1.0578                 1.0976
 Frc consts  --      6.0106                 5.9426                 6.3000
 IR Inten    --     44.2997                29.0854                31.5549

                     46                     47                     48
                      A                      A                      A
 Frequencies --   3128.6297              3129.2824              3132.5347
 Red. masses --      1.0615                 1.0875                 1.0884
 Frc consts  --      6.1217                 6.2746                 6.2925
 IR Inten    --     17.0148                67.6619                 4.0958

                     49                     50                     51
                      A                      A                      A
 Frequencies --   3152.2705              3198.8864              3213.3186
 Red. masses --      1.1078                 1.0946                 1.1117
 Frc consts  --      6.4857                 6.5995                 6.7633
 IR Inten    --     24.7241                 3.7284                13.2756

 - Thermochemistry -
 -------------------
 Temperature   298.150 Kelvin.  Pressure   1.00000 Atm.
 Atom     1 has atomic number  6 and mass  12.00000

 Molecular mass:   126.06808 amu.
 Principal axes and moments of inertia in atomic units:
                           1         2         3
     Eigenvalues --   549.674031232.172871380.64753
           X            0.99988  -0.01467   0.00408
           Y            0.01487   0.99833  -0.05578
           Z           -0.00325   0.05583   0.99843
 This molecule is an asymmetric top.
 Rotational symmetry number  1.
 Warning -- assumption of classical behavior for rotation
           may cause significant error
 Rotational temperatures (Kelvin)      0.15757     0.07029     0.06273
 Rotational constants (GHZ):           3.28329     1.46468     1.30717
 Zero-point vibrational energy     419752.4 (Joules/Mol)
                                  100.32322 (Kcal/Mol)
 Warning -- explicit consideration of   9 degrees of freedom as
           vibrations may cause significant error
 Vibrational temperatures:    141.32   236.17   245.53   437.79   498.86
          (Kelvin)            589.74   675.33   736.60   887.82   920.85
                             1019.43  1105.83  1217.77  1237.37  1241.15
                             1293.16  1336.16  1378.15  1419.20  1452.00
                             1469.30  1490.90  1546.10  1558.07  1574.81
                             1595.01  1695.35  1701.10  1725.25  1763.06
                             1776.37  1809.58  1846.47  1864.08  1877.83
                             1982.25  2116.76  2138.76  2142.58  2166.42
                             2179.24  4300.04  4374.40  4442.66  4490.63
                             4501.39  4502.33  4507.01  4535.41  4602.48
                             4623.24

 Zero-point correction=                           0.159875 (Hartree/Particle)
 Thermal correction to Energy=                    0.167448
 Thermal correction to Enthalpy=                  0.168392
 Thermal correction to Gibbs Free Energy=         0.127886
 Sum of electronic and zero-point Energies=           -422.953750
 Sum of electronic and thermal Energies=              -422.946177
 Sum of electronic and thermal Enthalpies=            -422.945233
 Sum of electronic and thermal Free Energies=         -422.985739

                     E (Thermal)             CV                S
                      KCal/Mol        Cal/Mol-Kelvin    Cal/Mol-Kelvin
 Total                  105.075             30.196             85.252
 Electronic               0.000              0.000              0.000
 Translational            0.889              2.981             40.409
 Rotational               0.889              2.981             28.327
 Vibrational            103.298             24.234             16.517
 Vibration     1          0.604              1.950              3.489
 Vibration     2          0.623              1.886              2.501
 Vibration     3          0.626              1.879              2.428
 Vibration     4          0.695              1.666              1.393
 Vibration     5          0.725              1.582              1.181
 Vibration     6          0.774              1.449              0.927
 Vibration     7          0.826              1.318              0.739
 Vibration     8          0.867              1.223              0.629
 Vibration     9          0.977              0.996              0.421

 Optimization completed.
    -- Stationary point found.
 Normal termination of Gaussian 09 at Tue Jan 28 10:25:13 2020.
