 Gaussian 09, Revision D.01,
 Gaussian 09:  ES64L-G09RevD.01 24-Apr-2013

 -----------------------------
 # b3lyp 6-31G(2df,p) opt Freq
 -----------------------------

 -----
 titel
 -----
 Symbolic Z-matrix:
 Charge =  0 Multiplicity = 1

 SCF Done:  E(RB3LYP) =  -423.128645733     A.U. after   14 cycles
 SCF Done:  E(RB3LYP) =  -423.128645774     A.U. after    6 cycles
 SCF Done:  E(RB3LYP) =  -423.128645813     A.U. after    7 cycles
 SCF Done:  E(RB3LYP) =  -423.128645815     A.U. after    7 cycles
 SCF Done:  E(RB3LYP) =  -423.128645904     A.U. after    6 cycles
 Optimization completed.
    -- Stationary point found.
 Normal termination of Gaussian 09 at Mon Jan 27 22:19:28 2020.

 ----------------------------------------------------------------------
 #N Geom=AllCheck Guess=TCheck SCRF=Check GenChk RB3LYP/6-31G(2df,p) Fr
 eq
 ----------------------------------------------------------------------

 Structure from the checkpoint file:  "/scratch/puck/g09_39f966a0-40cd-44e4-ac76-29c04d046d8b/Gau-72757.chk"
 -----
 titel
 -----
 Charge =  0 Multiplicity = 1

                         Standard orientation:
 ---------------------------------------------------------------------
 Center     Atomic      Atomic             Coordinates (Angstroms)
 Number     Number       Type             X           Y           Z
 ---------------------------------------------------------------------
      1          6           0       -2.797756   -0.614965    0.074292
      2          6           0       -1.538576    0.128258    0.460573
      3          6           0       -0.722322    0.877771   -0.565233
      4          8           0       -0.239325    2.135762   -0.187882
      5          6           0       -0.170510   -0.379739    0.073919
      6          8           0       -0.154112   -1.549557   -0.692566
      7          6           0        0.992798   -0.250933    1.050808
      8          6           0        2.264635   -0.209343    0.330437
      9          6           0        3.271092   -0.182210   -0.328655
     10          1           0       -3.051638   -1.372726    0.822866
     11          1           0       -3.644154    0.074947   -0.008156
     12          1           0       -2.671825   -1.127124   -0.881766
     13          1           0       -1.570076    0.624930    1.427572
     14          1           0       -1.038852    0.781344   -1.604773
     15          1           0        0.627154    2.253564   -0.593841
     16          1           0        0.664118   -1.543616   -1.205341
     17          1           0        0.873185    0.661722    1.642503
     18          1           0        0.982680   -1.100663    1.743830
     19          1           0        4.180737   -0.155053   -0.876155
 ---------------------------------------------------------------------

 SCF Done:  E(RB3LYP) =  -423.128645904     A.U. after    1 cycles

 The electronic state is 1-A.
 Alpha  occ. eigenvalues --  -19.14520 -19.14421 -10.24034 -10.22789 -10.21167
 Alpha  occ. eigenvalues --  -10.19280 -10.18922 -10.18200 -10.17363  -1.03744
 Alpha  occ. eigenvalues --   -1.02254  -0.84719  -0.78736  -0.71951  -0.69532
 Alpha  occ. eigenvalues --   -0.59578  -0.57045  -0.53736  -0.51738  -0.50689
 Alpha  occ. eigenvalues --   -0.47085  -0.45924  -0.43777  -0.41096  -0.40071
 Alpha  occ. eigenvalues --   -0.38684  -0.37490  -0.35621  -0.32114  -0.31628
 Alpha  occ. eigenvalues --   -0.28346  -0.27535  -0.26395  -0.23509
 Alpha virt. eigenvalues --    0.04120   0.04773   0.07779   0.09053   0.11778
 Alpha virt. eigenvalues --    0.12082   0.12736   0.14193   0.14844   0.16813
 Alpha virt. eigenvalues --    0.17551   0.18094   0.19168   0.20510   0.23123

 Mulliken charges:
               1
     1  C   -0.412953
     2  C   -0.089402
     3  C    0.016239
     4  O   -0.422089
     5  C    0.344220
     6  O   -0.463892
     7  C   -0.404533
     8  C    0.266186
     9  C   -0.447468
    10  H    0.119648
    11  H    0.117773
    12  H    0.133789
    13  H    0.096068
    14  H    0.086215
    15  H    0.292006
    16  H    0.285359
    17  H    0.144810
    18  H    0.137263
    19  H    0.200762
 Sum of Mulliken charges =   0.00000

 Dipole moment (field-independent basis, Debye):
    X=              1.3011    Y=              0.0501    Z=             -0.5993  Tot=              1.4334
 Quadrupole moment (field-independent basis, Debye-Ang):
   XX=            -49.1587   YY=            -58.2135   ZZ=            -49.4423
   XY=              1.2618   XZ=             -4.0578   YZ=             -1.2099

  Exact polarizability: 100.854   1.704  65.393  -9.951  -0.353  66.626
 Approx polarizability: 134.348   1.672  97.485 -22.987   0.442 105.993

                      1                      2                      3
                      A                      A                      A
 Frequencies --     40.6179               105.8308               179.2684
 Red. masses --      4.2189                 3.8076                 1.0552
 Frc consts  --      0.0041                 0.0251                 0.0200
 IR Inten    --      1.0654                 0.3786                 0.4338

                      4                      5                      6
                      A                      A                      A
 Frequencies --    198.1915               219.7356               235.1211
 Red. masses --      4.3847                 2.8345                 3.5782
 Frc consts  --      0.1015                 0.0806                 0.1165
 IR Inten    --      3.0096                 4.5507                 1.3772

                      7                      8                      9
                      A                      A                      A
 Frequencies --    290.2724               336.0033               347.4162
 Red. masses --      2.7518                 1.5806                 3.2237
 Frc consts  --      0.1366                 0.1051                 0.2292
 IR Inten    --      2.0223                29.0916                 8.2614

                     10                     11                     12
                      A                      A                      A
 Frequencies --    364.7459               393.7324               404.0917
 Red. masses --      1.5023                 1.5962                 2.3763
 Frc consts  --      0.1178                 0.1458                 0.2286
 IR Inten    --     50.4028               100.4208                52.5286

                     13                     14                     15
                      A                      A                      A
 Frequencies --    458.8844               511.3480               619.6100
 Red. masses --      4.4995                 4.2260                 3.5153
 Frc consts  --      0.5582                 0.6510                 0.7952
 IR Inten    --     24.2432                 5.1493                14.4588

                     16                     17                     18
                      A                      A                      A
 Frequencies --    628.7305               652.6413               767.9792
 Red. masses --      1.2618                 1.2424                 3.6277
 Frc consts  --      0.2939                 0.3118                 1.2606
 IR Inten    --     36.9101                40.4970                 6.9437

                     19                     20                     21
                      A                      A                      A
 Frequencies --    841.9596               890.6035               926.9241
 Red. masses --      3.0597                 2.3234                 2.1931
 Frc consts  --      1.2780                 1.0858                 1.1102
 IR Inten    --      7.6039                 3.8900                 9.8080

                     22                     23                     24
                      A                      A                      A
 Frequencies --    948.8141               983.9256              1031.4504
 Red. masses --      2.6140                 1.6403                 1.2672
 Frc consts  --      1.3865                 0.9356                 0.7943
 IR Inten    --      1.9468                 4.8608                13.4757

                     25                     26                     27
                      A                      A                      A
 Frequencies --   1074.7911              1122.8007              1141.4127
 Red. masses --      1.8855                 2.3952                 2.5692
 Frc consts  --      1.2833                 1.7791                 1.9721
 IR Inten    --     50.1811                14.3583                24.6161

                     28                     29                     30
                      A                      A                      A
 Frequencies --   1171.6874              1199.3584              1238.2404
 Red. masses --      2.2603                 1.3468                 2.3930
 Frc consts  --      1.8283                 1.1414                 2.1618
 IR Inten    --     44.2237                 5.1869                20.1327

                     31                     32                     33
                      A                      A                      A
 Frequencies --   1279.0608              1294.0369              1313.7042
 Red. masses --      1.2480                 1.3181                 1.5101
 Frc consts  --      1.2030                 1.3004                 1.5355
 IR Inten    --     73.7379                16.7964                15.1595

                     34                     35                     36
                      A                      A                      A
 Frequencies --   1354.4564              1375.5770              1415.2209
 Red. masses --      1.4022                 1.4914                 1.2710
 Frc consts  --      1.5156                 1.6627                 1.4998
 IR Inten    --      2.8770                37.3493                 0.9713

                     37                     38                     39
                      A                      A                      A
 Frequencies --   1454.7693              1482.1953              1495.5746
 Red. masses --      1.0900                 1.6641                 1.1118
 Frc consts  --      1.3591                 2.1540                 1.4652
 IR Inten    --      9.7689                12.8170                 3.8609

                     40                     41                     42
                      A                      A                      A
 Frequencies --   1508.4734              2227.8379              3037.9128
 Red. masses --      1.3458                 5.9366                 1.0536
 Frc consts  --      1.8043                17.3603                 5.7288
 IR Inten    --      5.3696                 2.4565                14.2562

                     43                     44                     45
                      A                      A                      A
 Frequencies --   3038.1941              3089.5053              3094.7647
 Red. masses --      1.0452                 1.0980                 1.0879
 Frc consts  --      5.6844                 6.1750                 6.1392
 IR Inten    --     33.9496                 2.7192                22.9072

                     46                     47                     48
                      A                      A                      A
 Frequencies --   3096.8160              3126.3591              3145.5026
 Red. masses --      1.1014                 1.0954                 1.0903
 Frc consts  --      6.2234                 6.3080                 6.3556
 IR Inten    --     24.3135                 3.5680                18.9756

                     49                     50                     51
                      A                      A                      A
 Frequencies --   3503.7486              3768.3656              3790.0328
 Red. masses --      1.1614                 1.0656                 1.0661
 Frc consts  --      8.4000                 8.9157                 9.0230
 IR Inten    --     70.5725                20.6079                20.1046

 - Thermochemistry -
 -------------------
 Temperature   298.150 Kelvin.  Pressure   1.00000 Atm.
 Atom     1 has atomic number  6 and mass  12.00000

 Molecular mass:   126.06808 amu.
 Principal axes and moments of inertia in atomic units:
                           1         2         3
     Eigenvalues --   668.332521538.221861884.63365
           X            0.99982   0.01786  -0.00710
           Y           -0.01791   0.99981  -0.00719
           Z            0.00697   0.00731   0.99995
 This molecule is an asymmetric top.
 Rotational symmetry number  1.
 Warning -- assumption of classical behavior for rotation
           may cause significant error
 Rotational temperatures (Kelvin)      0.12960     0.05631     0.04596
 Rotational constants (GHZ):           2.70036     1.17326     0.95761
 Zero-point vibrational energy     408036.0 (Joules/Mol)
                                   97.52295 (Kcal/Mol)
 Warning -- explicit consideration of  15 degrees of freedom as
           vibrations may cause significant error
 Vibrational temperatures:     58.44   152.27   257.93   285.15   316.15
          (Kelvin)            338.29   417.64   483.43   499.85   524.79
                              566.49   581.40   660.23   735.71   891.48
                              904.60   939.00  1104.95  1211.39  1281.38
                             1333.64  1365.13  1415.65  1484.03  1546.38
                             1615.46  1642.24  1685.79  1725.61  1781.55
                             1840.28  1861.83  1890.12  1948.76  1979.15
                             2036.18  2093.09  2132.55  2151.80  2170.35
                             3205.36  4370.87  4371.28  4445.10  4452.67
                             4455.62  4498.13  4525.67  5041.11  5421.83
                             5453.00

 Zero-point correction=                           0.155413 (Hartree/Particle)
 Thermal correction to Energy=                    0.165636
 Thermal correction to Enthalpy=                  0.166581
 Thermal correction to Gibbs Free Energy=         0.120352
 Sum of electronic and zero-point Energies=           -422.973233
 Sum of electronic and thermal Energies=              -422.963010
 Sum of electronic and thermal Enthalpies=            -422.962065
 Sum of electronic and thermal Free Energies=         -423.008294

                     E (Thermal)             CV                S
                      KCal/Mol        Cal/Mol-Kelvin    Cal/Mol-Kelvin
 Total                  103.938             37.986             97.296
 Electronic               0.000              0.000              0.000
 Translational            0.889              2.981             40.409
 Rotational               0.889              2.981             29.051
 Vibrational            102.161             32.025             27.836
 Vibration     1          0.594              1.981              5.229
 Vibration     2          0.605              1.945              3.344
 Vibration     3          0.629              1.868              2.336
 Vibration     4          0.637              1.842              2.150
 Vibration     5          0.647              1.811              1.961
 Vibration     6          0.655              1.787              1.840
 Vibration     7          0.686              1.692              1.472
 Vibration     8          0.717              1.604              1.231
 Vibration     9          0.725              1.581              1.178
 Vibration    10          0.738              1.545              1.102
 Vibration    11          0.761              1.484              0.986
 Vibration    12          0.769              1.461              0.948
 Vibration    13          0.817              1.341              0.769
 Vibration    14          0.866              1.225              0.630
 Vibration    15          0.980              0.990              0.417

 Normal termination of Gaussian 09 at Mon Jan 27 23:00:06 2020.
