 Gaussian 09, Revision D.01,
 Gaussian 09:  ES64L-G09RevD.01 24-Apr-2013

 -----------------------------
 # b3lyp 6-31G(2df,p) opt Freq
 -----------------------------

 -----
 titel
 -----
 Symbolic Z-matrix:
 Charge =  0 Multiplicity = 1

 SCF Done:  E(RB3LYP) =  -423.128963709     A.U. after   13 cycles
 Optimization completed.
    -- Stationary point found.
 Normal termination of Gaussian 09 at Mon Jan 27 22:04:10 2020.

 ----------------------------------------------------------------------
 #N Geom=AllCheck Guess=TCheck SCRF=Check GenChk RB3LYP/6-31G(2df,p) Fr
 eq
 ----------------------------------------------------------------------

 Structure from the checkpoint file:  "/scratch/puck/g09_ffb73469-59de-4644-925b-74d75b505933/Gau-62968.chk"
 -----
 titel
 -----
 Charge =  0 Multiplicity = 1

                         Standard orientation:
 ---------------------------------------------------------------------
 Center     Atomic      Atomic             Coordinates (Angstroms)
 Number     Number       Type             X           Y           Z
 ---------------------------------------------------------------------
      1          6           0        0.165012    2.157399   -0.119383
      2          6           0        0.112173    0.724620   -0.635409
      3          6           0        1.202592   -0.206748   -0.051964
      4          8           0        2.379039    0.251723    0.511836
      5          6           0        1.004570   -1.619144   -0.507177
      6          6           0        0.154851   -1.080448    0.633487
      7          6           0       -0.921603   -0.191282    0.065876
      8          6           0       -2.222107    0.160837    0.631620
      9          8           0       -2.117147   -0.668172   -0.536033
     10          1           0       -0.711941    2.723653   -0.448089
     11          1           0        0.202414    2.183348    0.974018
     12          1           0        1.056937    2.671149   -0.491342
     13          1           0        0.041777    0.709818   -1.729698
     14          1           0        3.058711    0.261832   -0.171111
     15          1           0        0.554347   -1.852338   -1.468913
     16          1           0        1.779529   -2.307389   -0.184307
     17          1           0        0.164886   -1.539454    1.614202
     18          1           0       -2.574656   -0.343376    1.531210
     19          1           0       -2.640072    1.152946    0.465310
 ---------------------------------------------------------------------

 SCF Done:  E(RB3LYP) =  -423.128963709     A.U. after    1 cycles

 The electronic state is 1-A.
 Alpha  occ. eigenvalues --  -19.15388 -19.14336 -10.24404 -10.23927 -10.22878
 Alpha  occ. eigenvalues --  -10.19192 -10.19064 -10.18964 -10.17662  -1.06479
 Alpha  occ. eigenvalues --   -1.03967  -0.88938  -0.76157  -0.67591  -0.65474
 Alpha  occ. eigenvalues --   -0.61600  -0.59663  -0.53632  -0.51061  -0.49527
 Alpha  occ. eigenvalues --   -0.47583  -0.44803  -0.43221  -0.42074  -0.39961
 Alpha  occ. eigenvalues --   -0.38542  -0.36883  -0.35490  -0.34068  -0.32917
 Alpha  occ. eigenvalues --   -0.30253  -0.26164  -0.25969  -0.25132
 Alpha virt. eigenvalues --    0.06974   0.08736   0.10249   0.11066   0.12304
 Alpha virt. eigenvalues --    0.13022   0.14102   0.15600   0.15974   0.16172
 Alpha virt. eigenvalues --    0.17548   0.18591   0.18981   0.20505   0.21846

 Mulliken charges:
               1
     1  C   -0.398226
     2  C   -0.174354
     3  C    0.401956
     4  O   -0.459733
     5  C   -0.355002
     6  C   -0.214142
     7  C    0.480806
     8  C   -0.273426
     9  O   -0.282152
    10  H    0.115048
    11  H    0.122956
    12  H    0.114501
    13  H    0.074367
    14  H    0.288753
    15  H    0.118440
    16  H    0.115145
    17  H    0.097392
    18  H    0.113577
    19  H    0.114093
 Sum of Mulliken charges =   0.00000

 Dipole moment (field-independent basis, Debye):
    X=              1.4455    Y=              0.6509    Z=             -0.0291  Tot=              1.5856
 Quadrupole moment (field-independent basis, Debye-Ang):
   XX=            -51.8480   YY=            -52.8793   ZZ=            -52.8696
   XY=             -3.6865   XZ=             -6.9865   YZ=             -1.9063

  Exact polarizability:  84.779  -3.450  76.715  -5.792  -0.723  65.145
 Approx polarizability: 118.048  -0.628 105.750  -5.691   1.511 104.042

                      1                      2                      3
                      A                      A                      A
 Frequencies --     92.9418               202.9276               221.0371
 Red. masses --      4.0756                 2.6187                 1.1419
 Frc consts  --      0.0207                 0.0635                 0.0329
 IR Inten    --      2.4774                 2.8806                 0.6512

                      4                      5                      6
                      A                      A                      A
 Frequencies --    224.1155               250.6210               280.0610
 Red. masses --      2.7006                 1.8064                 1.6916
 Frc consts  --      0.0799                 0.0669                 0.0782
 IR Inten    --      0.5956                66.3995                27.6038

                      7                      8                      9
                      A                      A                      A
 Frequencies --    311.3818               397.8172               427.0421
 Red. masses --      2.8362                 3.7361                 2.7244
 Frc consts  --      0.1620                 0.3484                 0.2927
 IR Inten    --      2.6725                15.6456                 1.2271

                     10                     11                     12
                      A                      A                      A
 Frequencies --    470.2336               533.4916               579.3653
 Red. masses --      3.7212                 3.3355                 3.4363
 Frc consts  --      0.4848                 0.5593                 0.6796
 IR Inten    --      0.6182                 2.6228                 9.5832

                     13                     14                     15
                      A                      A                      A
 Frequencies --    677.0148               782.6546               817.1675
 Red. masses --      2.7823                 2.5785                 3.0817
 Frc consts  --      0.7514                 0.9306                 1.2125
 IR Inten    --      1.0858                15.1819                22.0749

                     16                     17                     18
                      A                      A                      A
 Frequencies --    856.5405               870.4571               930.4681
 Red. masses --      2.8008                 1.8936                 2.7210
 Frc consts  --      1.2107                 0.8453                 1.3880
 IR Inten    --     38.0090                10.5208                 5.7660

                     19                     20                     21
                      A                      A                      A
 Frequencies --    949.2103               965.8446               994.4166
 Red. masses --      1.3724                 2.3856                 1.3612
 Frc consts  --      0.7286                 1.3112                 0.7930
 IR Inten    --      3.3902                17.7298                 1.2484

                     22                     23                     24
                      A                      A                      A
 Frequencies --   1037.0117              1065.8466              1069.9521
 Red. masses --      1.6893                 1.7342                 1.8162
 Frc consts  --      1.0704                 1.1608                 1.2250
 IR Inten    --      4.4839                33.3118                12.4619

                     25                     26                     27
                      A                      A                      A
 Frequencies --   1079.0015              1122.9356              1139.3153
 Red. masses --      1.5406                 1.3101                 2.4338
 Frc consts  --      1.0568                 0.9733                 1.8613
 IR Inten    --      2.5943                 3.1845                 0.7664

                     28                     29                     30
                      A                      A                      A
 Frequencies --   1160.1339              1166.6239              1231.6891
 Red. masses --      1.4626                 1.8613                 2.0304
 Frc consts  --      1.1598                 1.4925                 1.8148
 IR Inten    --      1.4471                 4.0193                61.6338

                     31                     32                     33
                      A                      A                      A
 Frequencies --   1238.7706              1264.5695              1303.7452
 Red. masses --      1.5932                 2.5178                 1.6158
 Frc consts  --      1.4404                 2.3722                 1.6182
 IR Inten    --      6.1291                13.0302                57.4523

                     34                     35                     36
                      A                      A                      A
 Frequencies --   1355.6957              1398.5140              1410.1881
 Red. masses --      1.6384                 1.9068                 1.4199
 Frc consts  --      1.7741                 2.1973                 1.6636
 IR Inten    --      0.5850                24.3491                16.9053

                     37                     38                     39
                      A                      A                      A
 Frequencies --   1444.0782              1488.7785              1494.2399
 Red. masses --      2.0251                 1.1747                 1.0622
 Frc consts  --      2.4881                 1.5340                 1.3973
 IR Inten    --     18.3421                 4.4350                 6.7835

                     40                     41                     42
                      A                      A                      A
 Frequencies --   1499.9543              1540.1404              3032.2197
 Red. masses --      1.2285                 1.6771                 1.0821
 Frc consts  --      1.6285                 2.3438                 5.8622
 IR Inten    --     11.6361                 8.7958                26.3986

                     43                     44                     45
                      A                      A                      A
 Frequencies --   3037.1486              3077.4674              3105.2427
 Red. masses --      1.0367                 1.0505                 1.1013
 Frc consts  --      5.6345                 5.8617                 6.2567
 IR Inten    --     21.9681                27.0697                24.6140

                     46                     47                     48
                      A                      A                      A
 Frequencies --   3110.6120              3110.8940              3161.8557
 Red. masses --      1.0652                 1.0911                 1.1188
 Frc consts  --      6.0727                 6.2212                 6.5903
 IR Inten    --     22.0121                18.1058                22.7250

                     49                     50                     51
                      A                      A                      A
 Frequencies --   3191.5800              3205.5607              3794.9067
 Red. masses --      1.0963                 1.1125                 1.0662
 Frc consts  --      6.5796                 6.7355                 9.0463
 IR Inten    --      5.8919                10.1362                26.4218

 - Thermochemistry -
 -------------------
 Temperature   298.150 Kelvin.  Pressure   1.00000 Atm.
 Atom     1 has atomic number  6 and mass  12.00000

 Molecular mass:   126.06808 amu.
 Principal axes and moments of inertia in atomic units:
                           1         2         3
     Eigenvalues --   670.352391174.408961571.50087
           X            0.99894  -0.03801  -0.02595
           Y            0.03782   0.99925  -0.00768
           Z            0.02622   0.00669   0.99963
 This molecule is an asymmetric top.
 Rotational symmetry number  1.
 Warning -- assumption of classical behavior for rotation
           may cause significant error
 Rotational temperatures (Kelvin)      0.12921     0.07375     0.05512
 Rotational constants (GHZ):           2.69223     1.53672     1.14842
 Zero-point vibrational energy     413749.3 (Joules/Mol)
                                   98.88846 (Kcal/Mol)
 Warning -- explicit consideration of  12 degrees of freedom as
           vibrations may cause significant error
 Vibrational temperatures:    133.72   291.97   318.02   322.45   360.59
          (Kelvin)            402.94   448.01   572.37   614.42   676.56
                              767.57   833.58   974.07  1126.06  1175.72
                             1232.37  1252.39  1338.73  1365.70  1389.63
                             1430.74  1492.03  1533.51  1539.42  1552.44
                             1615.65  1639.22  1669.17  1678.51  1772.12
                             1782.31  1819.43  1875.80  1950.54  2012.15
                             2028.94  2077.70  2142.02  2149.88  2158.10
                             2215.92  4362.68  4369.77  4427.78  4467.75
                             4475.47  4475.88  4549.20  4591.97  4612.08
                             5460.02

 Zero-point correction=                           0.157589 (Hartree/Particle)
 Thermal correction to Energy=                    0.166207
 Thermal correction to Enthalpy=                  0.167151
 Thermal correction to Gibbs Free Energy=         0.124812
 Sum of electronic and zero-point Energies=           -422.971375
 Sum of electronic and thermal Energies=              -422.962757
 Sum of electronic and thermal Enthalpies=            -422.961813
 Sum of electronic and thermal Free Energies=         -423.004151

                     E (Thermal)             CV                S
                      KCal/Mol        Cal/Mol-Kelvin    Cal/Mol-Kelvin
 Total                  104.296             33.539             89.109
 Electronic               0.000              0.000              0.000
 Translational            0.889              2.981             40.409
 Rotational               0.889              2.981             28.605
 Vibrational            102.519             27.577             20.095
 Vibration     1          0.602              1.954              3.597
 Vibration     2          0.639              1.836              2.106
 Vibration     3          0.648              1.809              1.951
 Vibration     4          0.649              1.804              1.926
 Vibration     5          0.663              1.762              1.726
 Vibration     6          0.680              1.710              1.533
 Vibration     7          0.700              1.652              1.355
 Vibration     8          0.764              1.475              0.971
 Vibration     9          0.789              1.411              0.868
 Vibration    10          0.827              1.316              0.737
 Vibration    11          0.888              1.176              0.579
 Vibration    12          0.936              1.076              0.487

 Optimization completed.
    -- Stationary point found.
 Normal termination of Gaussian 09 at Mon Jan 27 22:50:02 2020.
