 Gaussian 09, Revision D.01,
 Gaussian 09:  ES64L-G09RevD.01 24-Apr-2013

 -----------------------------
 # b3lyp 6-31G(2df,p) opt Freq
 -----------------------------

 -----
 titel
 -----
 Symbolic Z-matrix:
 Charge =  0 Multiplicity = 1

 SCF Done:  E(RB3LYP) =  -423.099734254     A.U. after   13 cycles
 Optimization completed.
    -- Stationary point found.
 Normal termination of Gaussian 09 at Mon Jan 27 17:06:19 2020.

 ----------------------------------------------------------------------
 #N Geom=AllCheck Guess=TCheck SCRF=Check GenChk RB3LYP/6-31G(2df,p) Fr
 eq
 ----------------------------------------------------------------------

 Structure from the checkpoint file:  "/scratch/puck/g09_6704b9ad-f86e-490a-88d6-4e9e41c0047e/Gau-59775.chk"
 -----
 titel
 -----
 Charge =  0 Multiplicity = 1

                         Standard orientation:
 ---------------------------------------------------------------------
 Center     Atomic      Atomic             Coordinates (Angstroms)
 Number     Number       Type             X           Y           Z
 ---------------------------------------------------------------------
      1          6           0        2.928022   -0.552706   -0.273110
      2          6           0        1.553337   -0.019194   -0.023523
      3          6           0        0.890356    0.442573    1.303638
      4          6           0       -0.195361    0.344217    0.201889
      5          6           0        0.754627    1.071933   -0.784269
      6          8           0        0.398239   -0.944238   -0.226354
      7          6           0       -1.673309    0.436689    0.333602
      8          6           0       -2.514883   -0.765429    0.287757
      9          8           0       -2.436517    0.121313   -0.831014
     10          1           0        3.675307    0.224888   -0.086299
     11          1           0        3.137121   -1.400363    0.386369
     12          1           0        3.026279   -0.886077   -1.310517
     13          1           0        0.830409   -0.320960    2.080896
     14          1           0        1.146162    1.432613    1.690812
     15          1           0        0.563842    0.860616   -1.836698
     16          1           0        0.998080    2.119573   -0.588728
     17          1           0       -2.025235    1.309523    0.885904
     18          1           0       -2.034029   -1.730409    0.147585
     19          1           0       -3.468451   -0.774501    0.813717
 ---------------------------------------------------------------------

 SCF Done:  E(RB3LYP) =  -423.099734254     A.U. after    1 cycles

 The electronic state is 1-A.
 Alpha  occ. eigenvalues --  -19.14992 -19.12675 -10.25322 -10.25147 -10.24038
 Alpha  occ. eigenvalues --  -10.23239 -10.19197 -10.18858 -10.18528  -1.07277
 Alpha  occ. eigenvalues --   -1.04964  -0.79395  -0.74964  -0.69760  -0.68000
 Alpha  occ. eigenvalues --   -0.64926  -0.56782  -0.54048  -0.50485  -0.48572
 Alpha  occ. eigenvalues --   -0.45412  -0.45271  -0.43297  -0.42171  -0.41174
 Alpha  occ. eigenvalues --   -0.39412  -0.36915  -0.35065  -0.33499  -0.32518
 Alpha  occ. eigenvalues --   -0.31963  -0.29357  -0.26494  -0.23574
 Alpha virt. eigenvalues --    0.08375   0.09392   0.10047   0.11379   0.12055
 Alpha virt. eigenvalues --    0.13048   0.13894   0.14632   0.15527   0.15697
 Alpha virt. eigenvalues --    0.16398   0.17079   0.18074   0.18883   0.19145

 Mulliken charges:
               1
     1  C   -0.508700
     2  C    0.398335
     3  C   -0.302491
     4  C    0.433742
     5  C   -0.294441
     6  O   -0.370508
     7  C   -0.101196
     8  C   -0.170928
     9  O   -0.230310
    10  H    0.126923
    11  H    0.133276
    12  H    0.136032
    13  H    0.104364
    14  H    0.092372
    15  H    0.115590
    16  H    0.091026
    17  H    0.096021
    18  H    0.137194
    19  H    0.113698
 Sum of Mulliken charges =   0.00000

 Dipole moment (field-independent basis, Debye):
    X=              1.3534    Y=              1.0503    Z=              1.9002  Tot=              2.5584
 Quadrupole moment (field-independent basis, Debye-Ang):
   XX=            -50.4168   YY=            -52.4720   ZZ=            -53.8228
   XY=              1.6903   XZ=             -4.5311   YZ=             -0.0079

  Exact polarizability:  90.492   2.828  71.266  -2.305  -0.168  67.946
 Approx polarizability: 113.574   5.683 112.913   0.650   0.941 105.387

                      1                      2                      3
                      A                      A                      A
 Frequencies --     59.6970               136.8105               155.9960
 Red. masses --      3.6043                 4.4491                 2.8831
 Frc consts  --      0.0076                 0.0491                 0.0413
 IR Inten    --      2.7194                 0.8463                 2.9203

                      4                      5                      6
                      A                      A                      A
 Frequencies --    194.6240               295.1988               302.3610
 Red. masses --      1.0567                 3.2590                 2.7886
 Frc consts  --      0.0236                 0.1673                 0.1502
 IR Inten    --      0.1206                 0.6669                 3.5933

                      7                      8                      9
                      A                      A                      A
 Frequencies --    411.2939               458.4178               522.1560
 Red. masses --      3.6187                 3.2739                 1.8578
 Frc consts  --      0.3607                 0.4054                 0.2984
 IR Inten    --      5.2195                 1.5786                 2.8803

                     10                     11                     12
                      A                      A                      A
 Frequencies --    599.8246               617.1852               658.0750
 Red. masses --      2.7680                 2.9900                 3.7749
 Frc consts  --      0.5868                 0.6711                 0.9632
 IR Inten    --      5.0902                 4.6560                30.4175

                     13                     14                     15
                      A                      A                      A
 Frequencies --    714.5536               790.3764               859.1957
 Red. masses --      3.4886                 2.5559                 8.7279
 Frc consts  --      1.0495                 0.9407                 3.7961
 IR Inten    --     15.6160                 1.5342                20.2266

                     16                     17                     18
                      A                      A                      A
 Frequencies --    892.5667               916.7833               950.6408
 Red. masses --      1.9628                 3.0786                 1.9894
 Frc consts  --      0.9213                 1.5245                 1.0593
 IR Inten    --     18.5146                19.2855                 1.3006

                     19                     20                     21
                      A                      A                      A
 Frequencies --    955.7798               987.6584              1008.0809
 Red. masses --      4.8873                 1.3334                 1.4937
 Frc consts  --      2.6305                 0.7664                 0.8943
 IR Inten    --     10.7821                 0.3372                13.9477

                     22                     23                     24
                      A                      A                      A
 Frequencies --   1064.9222              1079.8783              1105.7067
 Red. masses --      1.9040                 1.2356                 1.6602
 Frc consts  --      1.2722                 0.8489                 1.1959
 IR Inten    --     21.3270                 1.6132                 3.0975

                     25                     26                     27
                      A                      A                      A
 Frequencies --   1120.4620              1126.5341              1157.1944
 Red. masses --      1.6410                 1.3884                 1.3874
 Frc consts  --      1.2138                 1.0381                 1.0946
 IR Inten    --      0.7761                 0.2066                 0.7478

                     28                     29                     30
                      A                      A                      A
 Frequencies --   1160.4698              1168.4071              1181.8978
 Red. masses --      1.4185                 1.3788                 1.9597
 Frc consts  --      1.1255                 1.1090                 1.6129
 IR Inten    --      1.5357                 0.7341                 8.5363

                     31                     32                     33
                      A                      A                      A
 Frequencies --   1205.7235              1270.3876              1284.3762
 Red. masses --      2.6820                 2.7781                 1.5667
 Frc consts  --      2.2973                 2.6416                 1.5227
 IR Inten    --      8.9102                52.5151                21.2078

                     34                     35                     36
                      A                      A                      A
 Frequencies --   1351.3868              1412.1472              1447.0704
 Red. masses --      1.9850                 1.5203                 1.8413
 Frc consts  --      2.1359                 1.7863                 2.2717
 IR Inten    --      4.0345                11.0811                 3.9965

                     37                     38                     39
                      A                      A                      A
 Frequencies --   1465.3028              1477.3625              1488.6768
 Red. masses --      1.1260                 1.0471                 1.0467
 Frc consts  --      1.4244                 1.3465                 1.3667
 IR Inten    --      1.5754                 3.5038                 4.6632

                     40                     41                     42
                      A                      A                      A
 Frequencies --   1517.1580              1530.2045              3039.9475
 Red. masses --      1.2831                 1.7394                 1.0347
 Frc consts  --      1.7400                 2.3996                 5.6338
 IR Inten    --      2.3912                 3.6591                16.3737

                     43                     44                     45
                      A                      A                      A
 Frequencies --   3054.3693              3065.7597              3091.1586
 Red. masses --      1.0568                 1.0570                 1.0540
 Frc consts  --      5.8088                 5.8532                 5.9336
 IR Inten    --     29.6873                31.8062                25.1849

                     46                     47                     48
                      A                      A                      A
 Frequencies --   3100.8764              3114.2227              3116.4231
 Red. masses --      1.0844                 1.1010                 1.1019
 Frc consts  --      6.1437                 6.2915                 6.3051
 IR Inten    --     25.1979                10.5614                11.2164

                     49                     50                     51
                      A                      A                      A
 Frequencies --   3140.5789              3151.8829              3190.6429
 Red. masses --      1.1096                 1.1095                 1.1188
 Frc consts  --      6.4482                 6.4938                 6.7106
 IR Inten    --     21.7179                22.6973                15.6917

 - Thermochemistry -
 -------------------
 Temperature   298.150 Kelvin.  Pressure   1.00000 Atm.
 Atom     1 has atomic number  6 and mass  12.00000

 Molecular mass:   126.06808 amu.
 Principal axes and moments of inertia in atomic units:
                           1         2         3
     Eigenvalues --   422.254521676.866251687.88974
           X            0.99986   0.00262  -0.01655
           Y           -0.00371   0.99780  -0.06622
           Z            0.01634   0.06627   0.99767
 This molecule is an asymmetric top.
 Rotational symmetry number  1.
 Rotational temperatures (Kelvin)      0.20512     0.05165     0.05131
 Rotational constants (GHZ):           4.27406     1.07626     1.06923
 Zero-point vibrational energy     413718.9 (Joules/Mol)
                                   98.88120 (Kcal/Mol)
 Warning -- explicit consideration of  11 degrees of freedom as
           vibrations may cause significant error
 Vibrational temperatures:     85.89   196.84   224.44   280.02   424.72
          (Kelvin)            435.03   591.76   659.56   751.27   863.01
                              887.99   946.82  1028.08  1137.17  1236.19
                             1284.20  1319.05  1367.76  1375.15  1421.02
                             1450.40  1532.18  1553.70  1590.86  1612.09
                             1620.83  1664.94  1669.66  1681.08  1700.49
                             1734.76  1827.80  1847.93  1944.34  2031.76
                             2082.01  2108.24  2125.59  2141.87  2182.85
                             2201.62  4373.80  4394.55  4410.94  4447.48
                             4461.46  4480.67  4483.83  4518.59  4534.85
                             4590.62

 Zero-point correction=                           0.157577 (Hartree/Particle)
 Thermal correction to Energy=                    0.165952
 Thermal correction to Enthalpy=                  0.166896
 Thermal correction to Gibbs Free Energy=         0.124358
 Sum of electronic and zero-point Energies=           -422.942157
 Sum of electronic and thermal Energies=              -422.933782
 Sum of electronic and thermal Enthalpies=            -422.932838
 Sum of electronic and thermal Free Energies=         -422.975376

                     E (Thermal)             CV                S
                      KCal/Mol        Cal/Mol-Kelvin    Cal/Mol-Kelvin
 Total                  104.136             32.046             89.528
 Electronic               0.000              0.000              0.000
 Translational            0.889              2.981             40.409
 Rotational               0.889              2.981             28.571
 Vibrational            102.359             26.084             20.549
 Vibration     1          0.597              1.974              4.467
 Vibration     2          0.614              1.917              2.848
 Vibration     3          0.620              1.896              2.598
 Vibration     4          0.635              1.847              2.183
 Vibration     5          0.689              1.683              1.444
 Vibration     6          0.694              1.669              1.404
 Vibration     7          0.775              1.446              0.922
 Vibration     8          0.816              1.342              0.771
 Vibration     9          0.877              1.201              0.605
 Vibration    10          0.958              1.032              0.450
 Vibration    11          0.977              0.996              0.421

 Normal termination of Gaussian 09 at Mon Jan 27 17:48:00 2020.
