 Gaussian 09, Revision D.01,
 Gaussian 09:  ES64L-G09RevD.01 24-Apr-2013

 -----------------------------
 # b3lyp 6-31G(2df,p) opt Freq
 -----------------------------

 -----
 titel
 -----
 Symbolic Z-matrix:
 Charge =  0 Multiplicity = 1

 SCF Done:  E(RB3LYP) =  -423.173707118     A.U. after   14 cycles
 Optimization completed.
    -- Stationary point found.
 Normal termination of Gaussian 09 at Tue Jan 28 14:11:09 2020.

 ----------------------------------------------------------------------
 #N Geom=AllCheck Guess=TCheck SCRF=Check GenChk RB3LYP/6-31G(2df,p) Fr
 eq
 ----------------------------------------------------------------------

 Structure from the checkpoint file:  "/scratch/puck/g09_6691511b-938b-4c24-922d-8751aadda0b8/Gau-34142.chk"
 -----
 titel
 -----
 Charge =  0 Multiplicity = 1

                         Standard orientation:
 ---------------------------------------------------------------------
 Center     Atomic      Atomic             Coordinates (Angstroms)
 Number     Number       Type             X           Y           Z
 ---------------------------------------------------------------------
      1          8           0        2.814736    0.016183   -0.610542
      2          6           0        1.931315   -0.881470    0.040179
      3          6           0        0.486744   -0.661323   -0.366368
      4          6           0       -0.585880   -0.780286    0.704588
      5          6           0       -2.026924   -1.046566    0.279714
      6          6           0       -2.382083    0.160826   -0.567454
      7          6           0       -1.387273    1.049190   -0.623211
      8          6           0       -0.191721    0.583319    0.139588
      9          8           0        0.628116    1.514162    0.787526
     10          1           0        2.557196    0.897575   -0.315272
     11          1           0        2.251029   -1.889234   -0.246126
     12          1           0        2.025116   -0.805230    1.133228
     13          1           0        0.238998   -0.968442   -1.379547
     14          1           0       -0.253921   -1.080018    1.692237
     15          1           0       -2.122963   -1.979080   -0.292044
     16          1           0       -2.699564   -1.145899    1.142216
     17          1           0       -3.327330    0.242986   -1.091894
     18          1           0       -1.389001    1.984726   -1.170855
     19          1           0        0.112565    1.957717    1.469969
 ---------------------------------------------------------------------

 SCF Done:  E(RB3LYP) =  -423.173707118     A.U. after    1 cycles

 The electronic state is 1-A.
 Alpha  occ. eigenvalues --  -19.15678 -19.11670 -10.24068 -10.21911 -10.19260
 Alpha  occ. eigenvalues --  -10.19069 -10.18670 -10.18653 -10.18312  -1.04035
 Alpha  occ. eigenvalues --   -0.99896  -0.88138  -0.77741  -0.70723  -0.67805
 Alpha  occ. eigenvalues --   -0.58408  -0.58007  -0.55555  -0.52366  -0.48157
 Alpha  occ. eigenvalues --   -0.46477  -0.44859  -0.43513  -0.40646  -0.40475
 Alpha  occ. eigenvalues --   -0.38182  -0.37567  -0.35731  -0.33933  -0.31294
 Alpha  occ. eigenvalues --   -0.30160  -0.26200  -0.25284  -0.23187
 Alpha virt. eigenvalues --    0.00889   0.07511   0.10256   0.11117   0.12160
 Alpha virt. eigenvalues --    0.13549   0.14340   0.15254   0.16473   0.17401
 Alpha virt. eigenvalues --    0.18631   0.19455   0.20498   0.21386   0.23003

 Mulliken charges:
               1
     1  O   -0.428320
     2  C   -0.087395
     3  C   -0.072310
     4  C   -0.154912
     5  C   -0.289489
     6  C   -0.070774
     7  C   -0.167062
     8  C    0.379683
     9  O   -0.481077
    10  H    0.293491
    11  H    0.105053
    12  H    0.085140
    13  H    0.090124
    14  H    0.088694
    15  H    0.116346
    16  H    0.108265
    17  H    0.098819
    18  H    0.099606
    19  H    0.286117
 Sum of Mulliken charges =   0.00000

 Dipole moment (field-independent basis, Debye):
    X=             -2.7377    Y=              0.3312    Z=              1.4856  Tot=              3.1324
 Quadrupole moment (field-independent basis, Debye-Ang):
   XX=            -59.0206   YY=            -49.2620   ZZ=            -51.3519
   XY=              0.2105   XZ=              2.6230   YZ=              1.2647

  Exact polarizability:  90.971   3.955  75.978   1.544  -2.779  63.040
 Approx polarizability: 125.610  13.573 118.647  -1.530  -3.230  97.671

                      1                      2                      3
                      A                      A                      A
 Frequencies --     97.9579               147.3485               208.7924
 Red. masses --      3.9176                 5.1875                 2.4962
 Frc consts  --      0.0221                 0.0664                 0.0641
 IR Inten    --      2.0355                 0.3254                 2.8911

                      4                      5                      6
                      A                      A                      A
 Frequencies --    249.5179               296.9410               322.1095
 Red. masses --      2.9181                 1.3209                 1.8059
 Frc consts  --      0.1070                 0.0686                 0.1104
 IR Inten    --      0.5092                43.9723                47.9714

                      7                      8                      9
                      A                      A                      A
 Frequencies --    373.3641               402.0674               470.8881
 Red. masses --      4.0616                 3.6815                 1.2529
 Frc consts  --      0.3336                 0.3507                 0.1637
 IR Inten    --      5.6499                12.4707                79.1584

                     10                     11                     12
                      A                      A                      A
 Frequencies --    492.2216               538.9606               665.9475
 Red. masses --      1.8737                 3.4390                 4.8279
 Frc consts  --      0.2675                 0.5886                 1.2615
 IR Inten    --     22.2433                 2.5898                10.4891

                     13                     14                     15
                      A                      A                      A
 Frequencies --    732.0244               745.0359               766.9245
 Red. masses --      2.1344                 1.9051                 4.0002
 Frc consts  --      0.6739                 0.6231                 1.3862
 IR Inten    --     12.1740                17.0259                 2.9934

                     16                     17                     18
                      A                      A                      A
 Frequencies --    858.0765               901.6775               914.4591
 Red. masses --      2.6287                 1.9411                 2.9065
 Frc consts  --      1.1404                 0.9298                 1.4320
 IR Inten    --     17.5214                 7.9896                 1.9540

                     19                     20                     21
                      A                      A                      A
 Frequencies --    956.4113               962.6284              1000.0126
 Red. masses --      1.4391                 1.3902                 1.8434
 Frc consts  --      0.7756                 0.7590                 1.0861
 IR Inten    --      7.1920                 5.2835                 8.2599

                     22                     23                     24
                      A                      A                      A
 Frequencies --   1027.0531              1043.9971              1072.0986
 Red. masses --      2.2695                 1.9108                 3.3731
 Frc consts  --      1.4105                 1.2270                 2.2842
 IR Inten    --      8.3242                 6.3398               109.3516

                     25                     26                     27
                      A                      A                      A
 Frequencies --   1089.5794              1105.4565              1125.1406
 Red. masses --      1.9765                 1.7938                 1.2466
 Frc consts  --      1.3825                 1.2915                 0.9298
 IR Inten    --      7.9105                22.4999                 1.5168

                     28                     29                     30
                      A                      A                      A
 Frequencies --   1172.0551              1210.1664              1222.7087
 Red. masses --      1.2688                 1.4455                 1.5322
 Frc consts  --      1.0269                 1.2472                 1.3496
 IR Inten    --      6.1777                12.1152                43.4479

                     31                     32                     33
                      A                      A                      A
 Frequencies --   1267.6509              1276.5758              1316.1412
 Red. masses --      1.7548                 1.6902                 1.3747
 Frc consts  --      1.6614                 1.6229                 1.4030
 IR Inten    --     40.4658                51.4134                 4.0645

                     34                     35                     36
                      A                      A                      A
 Frequencies --   1319.6477              1372.0085              1406.8578
 Red. masses --      1.5400                 1.8270                 1.3468
 Frc consts  --      1.5801                 2.0263                 1.5705
 IR Inten    --      3.4541                25.2699                 6.8193

                     37                     38                     39
                      A                      A                      A
 Frequencies --   1431.2684              1442.4470              1475.6363
 Red. masses --      1.5038                 1.9424                 1.1021
 Frc consts  --      1.8150                 2.3812                 1.4139
 IR Inten    --     55.1295                49.0196                 3.3673

                     40                     41                     42
                      A                      A                      A
 Frequencies --   1497.2570              1665.6588              2995.5099
 Red. masses --      1.0855                 6.3447                 1.0674
 Frc consts  --      1.4337                10.3713                 5.6430
 IR Inten    --      0.6416                 5.4660                47.1255

                     43                     44                     45
                      A                      A                      A
 Frequencies --   3015.0008              3042.1598              3068.3996
 Red. masses --      1.0603                 1.1010                 1.0951
 Frc consts  --      5.6789                 6.0033                 6.0745
 IR Inten    --     42.6862                18.5572                35.2778

                     46                     47                     48
                      A                      A                      A
 Frequencies --   3138.1997              3174.5353              3188.1429
 Red. masses --      1.0895                 1.0897                 1.0847
 Frc consts  --      6.3217                 6.4704                 6.4960
 IR Inten    --     14.0294                11.5666                 4.5822

                     49                     50                     51
                      A                      A                      A
 Frequencies --   3212.4646              3795.0452              3796.1046
 Red. masses --      1.1043                 1.0661                 1.0658
 Frc consts  --      6.7144                 9.0462                 9.0490
 IR Inten    --     17.4966                45.2560                 6.5234

 - Thermochemistry -
 -------------------
 Temperature   298.150 Kelvin.  Pressure   1.00000 Atm.
 Atom     1 has atomic number  8 and mass  15.99491

 Molecular mass:   126.06808 amu.
 Principal axes and moments of inertia in atomic units:
                           1         2         3
     Eigenvalues --   554.005801471.728181700.70427
           X            0.99995   0.00211   0.00957
           Y           -0.00186   0.99966  -0.02592
           Z           -0.00962   0.02590   0.99962
 This molecule is an asymmetric top.
 Rotational symmetry number  1.
 Warning -- assumption of classical behavior for rotation
           may cause significant error
 Rotational temperatures (Kelvin)      0.15634     0.05885     0.05093
 Rotational constants (GHZ):           3.25762     1.22627     1.06117
 Zero-point vibrational energy     419101.7 (Joules/Mol)
                                  100.16771 (Kcal/Mol)
 Warning -- explicit consideration of  11 degrees of freedom as
           vibrations may cause significant error
 Vibrational temperatures:    140.94   212.00   300.41   359.00   427.23
          (Kelvin)            463.44   537.19   578.48   677.50   708.20
                              775.44   958.15  1053.22  1071.94  1103.43
                             1234.58  1297.31  1315.70  1376.06  1385.01
                             1438.79  1477.70  1502.08  1542.51  1567.66
                             1590.50  1618.82  1686.32  1741.16  1759.20
                             1823.86  1836.71  1893.63  1898.68  1974.01
                             2024.15  2059.27  2075.36  2123.11  2154.22
                             2396.51  4309.87  4337.91  4376.98  4414.74
                             4515.16  4567.44  4587.02  4622.01  5460.22
                             5461.74

 Zero-point correction=                           0.159627 (Hartree/Particle)
 Thermal correction to Energy=                    0.168020
 Thermal correction to Enthalpy=                  0.168964
 Thermal correction to Gibbs Free Energy=         0.126933
 Sum of electronic and zero-point Energies=           -423.014080
 Sum of electronic and thermal Energies=              -423.005687
 Sum of electronic and thermal Enthalpies=            -423.004743
 Sum of electronic and thermal Free Energies=         -423.046774

                     E (Thermal)             CV                S
                      KCal/Mol        Cal/Mol-Kelvin    Cal/Mol-Kelvin
 Total                  105.434             32.968             88.462
 Electronic               0.000              0.000              0.000
 Translational            0.889              2.981             40.409
 Rotational               0.889              2.981             28.718
 Vibrational            103.657             27.007             19.335
 Vibration     1          0.603              1.951              3.495
 Vibration     2          0.617              1.906              2.706
 Vibration     3          0.642              1.827              2.054
 Vibration     4          0.662              1.764              1.734
 Vibration     5          0.691              1.679              1.434
 Vibration     6          0.707              1.631              1.299
 Vibration     7          0.745              1.527              1.066
 Vibration     8          0.768              1.466              0.955
 Vibration     9          0.828              1.315              0.735
 Vibration    10          0.848              1.267              0.678
 Vibration    11          0.894              1.164              0.568

 Normal termination of Gaussian 09 at Tue Jan 28 14:52:58 2020.
