 Gaussian 09, Revision D.01,
 Gaussian 09:  ES64L-G09RevD.01 24-Apr-2013

 -----------------------------
 # b3lyp 6-31G(2df,p) opt Freq
 -----------------------------

 -----
 titel
 -----
 Symbolic Z-matrix:
 Charge =  0 Multiplicity = 1

 SCF Done:  E(RB3LYP) =  -423.207144360     A.U. after   14 cycles
 Optimization completed.
    -- Stationary point found.
 Normal termination of Gaussian 09 at Tue Jan 28 09:20:16 2020.

 ----------------------------------------------------------------------
 #N Geom=AllCheck Guess=TCheck SCRF=Check GenChk RB3LYP/6-31G(2df,p) Fr
 eq
 ----------------------------------------------------------------------

 Structure from the checkpoint file:  "/scratch/puck/g09_27df0947-e54b-47e7-a47b-25bcff90424e/Gau-84146.chk"
 -----
 titel
 -----
 Charge =  0 Multiplicity = 1

                         Standard orientation:
 ---------------------------------------------------------------------
 Center     Atomic      Atomic             Coordinates (Angstroms)
 Number     Number       Type             X           Y           Z
 ---------------------------------------------------------------------
      1          6           0        3.096535    0.163612    0.077636
      2          6           0        1.922145   -0.502035   -0.652858
      3          6           0        0.579693   -0.100436   -0.093780
      4          6           0        0.082243    1.343714   -0.169007
      5          6           0       -1.413776    1.272024    0.211063
      6          6           0       -1.834504   -0.173034   -0.085828
      7          8           0       -2.936927   -0.560930   -0.376196
      8          6           0       -0.584819   -1.012250   -0.034145
      9          8           0        0.197584   -0.714533    1.142180
     10          1           0        4.050178   -0.185589   -0.327905
     11          1           0        3.071817    1.253055   -0.025114
     12          1           0        3.072576   -0.076621    1.144723
     13          1           0        1.949927   -0.247376   -1.719690
     14          1           0        2.013857   -1.590820   -0.581227
     15          1           0        0.656600    2.000004    0.490544
     16          1           0        0.206478    1.714775   -1.192560
     17          1           0       -1.561665    1.459330    1.279411
     18          1           0       -2.047715    1.969824   -0.338340
     19          1           0       -0.582416   -2.042437   -0.376202
 ---------------------------------------------------------------------

 SCF Done:  E(RB3LYP) =  -423.207144359     A.U. after    1 cycles

 The electronic state is 1-A.
 Alpha  occ. eigenvalues --  -19.16508 -19.13481 -10.27136 -10.25460 -10.24117
 Alpha  occ. eigenvalues --  -10.20117 -10.19943 -10.19527 -10.18576  -1.08707
 Alpha  occ. eigenvalues --   -1.04287  -0.81432  -0.78477  -0.70015  -0.68732
 Alpha  occ. eigenvalues --   -0.63647  -0.56909  -0.55127  -0.49548  -0.48144
 Alpha  occ. eigenvalues --   -0.46567  -0.44763  -0.42986  -0.42002  -0.40675
 Alpha  occ. eigenvalues --   -0.39355  -0.38506  -0.37755  -0.36022  -0.35439
 Alpha  occ. eigenvalues --   -0.34842  -0.30296  -0.29081  -0.23841
 Alpha virt. eigenvalues --   -0.02667   0.07912   0.09296   0.10691   0.11519
 Alpha virt. eigenvalues --    0.12961   0.14564   0.14842   0.15844   0.16490
 Alpha virt. eigenvalues --    0.17088   0.17790   0.19271   0.20313   0.21345

 Mulliken charges:
               1
     1  C   -0.384462
     2  C   -0.276858
     3  C    0.423128
     4  C   -0.288293
     5  C   -0.339516
     6  C    0.422913
     7  O   -0.317589
     8  C   -0.158910
     9  O   -0.290997
    10  H    0.119612
    11  H    0.120995
    12  H    0.135803
    13  H    0.105912
    14  H    0.113144
    15  H    0.117912
    16  H    0.113312
    17  H    0.145237
    18  H    0.130249
    19  H    0.108409
 Sum of Mulliken charges =   0.00000

 Dipole moment (field-independent basis, Debye):
    X=              2.8206    Y=              1.3702    Z=             -1.0162  Tot=              3.2964
 Quadrupole moment (field-independent basis, Debye-Ang):
   XX=            -61.1057   YY=            -50.7633   ZZ=            -54.0990
   XY=             -3.0126   XZ=             -2.7350   YZ=              1.1603

  Exact polarizability:  93.950   2.472  72.969   1.085   1.574  59.979
 Approx polarizability: 127.094   9.315 106.425   6.462   0.838  99.560

                      1                      2                      3
                      A                      A                      A
 Frequencies --     68.1149               109.3228               147.9466
 Red. masses --      2.8797                 4.0923                 2.1497
 Frc consts  --      0.0079                 0.0288                 0.0277
 IR Inten    --      0.9383                 2.9043                 1.8256

                      4                      5                      6
                      A                      A                      A
 Frequencies --    214.2659               239.3935               327.6943
 Red. masses --      1.4390                 1.9188                 2.3439
 Frc consts  --      0.0389                 0.0648                 0.1483
 IR Inten    --      0.1027                 1.5301                 0.1689

                      7                      8                      9
                      A                      A                      A
 Frequencies --    392.7387               403.3368               482.2038
 Red. masses --      3.5179                 3.4302                 4.3893
 Frc consts  --      0.3197                 0.3288                 0.6013
 IR Inten    --      8.8589                 7.7625                 6.9335

                     10                     11                     12
                      A                      A                      A
 Frequencies --    539.3706               600.4811               651.0384
 Red. masses --      3.2731                 2.7880                 3.5977
 Frc consts  --      0.5610                 0.5923                 0.8985
 IR Inten    --      6.1823                 1.7159                 1.3505

                     13                     14                     15
                      A                      A                      A
 Frequencies --    707.9853               776.7247               809.0100
 Red. masses --      4.1658                 1.3022                 3.2071
 Frc consts  --      1.2303                 0.4629                 1.2367
 IR Inten    --      3.1943                 1.2058                 8.6943

                     16                     17                     18
                      A                      A                      A
 Frequencies --    822.5268               870.1417               939.2391
 Red. masses --      2.1422                 2.7487                 2.6536
 Frc consts  --      0.8539                 1.2262                 1.3792
 IR Inten    --      9.9916                18.3681                 6.8719

                     19                     20                     21
                      A                      A                      A
 Frequencies --    958.0650               992.2206              1025.3269
 Red. masses --      2.7222                 2.2497                 1.7348
 Frc consts  --      1.4722                 1.3049                 1.0745
 IR Inten    --      6.6033                 1.7179                 6.6545

                     22                     23                     24
                      A                      A                      A
 Frequencies --   1053.5345              1077.0048              1093.1583
 Red. masses --      1.5266                 2.0886                 1.6637
 Frc consts  --      0.9983                 1.4274                 1.1714
 IR Inten    --      1.6010                 0.9664                 6.8820

                     25                     26                     27
                      A                      A                      A
 Frequencies --   1164.5335              1176.2891              1218.6816
 Red. masses --      2.0590                 1.8277                 1.3577
 Frc consts  --      1.6451                 1.4900                 1.1881
 IR Inten    --     13.1190                23.2826                 2.3606

                     28                     29                     30
                      A                      A                      A
 Frequencies --   1228.3541              1263.1008              1286.2766
 Red. masses --      1.7188                 1.6970                 1.3479
 Frc consts  --      1.5280                 1.5952                 1.3139
 IR Inten    --     21.2433                 6.0409                 3.8369

                     31                     32                     33
                      A                      A                      A
 Frequencies --   1301.2267              1346.6652              1357.5797
 Red. masses --      1.4226                 1.9298                 1.4652
 Frc consts  --      1.4192                 2.0620                 1.5910
 IR Inten    --      4.4630                 3.2035                 7.1939

                     34                     35                     36
                      A                      A                      A
 Frequencies --   1410.7973              1434.4643              1453.5241
 Red. masses --      1.2479                 2.5622                 1.1696
 Frc consts  --      1.4634                 3.1063                 1.4559
 IR Inten    --      1.7092                15.1666                 6.8235

                     37                     38                     39
                      A                      A                      A
 Frequencies --   1474.1292              1489.6693              1501.7957
 Red. masses --      1.0977                 1.1279                 1.0397
 Frc consts  --      1.4054                 1.4747                 1.3816
 IR Inten    --      2.5981                 2.9448                 4.6475

                     40                     41                     42
                      A                      A                      A
 Frequencies --   1508.5277              1845.1943              3031.7635
 Red. masses --      1.0791                12.2663                 1.0620
 Frc consts  --      1.4469                24.6064                 5.7511
 IR Inten    --      5.6452               255.9701                15.3945

                     43                     44                     45
                      A                      A                      A
 Frequencies --   3042.0475              3048.0244              3065.2562
 Red. masses --      1.0356                 1.0612                 1.0655
 Frc consts  --      5.6464                 5.8089                 5.8984
 IR Inten    --     17.1985                27.7591                 6.6377

                     46                     47                     48
                      A                      A                      A
 Frequencies --   3075.8750              3094.9803              3112.7128
 Red. masses --      1.0998                 1.0999                 1.1013
 Frc consts  --      6.1307                 6.2078                 6.2870
 IR Inten    --      7.6529                13.8204                34.1399

                     49                     50                     51
                      A                      A                      A
 Frequencies --   3118.4995              3127.8785              3173.7784
 Red. masses --      1.1026                 1.1002                 1.0927
 Frc consts  --      6.3179                 6.3417                 6.4848
 IR Inten    --     23.4127                 8.7524                10.7523

 - Thermochemistry -
 -------------------
 Temperature   298.150 Kelvin.  Pressure   1.00000 Atm.
 Atom     1 has atomic number  6 and mass  12.00000

 Molecular mass:   126.06808 amu.
 Principal axes and moments of inertia in atomic units:
                           1         2         3
     Eigenvalues --   462.067901636.675501830.22029
           X            0.99989  -0.01136  -0.00960
           Y            0.01173   0.99914   0.03984
           Z            0.00914  -0.03995   0.99916
 This molecule is an asymmetric top.
 Rotational symmetry number  1.
 Warning -- assumption of classical behavior for rotation
           may cause significant error
 Rotational temperatures (Kelvin)      0.18745     0.05292     0.04732
 Rotational constants (GHZ):           3.90579     1.10269     0.98608
 Zero-point vibrational energy     416614.3 (Joules/Mol)
                                   99.57320 (Kcal/Mol)
 Warning -- explicit consideration of  11 degrees of freedom as
           vibrations may cause significant error
 Vibrational temperatures:     98.00   157.29   212.86   308.28   344.43
          (Kelvin)            471.48   565.06   580.31   693.78   776.03
                              863.96   936.70  1018.63  1117.53  1163.98
                             1183.43  1251.94  1351.35  1378.44  1427.58
                             1475.21  1515.80  1549.57  1572.81  1675.50
                             1692.42  1753.41  1767.33  1817.32  1850.66
                             1872.17  1937.55  1953.25  2029.82  2063.87
                             2091.29  2120.94  2143.30  2160.75  2170.43
                             2654.82  4362.03  4376.82  4385.42  4410.21
                             4425.49  4452.98  4478.49  4486.82  4500.31
                             4566.35

 Zero-point correction=                           0.158680 (Hartree/Particle)
 Thermal correction to Energy=                    0.167262
 Thermal correction to Enthalpy=                  0.168206
 Thermal correction to Gibbs Free Energy=         0.125199
 Sum of electronic and zero-point Energies=           -423.048464
 Sum of electronic and thermal Energies=              -423.039883
 Sum of electronic and thermal Enthalpies=            -423.038938
 Sum of electronic and thermal Free Energies=         -423.081945

                     E (Thermal)             CV                S
                      KCal/Mol        Cal/Mol-Kelvin    Cal/Mol-Kelvin
 Total                  104.958             32.332             90.516
 Electronic               0.000              0.000              0.000
 Translational            0.889              2.981             40.409
 Rotational               0.889              2.981             28.717
 Vibrational            103.181             26.370             21.390
 Vibration     1          0.598              1.969              4.207
 Vibration     2          0.606              1.942              3.281
 Vibration     3          0.617              1.905              2.698
 Vibration     4          0.644              1.819              2.007
 Vibration     5          0.657              1.780              1.807
 Vibration     6          0.711              1.620              1.271
 Vibration     7          0.760              1.486              0.990
 Vibration     8          0.769              1.463              0.950
 Vibration     9          0.838              1.290              0.704
 Vibration    10          0.894              1.163              0.567
 Vibration    11          0.959              1.031              0.449

 Normal termination of Gaussian 09 at Tue Jan 28 10:07:51 2020.
