 Gaussian 09, Revision D.01,
 Gaussian 09:  ES64L-G09RevD.01 24-Apr-2013

 -----------------------------
 # b3lyp 6-31G(2df,p) opt Freq
 -----------------------------

 -----
 titel
 -----
 Symbolic Z-matrix:
 Charge =  0 Multiplicity = 1

 SCF Done:  E(RB3LYP) =  -423.192587224     A.U. after   14 cycles
 Optimization completed.
    -- Stationary point found.
 Normal termination of Gaussian 09 at Mon Jan 27 13:02:00 2020.

 ----------------------------------------------------------------------
 #N Geom=AllCheck Guess=TCheck SCRF=Check GenChk RB3LYP/6-31G(2df,p) Fr
 eq
 ----------------------------------------------------------------------

 Structure from the checkpoint file:  "/scratch/puck/g09_22b87daa-5e95-488d-abbb-588d8879e8ae/Gau-27665.chk"
 -----
 titel
 -----
 Charge =  0 Multiplicity = 1

                         Standard orientation:
 ---------------------------------------------------------------------
 Center     Atomic      Atomic             Coordinates (Angstroms)
 Number     Number       Type             X           Y           Z
 ---------------------------------------------------------------------
      1          8           0       -2.847567   -0.843385   -0.598429
      2          6           0       -1.877094   -0.311170   -0.130732
      3          6           0       -1.491166    1.163206   -0.280148
      4          8           0       -0.333835    1.356765    0.504520
      5          6           0        0.347040    0.095225    0.676230
      6          6           0       -0.777100   -0.950587    0.716064
      7          6           0        1.359243   -0.154333   -0.418708
      8          6           0        2.691907    0.541959   -0.372691
      9          6           0        2.610449   -0.939665   -0.105686
     10          1           0       -1.323587    1.384331   -1.346629
     11          1           0       -2.292587    1.819485    0.075663
     12          1           0        0.871996    0.173943    1.633615
     13          1           0       -0.501717   -1.935596    0.335546
     14          1           0       -1.166808   -1.074673    1.733057
     15          1           0        0.929242   -0.313498   -1.405263
     16          1           0        3.129455    0.874913   -1.306904
     17          1           0        2.884625    1.201269    0.467085
     18          1           0        2.987905   -1.624922   -0.856036
     19          1           0        2.753006   -1.280100    0.915162
 ---------------------------------------------------------------------

 SCF Done:  E(RB3LYP) =  -423.192587224     A.U. after    1 cycles

 The electronic state is 1-A.
 Alpha  occ. eigenvalues --  -19.14567 -19.13788 -10.27561 -10.24502 -10.23593
 Alpha  occ. eigenvalues --  -10.19716 -10.19641 -10.19376 -10.19068  -1.05501
 Alpha  occ. eigenvalues --   -1.03741  -0.86554  -0.77839  -0.73711  -0.64251
 Alpha  occ. eigenvalues --   -0.60648  -0.57867  -0.55739  -0.50315  -0.49802
 Alpha  occ. eigenvalues --   -0.47764  -0.46178  -0.43712  -0.42365  -0.42089
 Alpha  occ. eigenvalues --   -0.39161  -0.38618  -0.37043  -0.34941  -0.34330
 Alpha  occ. eigenvalues --   -0.30496  -0.29566  -0.26294  -0.24240
 Alpha virt. eigenvalues --   -0.02342   0.08411   0.09318   0.09801   0.11166
 Alpha virt. eigenvalues --    0.12672   0.13297   0.15044   0.16177   0.16305
 Alpha virt. eigenvalues --    0.18224   0.18709   0.19348   0.21905   0.22550

 Mulliken charges:
               1
     1  O   -0.298314
     2  C    0.366721
     3  C   -0.183453
     4  O   -0.263234
     5  C    0.078244
     6  C   -0.351899
     7  C    0.024765
     8  C   -0.268360
     9  C   -0.272777
    10  H    0.122437
    11  H    0.136447
    12  H    0.082740
    13  H    0.138386
    14  H    0.137787
    15  H    0.084308
    16  H    0.116139
    17  H    0.120238
    18  H    0.116406
    19  H    0.113419
 Sum of Mulliken charges =   0.00000

 Dipole moment (field-independent basis, Debye):
    X=              2.0468    Y=             -0.1593    Z=              0.5264  Tot=              2.1193
 Quadrupole moment (field-independent basis, Debye-Ang):
   XX=            -59.8629   YY=            -55.1353   ZZ=            -50.6246
   XY=             -4.8293   XZ=             -3.0941   YZ=             -2.3847

  Exact polarizability:  89.157  -1.300  71.929   2.940  -2.581  65.456
 Approx polarizability: 116.315   1.887 107.234   8.766  -0.344 100.876

                      1                      2                      3
                      A                      A                      A
 Frequencies --     61.9174                65.5334               130.2611
 Red. masses --      5.1096                 2.9101                 2.4333
 Frc consts  --      0.0115                 0.0074                 0.0243
 IR Inten    --      2.5393                 0.1541                 4.2378

                      4                      5                      6
                      A                      A                      A
 Frequencies --    201.7897               289.3793               339.4654
 Red. masses --      2.6481                 2.8065                 2.9211
 Frc consts  --      0.0635                 0.1385                 0.1983
 IR Inten    --      4.5223                 1.0230                 3.1652

                      7                      8                      9
                      A                      A                      A
 Frequencies --    432.5813               464.1145               494.2795
 Red. masses --      4.8787                 2.1715                 3.5629
 Frc consts  --      0.5379                 0.2756                 0.5129
 IR Inten    --      9.0377                 1.0602                 8.0744

                     10                     11                     12
                      A                      A                      A
 Frequencies --    621.8651               726.9812               745.7472
 Red. masses --      6.3141                 3.8381                 1.9095
 Frc consts  --      1.4386                 1.1951                 0.6257
 IR Inten    --      0.3518                10.2960                 6.4533

                     13                     14                     15
                      A                      A                      A
 Frequencies --    776.1313               825.3851               830.6186
 Red. masses --      1.2848                 2.2130                 1.2960
 Frc consts  --      0.4560                 0.8883                 0.5268
 IR Inten    --      1.6740                 2.5003                 1.4165

                     16                     17                     18
                      A                      A                      A
 Frequencies --    870.5448               911.3271               943.5930
 Red. masses --      1.6986                 3.5813                 3.5376
 Frc consts  --      0.7584                 1.7524                 1.8558
 IR Inten    --      1.4395                13.0858                 9.3891

                     19                     20                     21
                      A                      A                      A
 Frequencies --    957.7488              1015.3430              1028.1773
 Red. masses --      2.6581                 1.7922                 1.9327
 Frc consts  --      1.4366                 1.0886                 1.2038
 IR Inten    --     24.4166                 3.3748                16.5471

                     22                     23                     24
                      A                      A                      A
 Frequencies --   1059.7310              1079.0507              1084.4753
 Red. masses --      1.3279                 1.6668                 2.9736
 Frc consts  --      0.8786                 1.1435                 2.0605
 IR Inten    --      0.9607                17.5660                35.0012

                     25                     26                     27
                      A                      A                      A
 Frequencies --   1130.8594              1134.0897              1165.3147
 Red. masses --      1.2862                 1.3851                 5.5279
 Frc consts  --      0.9691                 1.0496                 4.4228
 IR Inten    --      0.1626                 4.2221               151.5878

                     28                     29                     30
                      A                      A                      A
 Frequencies --   1196.3554              1212.3225              1228.1656
 Red. masses --      1.3846                 1.3033                 2.0513
 Frc consts  --      1.1676                 1.1286                 1.8231
 IR Inten    --      0.3070                 8.6480                 0.5447

                     31                     32                     33
                      A                      A                      A
 Frequencies --   1233.3814              1255.5669              1310.1413
 Red. masses --      1.4381                 1.7356                 1.3394
 Frc consts  --      1.2889                 1.6121                 1.3546
 IR Inten    --     10.9736                 8.8334                 4.4710

                     34                     35                     36
                      A                      A                      A
 Frequencies --   1326.8409              1357.4818              1434.7400
 Red. masses --      1.3258                 1.3826                 1.5076
 Frc consts  --      1.3752                 1.5011                 1.8284
 IR Inten    --      5.0311                 2.2182                12.8771

                     37                     38                     39
                      A                      A                      A
 Frequencies --   1446.0330              1472.4544              1484.4075
 Red. masses --      1.1118                 1.0862                 1.0822
 Frc consts  --      1.3697                 1.3876                 1.4050
 IR Inten    --     10.2296                 1.5054                 5.0666

                     40                     41                     42
                      A                      A                      A
 Frequencies --   1507.5745              1859.7010              2981.7774
 Red. masses --      1.3872                12.7646                 1.0692
 Frc consts  --      1.8576                26.0102                 5.6010
 IR Inten    --      0.6739               218.0605                32.8464

                     43                     44                     45
                      A                      A                      A
 Frequencies --   3048.0595              3060.2174              3071.2731
 Red. masses --      1.0728                 1.0798                 1.0915
 Frc consts  --      5.8722                 5.9582                 6.0661
 IR Inten    --     14.7664                14.6848                19.4239

                     46                     47                     48
                      A                      A                      A
 Frequencies --   3125.4569              3129.1097              3131.4371
 Red. masses --      1.0957                 1.0821                 1.0560
 Frc consts  --      6.3061                 6.2425                 6.1011
 IR Inten    --      4.6573                21.8287                14.8244

                     49                     50                     51
                      A                      A                      A
 Frequencies --   3137.8589              3210.2666              3225.2946
 Red. masses --      1.0610                 1.1174                 1.1153
 Frc consts  --      6.1550                 6.7846                 6.8358
 IR Inten    --      6.8856                 0.8243                16.4684

 - Thermochemistry -
 -------------------
 Temperature   298.150 Kelvin.  Pressure   1.00000 Atm.
 Atom     1 has atomic number  8 and mass  15.99491

 Molecular mass:   126.06808 amu.
 Principal axes and moments of inertia in atomic units:
                           1         2         3
     Eigenvalues --   499.887831729.331311947.76917
           X            0.99981  -0.01822  -0.00693
           Y            0.01776   0.99791  -0.06212
           Z            0.00805   0.06199   0.99804
 This molecule is an asymmetric top.
 Rotational symmetry number  1.
 Warning -- assumption of classical behavior for rotation
           may cause significant error
 Rotational temperatures (Kelvin)      0.17327     0.05009     0.04447
 Rotational constants (GHZ):           3.61029     1.04361     0.92657
 Zero-point vibrational energy     417689.4 (Joules/Mol)
                                   99.83017 (Kcal/Mol)
 Warning -- explicit consideration of   9 degrees of freedom as
           vibrations may cause significant error
 Vibrational temperatures:     89.09    94.29   187.42   290.33   416.35
          (Kelvin)            488.41   622.39   667.76   711.16   894.72
                             1045.96  1072.96  1116.68  1187.54  1195.07
                             1252.52  1311.19  1357.62  1377.99  1460.85
                             1479.32  1524.71  1552.51  1560.32  1627.05
                             1631.70  1676.63  1721.29  1744.26  1767.05
                             1774.56  1806.48  1885.00  1909.03  1953.11
                             2064.27  2080.52  2118.53  2135.73  2169.06
                             2675.69  4290.11  4385.47  4402.96  4418.87
                             4496.83  4502.09  4505.43  4514.67  4618.85
                             4640.47

 Zero-point correction=                           0.159090 (Hartree/Particle)
 Thermal correction to Energy=                    0.167460
 Thermal correction to Enthalpy=                  0.168404
 Thermal correction to Gibbs Free Energy=         0.125189
 Sum of electronic and zero-point Energies=           -423.033498
 Sum of electronic and thermal Energies=              -423.025127
 Sum of electronic and thermal Enthalpies=            -423.024183
 Sum of electronic and thermal Free Energies=         -423.067399

                     E (Thermal)             CV                S
                      KCal/Mol        Cal/Mol-Kelvin    Cal/Mol-Kelvin
 Total                  105.083             31.393             90.955
 Electronic               0.000              0.000              0.000
 Translational            0.889              2.981             40.409
 Rotational               0.889              2.981             28.911
 Vibrational            103.305             25.431             21.635
 Vibration     1          0.597              1.972              4.395
 Vibration     2          0.597              1.971              4.283
 Vibration     3          0.612              1.923              2.942
 Vibration     4          0.639              1.837              2.117
 Vibration     5          0.686              1.693              1.478
 Vibration     6          0.719              1.597              1.215
 Vibration     7          0.793              1.399              0.850
 Vibration     8          0.822              1.330              0.754
 Vibration     9          0.850              1.263              0.673

 Optimization completed.
    -- Stationary point found.
 Normal termination of Gaussian 09 at Mon Jan 27 13:45:25 2020.
