 Gaussian 09, Revision D.01,
 Gaussian 09:  ES64L-G09RevD.01 24-Apr-2013

 -----------------------------
 # b3lyp 6-31G(2df,p) opt Freq
 -----------------------------

 -----
 titel
 -----
 Symbolic Z-matrix:
 Charge =  0 Multiplicity = 1

 SCF Done:  E(RB3LYP) =  -423.171580176     A.U. after   14 cycles
 SCF Done:  E(RB3LYP) =  -423.171580609     A.U. after    7 cycles
 SCF Done:  E(RB3LYP) =  -423.171580728     A.U. after    7 cycles
 Optimization completed.
    -- Stationary point found.
 Normal termination of Gaussian 09 at Tue Jan 28 03:05:28 2020.

 ----------------------------------------------------------------------
 #N Geom=AllCheck Guess=TCheck SCRF=Check GenChk RB3LYP/6-31G(2df,p) Fr
 eq
 ----------------------------------------------------------------------

 Structure from the checkpoint file:  "/scratch/puck/g09_061ed1fc-8cdf-4000-8aad-a5edfed103bb/Gau-11499.chk"
 -----
 titel
 -----
 Charge =  0 Multiplicity = 1

                         Standard orientation:
 ---------------------------------------------------------------------
 Center     Atomic      Atomic             Coordinates (Angstroms)
 Number     Number       Type             X           Y           Z
 ---------------------------------------------------------------------
      1          6           0        2.923072    0.500589   -0.341858
      2          6           0        1.615796    0.301593    0.416391
      3          6           0        1.196768   -1.194401    0.578229
      4          6           0        0.065902   -1.019582   -0.486342
      5          6           0        0.342430    0.547404   -0.427544
      6          6           0       -0.961927    0.742254    0.425588
      7          8           0       -1.899133    1.697119    0.013388
      8          6           0       -1.323253   -0.700602    0.026929
      9          8           0       -2.410277   -1.174518   -0.173067
     10          1           0        2.919992   -0.049709   -1.289832
     11          1           0        3.088730    1.558579   -0.571453
     12          1           0        3.775167    0.144958    0.247681
     13          1           0        1.641802    0.871895    1.351854
     14          1           0        1.964547   -1.911025    0.278368
     15          1           0        0.840087   -1.475210    1.572314
     16          1           0        0.123151   -1.641486   -1.379451
     17          1           0        0.383140    1.171537   -1.319753
     18          1           0       -0.722823    0.875729    1.490515
     19          1           0       -2.691238    1.210405   -0.251169
 ---------------------------------------------------------------------

 SCF Done:  E(RB3LYP) =  -423.171580728     A.U. after    1 cycles

 The electronic state is 1-A.
 Alpha  occ. eigenvalues --  -19.14511 -19.14458 -10.27157 -10.23954 -10.20257
 Alpha  occ. eigenvalues --  -10.20107 -10.20080 -10.20028 -10.18469  -1.05724
 Alpha  occ. eigenvalues --   -1.02411  -0.88396  -0.76972  -0.71124  -0.65619
 Alpha  occ. eigenvalues --   -0.63158  -0.56891  -0.53894  -0.50375  -0.48608
 Alpha  occ. eigenvalues --   -0.46633  -0.46511  -0.43127  -0.41582  -0.40105
 Alpha  occ. eigenvalues --   -0.39726  -0.37968  -0.36386  -0.34488  -0.33498
 Alpha  occ. eigenvalues --   -0.31886  -0.30053  -0.26836  -0.24673
 Alpha virt. eigenvalues --   -0.02806   0.07483   0.08788   0.09633   0.10423
 Alpha virt. eigenvalues --    0.11640   0.14484   0.14913   0.15537   0.16163
 Alpha virt. eigenvalues --    0.16682   0.18080   0.19632   0.20922   0.22341

 Mulliken charges:
               1
     1  C   -0.410255
     2  C    0.028931
     3  C   -0.263033
     4  C   -0.148605
     5  C   -0.065908
     6  C    0.043997
     7  O   -0.443926
     8  C    0.352469
     9  O   -0.324471
    10  H    0.117198
    11  H    0.121144
    12  H    0.118012
    13  H    0.074594
    14  H    0.115024
    15  H    0.111732
    16  H    0.094328
    17  H    0.087918
    18  H    0.094110
    19  H    0.296744
 Sum of Mulliken charges =   0.00000

 Dipole moment (field-independent basis, Debye):
    X=              2.6654    Y=             -0.2757    Z=              0.1468  Tot=              2.6837
 Quadrupole moment (field-independent basis, Debye-Ang):
   XX=            -56.5929   YY=            -57.9055   ZZ=            -51.3131
   XY=             -2.3610   XZ=              0.1646   YZ=             -0.4881

  Exact polarizability:  93.004   1.045  72.699   1.292   0.870  62.725
 Approx polarizability: 126.575   4.735 110.591   3.460   2.004  97.480

                      1                      2                      3
                      A                      A                      A
 Frequencies --     62.1544               141.1874               178.9578
 Red. masses --      4.1415                 2.9146                 3.7261
 Frc consts  --      0.0094                 0.0342                 0.0703
 IR Inten    --      1.3467                 3.8828                10.5619

                      4                      5                      6
                      A                      A                      A
 Frequencies --    209.5931               243.6483               263.2835
 Red. masses --      4.5041                 1.3030                 1.1538
 Frc consts  --      0.1166                 0.0456                 0.0471
 IR Inten    --     10.5244                33.2569                10.1129

                      7                      8                      9
                      A                      A                      A
 Frequencies --    328.1500               366.1771               394.4492
 Red. masses --      2.3839                 2.8114                 3.1792
 Frc consts  --      0.1512                 0.2221                 0.2914
 IR Inten    --     14.6610                 3.7841                 0.7523

                     10                     11                     12
                      A                      A                      A
 Frequencies --    439.8181               638.3578               718.5018
 Red. masses --      3.3890                 3.0460                 2.7909
 Frc consts  --      0.3863                 0.7313                 0.8489
 IR Inten    --      4.2486                 1.9763                 1.5546

                     13                     14                     15
                      A                      A                      A
 Frequencies --    761.4017               796.2846               829.0725
 Red. masses --      3.1883                 2.4216                 3.8836
 Frc consts  --      1.0890                 0.9047                 1.5728
 IR Inten    --      1.7922                 7.1658                15.1592

                     16                     17                     18
                      A                      A                      A
 Frequencies --    852.4721               894.0902               927.1618
 Red. masses --      2.2816                 2.1926                 2.3946
 Frc consts  --      0.9769                 1.0327                 1.2128
 IR Inten    --      5.7640                 1.5201                27.7144

                     19                     20                     21
                      A                      A                      A
 Frequencies --    935.8912               970.5714              1030.1532
 Red. masses --      1.8333                 2.2374                 2.0728
 Frc consts  --      0.9461                 1.2418                 1.2960
 IR Inten    --      0.3964                 2.8443                 8.9694

                     22                     23                     24
                      A                      A                      A
 Frequencies --   1062.2158              1076.3867              1087.3367
 Red. masses --      2.2211                 1.6115                 1.5912
 Frc consts  --      1.4765                 1.1001                 1.1084
 IR Inten    --     35.6021                 3.4630                 8.7319

                     25                     26                     27
                      A                      A                      A
 Frequencies --   1136.9803              1151.6374              1183.7735
 Red. masses --      1.6175                 2.0565                 2.0367
 Frc consts  --      1.2319                 1.6070                 1.6816
 IR Inten    --     68.9028                42.9191                 6.4132

                     28                     29                     30
                      A                      A                      A
 Frequencies --   1196.6788              1233.4074              1243.5255
 Red. masses --      1.4120                 1.6555                 1.7449
 Frc consts  --      1.1914                 1.4839                 1.5898
 IR Inten    --      3.9110                 2.8723                 5.0834

                     31                     32                     33
                      A                      A                      A
 Frequencies --   1253.9975              1278.4339              1283.0988
 Red. masses --      1.5130                 1.4852                 1.5618
 Frc consts  --      1.4018                 1.4302                 1.5150
 IR Inten    --      1.3298                 0.2243                 1.6102

                     34                     35                     36
                      A                      A                      A
 Frequencies --   1353.9299              1364.8437              1395.9914
 Red. masses --      1.4583                 1.5199                 1.2558
 Frc consts  --      1.5751                 1.6681                 1.4419
 IR Inten    --      3.8394                 4.7596                58.3497

                     37                     38                     39
                      A                      A                      A
 Frequencies --   1413.6947              1483.4052              1495.7555
 Red. masses --      1.2428                 1.0914                 1.0478
 Frc consts  --      1.4634                 1.4150                 1.3812
 IR Inten    --      1.8031                 3.9180                 3.4953

                     40                     41                     42
                      A                      A                      A
 Frequencies --   1499.4489              1853.6397              2997.2355
 Red. masses --      1.0494                12.4346                 1.0828
 Frc consts  --      1.3901                25.1730                 5.7311
 IR Inten    --      2.6859               287.6013                27.0988

                     43                     44                     45
                      A                      A                      A
 Frequencies --   3025.4553              3035.6126              3064.6041
 Red. masses --      1.0350                 1.0847                 1.0595
 Frc consts  --      5.5818                 5.8894                 5.8629
 IR Inten    --     24.2738                25.3357                30.4578

                     46                     47                     48
                      A                      A                      A
 Frequencies --   3093.7537              3097.9312              3111.1120
 Red. masses --      1.1012                 1.1017                 1.0984
 Frc consts  --      6.2097                 6.2296                 6.2641
 IR Inten    --     33.4379                21.9459                 5.9450

                     49                     50                     51
                      A                      A                      A
 Frequencies --   3120.4085              3126.4269              3755.5858
 Red. masses --      1.0954                 1.0922                 1.0660
 Frc consts  --      6.2840                 6.2899                 8.8589
 IR Inten    --     19.9523                21.8047                36.5920

 - Thermochemistry -
 -------------------
 Temperature   298.150 Kelvin.  Pressure   1.00000 Atm.
 Atom     1 has atomic number  6 and mass  12.00000

 Molecular mass:   126.06808 amu.
 Principal axes and moments of inertia in atomic units:
                           1         2         3
     Eigenvalues --   574.952281463.317231840.90396
           X            0.99996  -0.00772  -0.00436
           Y            0.00769   0.99995  -0.00688
           Z            0.00442   0.00685   0.99997
 This molecule is an asymmetric top.
 Rotational symmetry number  1.
 Warning -- assumption of classical behavior for rotation
           may cause significant error
 Rotational temperatures (Kelvin)      0.15065     0.05919     0.04705
 Rotational constants (GHZ):           3.13894     1.23332     0.98036
 Zero-point vibrational energy     415449.2 (Joules/Mol)
                                   99.29474 (Kcal/Mol)
 Warning -- explicit consideration of  10 degrees of freedom as
           vibrations may cause significant error
 Vibrational temperatures:     89.43   203.14   257.48   301.56   350.56
          (Kelvin)            378.81   472.13   526.85   567.52   632.80
                              918.45  1033.76  1095.49  1145.67  1192.85
                             1226.52  1286.39  1333.98  1346.54  1396.43
                             1482.16  1528.29  1548.68  1564.43  1635.86
                             1656.95  1703.18  1721.75  1774.60  1789.15
                             1804.22  1839.38  1846.09  1948.00  1963.70
                             2008.52  2033.99  2134.29  2152.06  2157.37
                             2666.97  4312.35  4352.95  4367.56  4409.28
                             4451.22  4457.23  4476.19  4489.57  4498.23
                             5403.44

 Zero-point correction=                           0.158236 (Hartree/Particle)
 Thermal correction to Energy=                    0.167008
 Thermal correction to Enthalpy=                  0.167952
 Thermal correction to Gibbs Free Energy=         0.124657
 Sum of electronic and zero-point Energies=           -423.013344
 Sum of electronic and thermal Energies=              -423.004573
 Sum of electronic and thermal Enthalpies=            -423.003629
 Sum of electronic and thermal Free Energies=         -423.046924

                     E (Thermal)             CV                S
                      KCal/Mol        Cal/Mol-Kelvin    Cal/Mol-Kelvin
 Total                  104.799             32.923             91.122
 Electronic               0.000              0.000              0.000
 Translational            0.889              2.981             40.409
 Rotational               0.889              2.981             28.828
 Vibrational            103.022             26.961             21.886
 Vibration     1          0.597              1.972              4.388
 Vibration     2          0.615              1.912              2.788
 Vibration     3          0.629              1.868              2.339
 Vibration     4          0.642              1.826              2.047
 Vibration     5          0.659              1.773              1.776
 Vibration     6          0.670              1.740              1.640
 Vibration     7          0.711              1.619              1.269
 Vibration     8          0.739              1.542              1.096
 Vibration     9          0.761              1.482              0.983
 Vibration    10          0.800              1.383              0.827

 Normal termination of Gaussian 09 at Tue Jan 28 03:50:56 2020.
