 Gaussian 09, Revision D.01,
 Gaussian 09:  ES64L-G09RevD.01 24-Apr-2013

 -----------------------------
 # b3lyp 6-31G(2df,p) opt Freq
 -----------------------------

 -----
 titel
 -----
 Symbolic Z-matrix:
 Charge =  0 Multiplicity = 1

 SCF Done:  E(RB3LYP) =  -423.140559377     A.U. after   14 cycles
 Optimization completed.
    -- Stationary point found.
 Normal termination of Gaussian 09 at Mon Jan 27 12:57:30 2020.

 ----------------------------------------------------------------------
 #N Geom=AllCheck Guess=TCheck SCRF=Check GenChk RB3LYP/6-31G(2df,p) Fr
 eq
 ----------------------------------------------------------------------

 Structure from the checkpoint file:  "/scratch/puck/g09_0758c2dd-3f1c-4476-8ac1-6ed85b8a1912/Gau-168265.chk"
 -----
 titel
 -----
 Charge =  0 Multiplicity = 1

                         Standard orientation:
 ---------------------------------------------------------------------
 Center     Atomic      Atomic             Coordinates (Angstroms)
 Number     Number       Type             X           Y           Z
 ---------------------------------------------------------------------
      1          6           0       -2.163244   -0.367278   -0.312921
      2          6           0       -1.136747   -1.290126    0.365151
      3          8           0        0.064365   -1.347133   -0.392810
      4          6           0        1.299682   -1.203096    0.265433
      5          8           0        2.124181   -0.257795   -0.362585
      6          6           0        1.972891    1.101158    0.055536
      7          6           0        0.574888    1.518101    0.058673
      8          6           0       -0.628725    1.510237    0.054704
      9          6           0       -2.035023    1.134639    0.063791
     10          1           0       -2.044461   -0.487547   -1.393916
     11          1           0       -3.174574   -0.702299   -0.056582
     12          1           0       -0.932927   -0.952489    1.391657
     13          1           0       -1.554611   -2.304435    0.433166
     14          1           0        1.141044   -0.954391    1.327465
     15          1           0        1.854281   -2.146195    0.186707
     16          1           0        2.408873    1.233928    1.058673
     17          1           0        2.579999    1.686743   -0.641827
     18          1           0       -2.459080    1.300730    1.062842
     19          1           0       -2.629249    1.743565   -0.627214
 ---------------------------------------------------------------------

 SCF Done:  E(RB3LYP) =  -423.140559377     A.U. after    1 cycles

 The electronic state is 1-A.
 Alpha  occ. eigenvalues --  -19.14463 -19.13465 -10.27197 -10.25047 -10.23240
 Alpha  occ. eigenvalues --  -10.20973 -10.19178 -10.17394 -10.16662  -1.05818
 Alpha  occ. eigenvalues --   -1.00486  -0.81165  -0.75647  -0.73752  -0.66502
 Alpha  occ. eigenvalues --   -0.64101  -0.59631  -0.51096  -0.50792  -0.50395
 Alpha  occ. eigenvalues --   -0.48063  -0.46050  -0.44906  -0.43515  -0.41271
 Alpha  occ. eigenvalues --   -0.38544  -0.36952  -0.36250  -0.32658  -0.31203
 Alpha  occ. eigenvalues --   -0.28803  -0.26793  -0.24909  -0.23911
 Alpha virt. eigenvalues --    0.02613   0.05767   0.09521   0.10067   0.11885
 Alpha virt. eigenvalues --    0.13875   0.13971   0.14802   0.15594   0.16443
 Alpha virt. eigenvalues --    0.17281   0.17943   0.19256   0.19884   0.21731

 Mulliken charges:
               1
     1  C   -0.182965
     2  C   -0.066496
     3  O   -0.233855
     4  C    0.030400
     5  O   -0.225647
     6  C   -0.209525
     7  C    0.043101
     8  C    0.085060
     9  C   -0.351462
    10  H    0.128208
    11  H    0.097967
    12  H    0.095569
    13  H    0.096937
    14  H    0.079890
    15  H    0.105112
    16  H    0.117051
    17  H    0.137344
    18  H    0.125786
    19  H    0.127524
 Sum of Mulliken charges =   0.00000

 Dipole moment (field-independent basis, Debye):
    X=             -1.3795    Y=             -0.0163    Z=              1.7143  Tot=              2.2004
 Quadrupole moment (field-independent basis, Debye-Ang):
   XX=            -48.4992   YY=            -53.5124   ZZ=            -53.4689
   XY=              1.4119   XZ=              1.7687   YZ=             -2.1816

  Exact polarizability: 103.008   2.014  74.004   0.864  -1.073  58.273
 Approx polarizability: 156.437   2.230  99.570  -1.444   0.604  92.221

                      1                      2                      3
                      A                      A                      A
 Frequencies --     81.4675               142.1832               189.1043
 Red. masses --      2.3259                 4.3155                 4.1787
 Frc consts  --      0.0091                 0.0514                 0.0880
 IR Inten    --      1.1644                 2.3434                 0.0321

                      4                      5                      6
                      A                      A                      A
 Frequencies --    207.2683               293.8496               347.8975
 Red. masses --      2.9484                 2.6467                 2.5550
 Frc consts  --      0.0746                 0.1347                 0.1822
 IR Inten    --      5.4116                 3.2671                 1.9845

                      7                      8                      9
                      A                      A                      A
 Frequencies --    360.0965               370.3426               405.5517
 Red. masses --      3.2877                 3.4029                 2.8157
 Frc consts  --      0.2512                 0.2750                 0.2729
 IR Inten    --      3.7747                10.6612                 1.0012

                     10                     11                     12
                      A                      A                      A
 Frequencies --    488.0128               543.2579               605.8753
 Red. masses --      3.8350                 3.5533                 5.1198
 Frc consts  --      0.5381                 0.6179                 1.1073
 IR Inten    --      2.9355                 0.9003                17.1545

                     13                     14                     15
                      A                      A                      A
 Frequencies --    749.3015               815.6297               868.9935
 Red. masses --      3.0516                 2.4530                 1.9542
 Frc consts  --      1.0095                 0.9615                 0.8695
 IR Inten    --     13.2764                 2.0264                 0.3463

                     16                     17                     18
                      A                      A                      A
 Frequencies --    912.0860               917.7301               985.5345
 Red. masses --      2.5783                 4.6169                 2.3700
 Frc consts  --      1.2637                 2.2911                 1.3563
 IR Inten    --      7.4532                22.5395                37.0227

                     19                     20                     21
                      A                      A                      A
 Frequencies --   1017.8133              1033.1755              1063.9771
 Red. masses --      1.7798                 2.6458                 4.9092
 Frc consts  --      1.0863                 1.6640                 3.2744
 IR Inten    --      6.0231                 5.5033               256.2045

                     22                     23                     24
                      A                      A                      A
 Frequencies --   1087.3182              1141.2481              1154.0131
 Red. masses --      2.1444                 2.5444                 3.1963
 Frc consts  --      1.4937                 1.9525                 2.5080
 IR Inten    --     16.5423                53.1378                 3.6951

                     25                     26                     27
                      A                      A                      A
 Frequencies --   1181.1051              1219.1386              1248.2375
 Red. masses --      2.3219                 1.2971                 1.2996
 Frc consts  --      1.9084                 1.1359                 1.1930
 IR Inten    --     81.5538                 3.6706                 7.1502

                     28                     29                     30
                      A                      A                      A
 Frequencies --   1268.6373              1294.7941              1331.8652
 Red. masses --      1.1337                 1.1369                 1.1131
 Frc consts  --      1.0750                 1.1230                 1.1633
 IR Inten    --     13.3933                15.8080                 2.9334

                     31                     32                     33
                      A                      A                      A
 Frequencies --   1348.0794              1374.5854              1390.3329
 Red. masses --      1.2946                 1.4010                 1.2779
 Frc consts  --      1.3861                 1.5597                 1.4554
 IR Inten    --      2.2902                15.0266                23.0639

                     34                     35                     36
                      A                      A                      A
 Frequencies --   1409.3361              1451.7491              1469.0757
 Red. masses --      1.2356                 1.1889                 1.0804
 Frc consts  --      1.4460                 1.4763                 1.3738
 IR Inten    --     19.3669                 8.6004                 2.5608

                     37                     38                     39
                      A                      A                      A
 Frequencies --   1481.8754              1485.1689              1495.3927
 Red. masses --      1.0933                 1.0847                 1.0893
 Frc consts  --      1.4146                 1.4096                 1.4352
 IR Inten    --      1.0263                 1.9708                 1.6499

                     40                     41                     42
                      A                      A                      A
 Frequencies --   1513.5626              2361.3618              2964.0367
 Red. masses --      1.0962                11.7719                 1.0625
 Frc consts  --      1.4795                38.6741                 5.4999
 IR Inten    --      4.3116                 8.5721                28.2898

                     43                     44                     45
                      A                      A                      A
 Frequencies --   2978.0146              2990.2269              3020.1008
 Red. masses --      1.0710                 1.0569                 1.0649
 Frc consts  --      5.5961                 5.5677                 5.7228
 IR Inten    --     65.9363                61.4979                23.0178

                     46                     47                     48
                      A                      A                      A
 Frequencies --   3023.5509              3046.5828              3047.6360
 Red. masses --      1.0993                 1.0905                 1.0796
 Frc consts  --      5.9209                 5.9633                 5.9080
 IR Inten    --     32.6702                57.2397                53.5724

                     49                     50                     51
                      A                      A                      A
 Frequencies --   3057.5232              3074.0149              3099.0837
 Red. masses --      1.0935                 1.0890                 1.1014
 Frc consts  --      6.0232                 6.0633                 6.2326
 IR Inten    --     29.1925                22.6526                21.5885

 - Thermochemistry -
 -------------------
 Temperature   298.150 Kelvin.  Pressure   1.00000 Atm.
 Atom     1 has atomic number  6 and mass  12.00000

 Molecular mass:   126.06808 amu.
 Principal axes and moments of inertia in atomic units:
                           1         2         3
     Eigenvalues --   689.284291194.367471760.68748
           X            0.99983   0.01595   0.00894
           Y           -0.01580   0.99972  -0.01733
           Z           -0.00921   0.01719   0.99981
 This molecule is an asymmetric top.
 Rotational symmetry number  1.
 Warning -- assumption of classical behavior for rotation
           may cause significant error
 Rotational temperatures (Kelvin)      0.12566     0.07252     0.04919
 Rotational constants (GHZ):           2.61828     1.51104     1.02502
 Zero-point vibrational energy     421126.2 (Joules/Mol)
                                  100.65157 (Kcal/Mol)
 Warning -- explicit consideration of  12 degrees of freedom as
           vibrations may cause significant error
 Vibrational temperatures:    117.21   204.57   272.08   298.21   422.78
          (Kelvin)            500.55   518.10   532.84   583.50   702.14
                              781.63   871.72  1078.08  1173.51  1250.29
                             1312.29  1320.41  1417.96  1464.40  1486.51
                             1530.82  1564.41  1642.00  1660.37  1699.34
                             1754.07  1795.93  1825.28  1862.92  1916.25
                             1939.58  1977.72  2000.38  2027.72  2088.74
                             2113.67  2132.09  2136.82  2151.53  2177.68
                             3397.47  4264.58  4284.69  4302.26  4345.25
                             4350.21  4383.35  4384.86  4399.09  4422.82
                             4458.88

 Zero-point correction=                           0.160398 (Hartree/Particle)
 Thermal correction to Energy=                    0.168834
 Thermal correction to Enthalpy=                  0.169778
 Thermal correction to Gibbs Free Energy=         0.127352
 Sum of electronic and zero-point Energies=           -422.980161
 Sum of electronic and thermal Energies=              -422.971725
 Sum of electronic and thermal Enthalpies=            -422.970781
 Sum of electronic and thermal Free Energies=         -423.013207

                     E (Thermal)             CV                S
                      KCal/Mol        Cal/Mol-Kelvin    Cal/Mol-Kelvin
 Total                  105.945             31.797             89.293
 Electronic               0.000              0.000              0.000
 Translational            0.889              2.981             40.409
 Rotational               0.889              2.981             28.762
 Vibrational            104.167             25.836             20.122
 Vibration     1          0.600              1.962              3.855
 Vibration     2          0.616              1.911              2.774
 Vibration     3          0.633              1.855              2.237
 Vibration     4          0.641              1.830              2.068
 Vibration     5          0.689              1.685              1.452
 Vibration     6          0.726              1.580              1.176
 Vibration     7          0.735              1.554              1.122
 Vibration     8          0.742              1.533              1.078
 Vibration     9          0.771              1.458              0.942
 Vibration    10          0.844              1.277              0.689
 Vibration    11          0.898              1.154              0.558
 Vibration    12          0.965              1.019              0.440

 Optimization completed.
    -- Stationary point found.
 Normal termination of Gaussian 09 at Mon Jan 27 13:38:14 2020.
