 Gaussian 09, Revision D.01,
 Gaussian 09:  ES64L-G09RevD.01 24-Apr-2013

 -----------------------------
 # b3lyp 6-31G(2df,p) opt Freq
 -----------------------------

 -----
 titel
 -----
 Symbolic Z-matrix:
 Charge =  0 Multiplicity = 1

 SCF Done:  E(RB3LYP) =  -423.219960146     A.U. after   14 cycles
 Optimization completed.
    -- Stationary point found.
 Normal termination of Gaussian 09 at Mon Jan 27 16:22:42 2020.

 ----------------------------------------------------------------------
 #N Geom=AllCheck Guess=TCheck SCRF=Check GenChk RB3LYP/6-31G(2df,p) Fr
 eq
 ----------------------------------------------------------------------

 Structure from the checkpoint file:  "/scratch/puck/g09_405de9e4-4b28-4d57-9f84-1b8b90e36e3b/Gau-57182.chk"
 -----
 titel
 -----
 Charge =  0 Multiplicity = 1

                         Standard orientation:
 ---------------------------------------------------------------------
 Center     Atomic      Atomic             Coordinates (Angstroms)
 Number     Number       Type             X           Y           Z
 ---------------------------------------------------------------------
      1          6           0       -2.220162   -0.499303   -0.246239
      2          6           0       -0.745137   -0.384082    0.099967
      3          8           0       -0.611851   -0.690650    1.495471
      4          6           0        0.138728   -1.333516   -0.734318
      5          6           0        1.607619   -1.102018   -0.476534
      6          6           0        2.094587    0.042993    0.005738
      7          6           0        1.239134    1.246416    0.315638
      8          6           0       -0.218416    1.052343   -0.095371
      9          8           0       -0.891676    1.953959   -0.531081
     10          1           0       -2.810772    0.140029    0.413085
     11          1           0       -2.400871   -0.181998   -1.275413
     12          1           0       -2.551391   -1.533862   -0.121652
     13          1           0        0.307532   -0.934759    1.655537
     14          1           0       -0.138489   -2.364850   -0.482378
     15          1           0       -0.084479   -1.208809   -1.803059
     16          1           0        2.285668   -1.921413   -0.700428
     17          1           0        3.162963    0.149386    0.176551
     18          1           0        1.264743    1.467000    1.392831
     19          1           0        1.615199    2.145799   -0.183478
 ---------------------------------------------------------------------

 SCF Done:  E(RB3LYP) =  -423.219960146     A.U. after    1 cycles

 The electronic state is 1-A.
 Alpha  occ. eigenvalues --  -19.14328 -19.13224 -10.26558 -10.24474 -10.20228
 Alpha  occ. eigenvalues --  -10.19980 -10.19974 -10.19944 -10.17139  -1.04587
 Alpha  occ. eigenvalues --   -1.02300  -0.83439  -0.77319  -0.73811  -0.68449
 Alpha  occ. eigenvalues --   -0.62087  -0.56888  -0.53907  -0.49152  -0.47543
 Alpha  occ. eigenvalues --   -0.46646  -0.45246  -0.43304  -0.42196  -0.39922
 Alpha  occ. eigenvalues --   -0.39239  -0.38103  -0.36686  -0.36032  -0.35469
 Alpha  occ. eigenvalues --   -0.32549  -0.30111  -0.26360  -0.23220
 Alpha virt. eigenvalues --   -0.01694   0.00505   0.07501   0.10751   0.11339
 Alpha virt. eigenvalues --    0.13431   0.13594   0.15843   0.16564   0.17381
 Alpha virt. eigenvalues --    0.17584   0.18748   0.20118   0.21231   0.22731

 Mulliken charges:
               1
     1  C   -0.414115
     2  C    0.243453
     3  O   -0.470336
     4  C   -0.296607
     5  C   -0.093542
     6  C   -0.052166
     7  C   -0.374999
     8  C    0.396016
     9  O   -0.318717
    10  H    0.135238
    11  H    0.125876
    12  H    0.113424
    13  H    0.285672
    14  H    0.117005
    15  H    0.125400
    16  H    0.097866
    17  H    0.100051
    18  H    0.143226
    19  H    0.137254
 Sum of Mulliken charges =   0.00000

 Dipole moment (field-independent basis, Debye):
    X=              2.5243    Y=             -1.9833    Z=             -0.1439  Tot=              3.2135
 Quadrupole moment (field-independent basis, Debye-Ang):
   XX=            -51.6922   YY=            -55.6615   ZZ=            -54.2500
   XY=              2.5655   XZ=              2.2174   YZ=              3.2248

  Exact polarizability:  84.905   1.983  82.368   4.439   4.376  61.465
 Approx polarizability: 114.551   1.406 129.419   8.769   4.905 100.595

                      1                      2                      3
                      A                      A                      A
 Frequencies --     82.5390               138.1080               201.2171
 Red. masses --      4.2708                 2.5201                 1.0510
 Frc consts  --      0.0171                 0.0283                 0.0251
 IR Inten    --      2.9293                 1.9195                 0.2646

                      4                      5                      6
                      A                      A                      A
 Frequencies --    231.6770               287.3219               345.6075
 Red. masses --      4.1889                 2.7761                 3.5141
 Frc consts  --      0.1325                 0.1350                 0.2473
 IR Inten    --      9.4447                 0.6044                 1.8489

                      7                      8                      9
                      A                      A                      A
 Frequencies --    360.8004               376.7559               412.1703
 Red. masses --      3.2588                 1.5982                 1.2483
 Frc consts  --      0.2499                 0.1337                 0.1249
 IR Inten    --      1.9465                18.5904                41.5324

                     10                     11                     12
                      A                      A                      A
 Frequencies --    483.7684               501.2584               534.0653
 Red. masses --      4.1312                 4.7330                 3.8815
 Frc consts  --      0.5696                 0.7007                 0.6523
 IR Inten    --      9.7917                 3.6115                 2.3383

                     13                     14                     15
                      A                      A                      A
 Frequencies --    607.4785               668.2590               690.1259
 Red. masses --      2.6105                 3.8370                 1.3278
 Frc consts  --      0.5676                 1.0096                 0.3726
 IR Inten    --      0.2476                 1.2506                25.6026

                     16                     17                     18
                      A                      A                      A
 Frequencies --    807.5546               882.3081               905.0975
 Red. masses --      3.3176                 2.7346                 2.7620
 Frc consts  --      1.2747                 1.2543                 1.3331
 IR Inten    --      9.5951                14.2719                 5.3886

                     19                     20                     21
                      A                      A                      A
 Frequencies --    939.0741               965.6280               978.5461
 Red. masses --      2.3839                 2.1041                 1.8693
 Frc consts  --      1.2386                 1.1559                 1.0546
 IR Inten    --      8.3890                 1.9412                 3.0010

                     22                     23                     24
                      A                      A                      A
 Frequencies --   1005.1267              1011.4764              1082.2829
 Red. masses --      1.2953                 1.6165                 2.7389
 Frc consts  --      0.7710                 0.9744                 1.8902
 IR Inten    --      3.4530                 8.8034                46.9557

                     25                     26                     27
                      A                      A                      A
 Frequencies --   1127.9452              1142.7726              1158.0609
 Red. masses --      1.7692                 1.6022                 1.5261
 Frc consts  --      1.3261                 1.2328                 1.2059
 IR Inten    --     20.0298                14.2185                15.1479

                     28                     29                     30
                      A                      A                      A
 Frequencies --   1196.3182              1230.2440              1281.4049
 Red. masses --      1.3322                 1.4522                 1.9752
 Frc consts  --      1.1233                 1.2950                 1.9109
 IR Inten    --      9.8407                30.3137                10.9025

                     31                     32                     33
                      A                      A                      A
 Frequencies --   1323.2215              1333.5055              1394.4965
 Red. masses --      1.6894                 1.4529                 1.5951
 Frc consts  --      1.7428                 1.5222                 1.8276
 IR Inten    --     20.1351                16.6430                28.8856

                     34                     35                     36
                      A                      A                      A
 Frequencies --   1408.4480              1421.5189              1444.4690
 Red. masses --      1.4757                 1.5508                 1.0820
 Frc consts  --      1.7247                 1.8464                 1.3302
 IR Inten    --      2.6797                21.3673                 8.3211

                     37                     38                     39
                      A                      A                      A
 Frequencies --   1462.0837              1478.1906              1491.7722
 Red. masses --      1.0937                 1.0528                 1.0512
 Frc consts  --      1.3775                 1.3553                 1.3783
 IR Inten    --      3.9349                 4.0316                 2.1049

                     40                     41                     42
                      A                      A                      A
 Frequencies --   1714.9044              1825.0141              3012.6140
 Red. masses --      6.4621                12.2780                 1.0678
 Frc consts  --     11.1971                24.0942                 5.7100
 IR Inten    --      2.4532               157.8746                 7.0888

                     43                     44                     45
                      A                      A                      A
 Frequencies --   3013.8476              3050.8611              3055.8999
 Red. masses --      1.0612                 1.0989                 1.0361
 Frc consts  --      5.6794                 6.0262                 5.7009
 IR Inten    --     19.1135                11.4237                15.8588

                     46                     47                     48
                      A                      A                      A
 Frequencies --   3073.8302              3131.7805              3141.1520
 Red. masses --      1.0915                 1.1018                 1.1017
 Frc consts  --      6.0760                 6.3667                 6.4047
 IR Inten    --      6.5545                14.3947                11.4575

                     49                     50                     51
                      A                      A                      A
 Frequencies --   3149.7450              3172.3488              3784.8258
 Red. masses --      1.0838                 1.0970                 1.0657
 Frc consts  --      6.3351                 6.5046                 8.9945
 IR Inten    --      3.6365                29.7937                23.6795

 - Thermochemistry -
 -------------------
 Temperature   298.150 Kelvin.  Pressure   1.00000 Atm.
 Atom     1 has atomic number  6 and mass  12.00000

 Molecular mass:   126.06808 amu.
 Principal axes and moments of inertia in atomic units:
                           1         2         3
     Eigenvalues --   799.532861035.004851392.54629
           X            0.99657   0.07979   0.02183
           Y           -0.08086   0.99529   0.05345
           Z           -0.01746  -0.05504   0.99833
 This molecule is an asymmetric top.
 Rotational symmetry number  1.
 Warning -- assumption of classical behavior for rotation
           may cause significant error
 Rotational temperatures (Kelvin)      0.10833     0.08368     0.06220
 Rotational constants (GHZ):           2.25724     1.74370     1.29600
 Zero-point vibrational energy     415819.1 (Joules/Mol)
                                   99.38315 (Kcal/Mol)
 Warning -- explicit consideration of  13 degrees of freedom as
           vibrations may cause significant error
 Vibrational temperatures:    118.76   198.71   289.51   333.33   413.39
          (Kelvin)            497.25   519.11   542.07   593.02   696.03
                              721.20   768.40   874.02   961.47   992.94
                             1161.89  1269.44  1302.23  1351.12  1389.32
                             1407.91  1446.15  1455.29  1557.16  1622.86
                             1644.19  1666.19  1721.23  1770.04  1843.65
                             1903.82  1918.61  2006.37  2026.44  2045.25
                             2078.27  2103.61  2126.78  2146.32  2467.36
                             2625.78  4334.47  4336.25  4389.50  4396.75
                             4422.55  4505.93  4519.41  4531.77  4564.30
                             5445.51

 Zero-point correction=                           0.158377 (Hartree/Particle)
 Thermal correction to Energy=                    0.167143
 Thermal correction to Enthalpy=                  0.168087
 Thermal correction to Gibbs Free Energy=         0.125381
 Sum of electronic and zero-point Energies=           -423.061583
 Sum of electronic and thermal Energies=              -423.052817
 Sum of electronic and thermal Enthalpies=            -423.051873
 Sum of electronic and thermal Free Energies=         -423.094579

                     E (Thermal)             CV                S
                      KCal/Mol        Cal/Mol-Kelvin    Cal/Mol-Kelvin
 Total                  104.884             33.943             89.882
 Electronic               0.000              0.000              0.000
 Translational            0.889              2.981             40.409
 Rotational               0.889              2.981             28.535
 Vibrational            103.106             27.982             20.939
 Vibration     1          0.600              1.961              3.830
 Vibration     2          0.614              1.915              2.830
 Vibration     3          0.638              1.838              2.122
 Vibration     4          0.653              1.793              1.866
 Vibration     5          0.684              1.697              1.490
 Vibration     6          0.724              1.584              1.186
 Vibration     7          0.735              1.553              1.119
 Vibration     8          0.747              1.520              1.052
 Vibration     9          0.776              1.444              0.919
 Vibration    10          0.840              1.286              0.700
 Vibration    11          0.857              1.247              0.655
 Vibration    12          0.889              1.175              0.578
 Vibration    13          0.966              1.016              0.437

 Optimization completed.
    -- Stationary point found.
 Normal termination of Gaussian 09 at Mon Jan 27 17:07:44 2020.
