 Gaussian 09, Revision D.01,
 Gaussian 09:  ES64L-G09RevD.01 24-Apr-2013

 -----------------------------
 # b3lyp 6-31G(2df,p) opt Freq
 -----------------------------

 -----
 titel
 -----
 Symbolic Z-matrix:
 Charge =  0 Multiplicity = 1

 SCF Done:  E(RB3LYP) =  -423.155242579     A.U. after   14 cycles
 Optimization completed.
    -- Stationary point found.
 Normal termination of Gaussian 09 at Tue Jan 28 02:54:11 2020.

 ----------------------------------------------------------------------
 #N Geom=AllCheck Guess=TCheck SCRF=Check GenChk RB3LYP/6-31G(2df,p) Fr
 eq
 ----------------------------------------------------------------------

 Structure from the checkpoint file:  "/scratch/puck/g09_4dbf71bc-a915-4beb-bac9-958706f5a3bd/Gau-11496.chk"
 -----
 titel
 -----
 Charge =  0 Multiplicity = 1

                         Standard orientation:
 ---------------------------------------------------------------------
 Center     Atomic      Atomic             Coordinates (Angstroms)
 Number     Number       Type             X           Y           Z
 ---------------------------------------------------------------------
      1          8           0       -2.964992   -1.207422   -0.151924
      2          6           0       -1.880605   -0.528429    0.434795
      3          6           0       -2.008310    1.034070    0.480346
      4          6           0       -0.758767    1.148511   -0.403224
      5          6           0        0.402730    0.461676    0.260462
      6          6           0        1.772542    0.597570   -0.379971
      7          6           0        2.677309   -0.573242   -0.047526
      8          8           0        3.804070   -0.474334    0.363241
      9          6           0       -0.631663   -0.377706   -0.449914
     10          1           0       -3.137793   -0.808053   -1.012095
     11          1           0       -1.714809   -1.024570    1.396250
     12          1           0       -2.926611    1.344916   -0.025714
     13          1           0       -1.964512    1.523518    1.458989
     14          1           0       -0.600341    1.876005   -1.191201
     15          1           0        0.423752    0.432636    1.350558
     16          1           0        1.658599    0.621891   -1.473889
     17          1           0        2.276182    1.520461   -0.076461
     18          1           0        2.210892   -1.572111   -0.212475
     19          1           0       -0.377407   -1.035341   -1.274302
 ---------------------------------------------------------------------

 SCF Done:  E(RB3LYP) =  -423.155242579     A.U. after    1 cycles

 The electronic state is 1-A.
 Alpha  occ. eigenvalues --  -19.14337 -19.14099 -10.27281 -10.24167 -10.21074
 Alpha  occ. eigenvalues --  -10.20487 -10.20252 -10.20004 -10.19136  -1.04782
 Alpha  occ. eigenvalues --   -1.02803  -0.90526  -0.78008  -0.70452  -0.66071
 Alpha  occ. eigenvalues --   -0.60102  -0.57582  -0.56038  -0.52428  -0.48732
 Alpha  occ. eigenvalues --   -0.47004  -0.45959  -0.43938  -0.43066  -0.41148
 Alpha  occ. eigenvalues --   -0.39019  -0.38510  -0.37597  -0.35965  -0.32367
 Alpha  occ. eigenvalues --   -0.30287  -0.28143  -0.26010  -0.24854
 Alpha virt. eigenvalues --   -0.02366   0.07397   0.08823   0.09566   0.10649
 Alpha virt. eigenvalues --    0.11370   0.12613   0.13884   0.14679   0.15288
 Alpha virt. eigenvalues --    0.16217   0.17799   0.19521   0.21557   0.22392

 Mulliken charges:
               1
     1  O   -0.434035
     2  C    0.149850
     3  C   -0.289244
     4  C   -0.070103
     5  C   -0.018921
     6  C   -0.320294
     7  C    0.165419
     8  O   -0.236603
     9  C   -0.107626
    10  H    0.277784
    11  H    0.091389
    12  H    0.103641
    13  H    0.101473
    14  H    0.087463
    15  H    0.090099
    16  H    0.119029
    17  H    0.125045
    18  H    0.076934
    19  H    0.088700
 Sum of Mulliken charges =   0.00000

 Dipole moment (field-independent basis, Debye):
    X=             -1.9554    Y=              1.4339    Z=             -1.6754  Tot=              2.9473
 Quadrupole moment (field-independent basis, Debye-Ang):
   XX=            -70.0585   YY=            -54.8282   ZZ=            -49.6567
   XY=             -2.3890   XZ=             -0.1399   YZ=              0.6014

  Exact polarizability:  95.801  -0.419  71.086   2.692   0.329  64.136
 Approx polarizability: 125.674   1.670 107.921   9.155   0.591 101.151

                      1                      2                      3
                      A                      A                      A
 Frequencies --     54.8606                68.8573               146.1552
 Red. masses --      4.5579                 4.3026                 2.5964
 Frc consts  --      0.0081                 0.0120                 0.0327
 IR Inten    --      5.9612                 1.6503                 1.9164

                      4                      5                      6
                      A                      A                      A
 Frequencies --    150.0971               228.7643               322.7497
 Red. masses --      2.9146                 2.7462                 1.4782
 Frc consts  --      0.0387                 0.0847                 0.0907
 IR Inten    --      2.9907                 3.5193                50.8893

                      7                      8                      9
                      A                      A                      A
 Frequencies --    342.7983               381.7326               427.9842
 Red. masses --      2.3340                 3.5316                 3.2670
 Frc consts  --      0.1616                 0.3032                 0.3526
 IR Inten    --     24.0290                 4.9657                22.9690

                     10                     11                     12
                      A                      A                      A
 Frequencies --    471.0651               531.0536               725.9198
 Red. masses --      2.3631                 2.2039                 2.6822
 Frc consts  --      0.3090                 0.3662                 0.8328
 IR Inten    --      5.7510                 6.0728                 8.2252

                     13                     14                     15
                      A                      A                      A
 Frequencies --    780.8853               812.8978               866.0909
 Red. masses --      1.9738                 1.8288                 2.8292
 Frc consts  --      0.7091                 0.7120                 1.2504
 IR Inten    --      8.0004                 1.9629                 3.3894

                     16                     17                     18
                      A                      A                      A
 Frequencies --    887.1030               896.4731               935.8075
 Red. masses --      1.9277                 1.9806                 1.9176
 Frc consts  --      0.8938                 0.9378                 0.9894
 IR Inten    --      8.9168                 3.1962                 4.3693

                     19                     20                     21
                      A                      A                      A
 Frequencies --   1003.7887              1008.6993              1019.3867
 Red. masses --      1.8566                 1.7200                 2.5314
 Frc consts  --      1.1022                 1.0311                 1.5498
 IR Inten    --      9.2728                 1.1566                13.2445

                     22                     23                     24
                      A                      A                      A
 Frequencies --   1034.3680              1060.2453              1097.4916
 Red. masses --      1.7839                 1.6007                 1.5221
 Frc consts  --      1.1246                 1.0602                 1.0802
 IR Inten    --      5.6160                26.4211                10.0562

                     25                     26                     27
                      A                      A                      A
 Frequencies --   1106.7201              1134.7914              1153.1612
 Red. masses --      2.4834                 1.9618                 1.4567
 Frc consts  --      1.7922                 1.4885                 1.1413
 IR Inten    --     31.2239                59.2180                24.7487

                     28                     29                     30
                      A                      A                      A
 Frequencies --   1178.3749              1229.1851              1236.1349
 Red. masses --      1.8225                 1.4007                 1.5419
 Frc consts  --      1.4910                 1.2469                 1.3882
 IR Inten    --     16.4637                 9.5381                 4.6279

                     31                     32                     33
                      A                      A                      A
 Frequencies --   1247.8205              1270.5847              1282.6241
 Red. masses --      1.4950                 1.4839                 1.3741
 Frc consts  --      1.3715                 1.4114                 1.3319
 IR Inten    --      1.3587                12.4037                 3.4741

                     34                     35                     36
                      A                      A                      A
 Frequencies --   1309.9202              1327.7370              1424.0980
 Red. masses --      1.6161                 1.5176                 1.2762
 Frc consts  --      1.6338                 1.5763                 1.5249
 IR Inten    --      1.3426                 3.7435                 6.5571

                     37                     38                     39
                      A                      A                      A
 Frequencies --   1426.8254              1432.3310              1458.1063
 Red. masses --      2.1800                 1.2471                 1.0886
 Frc consts  --      2.6148                 1.5074                 1.3636
 IR Inten    --      2.1595                86.2681                 5.6926

                     40                     41                     42
                      A                      A                      A
 Frequencies --   1483.9853              1836.5261              2867.3910
 Red. masses --      1.1079                10.1554                 1.0822
 Frc consts  --      1.4375                20.1809                 5.2423
 IR Inten    --      1.2452               195.0097                90.0765

                     43                     44                     45
                      A                      A                      A
 Frequencies --   3010.6715              3043.3631              3062.1407
 Red. masses --      1.0648                 1.0611                 1.0857
 Frc consts  --      5.6867                 5.7904                 5.9981
 IR Inten    --      8.8927                39.4121                36.3094

                     46                     47                     48
                      A                      A                      A
 Frequencies --   3086.0749              3096.9064              3102.4707
 Red. masses --      1.0911                 1.0927                 1.1049
 Frc consts  --      6.1226                 6.1747                 6.2658
 IR Inten    --     10.4040                17.4803                32.6403

                     49                     50                     51
                      A                      A                      A
 Frequencies --   3165.7533              3177.2608              3793.7649
 Red. masses --      1.0884                 1.0966                 1.0657
 Frc consts  --      6.4268                 6.5222                 9.0370
 IR Inten    --     15.9524                13.8022                12.6260

 - Thermochemistry -
 -------------------
 Temperature   298.150 Kelvin.  Pressure   1.00000 Atm.
 Atom     1 has atomic number  8 and mass  15.99491

 Molecular mass:   126.06808 amu.
 Principal axes and moments of inertia in atomic units:
                           1         2         3
     Eigenvalues --   407.070392378.022132594.19196
           X            0.99998  -0.00401  -0.00535
           Y            0.00405   0.99995   0.00875
           Z            0.00532  -0.00877   0.99995
 This molecule is an asymmetric top.
 Rotational symmetry number  1.
 Rotational temperatures (Kelvin)      0.21277     0.03642     0.03339
 Rotational constants (GHZ):           4.43349     0.75893     0.69569
 Zero-point vibrational energy     413907.9 (Joules/Mol)
                                   98.92636 (Kcal/Mol)
 Warning -- explicit consideration of  11 degrees of freedom as
           vibrations may cause significant error
 Vibrational temperatures:     78.93    99.07   210.28   215.96   329.14
          (Kelvin)            464.36   493.21   549.23   615.77   677.76
                              764.07  1044.44  1123.52  1169.58  1246.11
                             1276.34  1289.82  1346.42  1444.23  1451.29
                             1466.67  1488.22  1525.45  1579.04  1592.32
                             1632.71  1659.14  1695.42  1768.52  1778.52
                             1795.33  1828.09  1845.41  1884.68  1910.32
                             2048.96  2052.88  2060.80  2097.89  2135.12
                             2642.35  4125.53  4331.68  4378.72  4405.73
                             4440.17  4455.75  4463.76  4554.81  4571.36
                             5458.37

 Zero-point correction=                           0.157649 (Hartree/Particle)
 Thermal correction to Energy=                    0.166613
 Thermal correction to Enthalpy=                  0.167557
 Thermal correction to Gibbs Free Energy=         0.122995
 Sum of electronic and zero-point Energies=           -422.997593
 Sum of electronic and thermal Energies=              -422.988629
 Sum of electronic and thermal Enthalpies=            -422.987685
 Sum of electronic and thermal Free Energies=         -423.032247

                     E (Thermal)             CV                S
                      KCal/Mol        Cal/Mol-Kelvin    Cal/Mol-Kelvin
 Total                  104.551             32.903             93.788
 Electronic               0.000              0.000              0.000
 Translational            0.889              2.981             40.409
 Rotational               0.889              2.981             29.308
 Vibrational            102.774             26.942             24.071
 Vibration     1          0.596              1.976              4.634
 Vibration     2          0.598              1.969              4.186
 Vibration     3          0.617              1.907              2.722
 Vibration     4          0.618              1.903              2.671
 Vibration     5          0.651              1.797              1.889
 Vibration     6          0.708              1.630              1.296
 Vibration     7          0.722              1.590              1.199
 Vibration     8          0.751              1.509              1.032
 Vibration     9          0.789              1.409              0.865
 Vibration    10          0.828              1.314              0.735
 Vibration    11          0.886              1.181              0.585

 Normal termination of Gaussian 09 at Tue Jan 28 03:36:40 2020.
