 Gaussian 09, Revision D.01,
 Gaussian 09:  ES64L-G09RevD.01 24-Apr-2013

 -----------------------------
 # b3lyp 6-31G(2df,p) opt Freq
 -----------------------------

 -----
 titel
 -----
 Symbolic Z-matrix:
 Charge =  0 Multiplicity = 1

 SCF Done:  E(RB3LYP) =  -423.127321823     A.U. after   14 cycles
 Optimization completed.
    -- Stationary point found.
 Normal termination of Gaussian 09 at Mon Jan 27 16:17:31 2020.

 ----------------------------------------------------------------------
 #N Geom=AllCheck Guess=TCheck SCRF=Check GenChk RB3LYP/6-31G(2df,p) Fr
 eq
 ----------------------------------------------------------------------

 Structure from the checkpoint file:  "/scratch/puck/g09_2cc91487-ede3-4e6d-9ee2-94e4adf6059a/Gau-36384.chk"
 -----
 titel
 -----
 Charge =  0 Multiplicity = 1

                         Standard orientation:
 ---------------------------------------------------------------------
 Center     Atomic      Atomic             Coordinates (Angstroms)
 Number     Number       Type             X           Y           Z
 ---------------------------------------------------------------------
      1          6           0       -1.385237    1.405087    0.644999
      2          6           0       -1.316879    0.069166   -0.059676
      3          8           0       -2.527165   -0.296906   -0.680803
      4          6           0       -0.629422   -1.154050    0.457275
      5          6           0        0.665680   -0.823556    1.211924
      6          6           0        1.173924   -0.135161   -0.072506
      7          6           0        2.541129   -0.067787   -0.584118
      8          8           0        1.864479    1.108284   -0.116820
      9          6           0       -0.100766   -0.438048   -0.814969
     10          1           0       -2.163453    1.387290    1.414844
     11          1           0       -0.435587    1.684538    1.104019
     12          1           0       -1.638278    2.194658   -0.073334
     13          1           0       -2.716617    0.360772   -1.359270
     14          1           0       -1.163292   -2.093881    0.505259
     15          1           0        0.575599   -0.192799    2.100760
     16          1           0        1.248768   -1.712388    1.465751
     17          1           0        3.368487   -0.411593    0.036498
     18          1           0        2.722230   -0.104424   -1.658193
     19          1           0       -0.186944   -0.737100   -1.852929
 ---------------------------------------------------------------------

 SCF Done:  E(RB3LYP) =  -423.127321823     A.U. after    1 cycles

 The electronic state is 1-A.
 Alpha  occ. eigenvalues --  -19.14620 -19.14213 -10.24439 -10.24318 -10.23092
 Alpha  occ. eigenvalues --  -10.19459 -10.18985 -10.18896 -10.17532  -1.06697
 Alpha  occ. eigenvalues --   -1.03020  -0.88686  -0.73544  -0.69901  -0.66461
 Alpha  occ. eigenvalues --   -0.63646  -0.55738  -0.53597  -0.52111  -0.48813
 Alpha  occ. eigenvalues --   -0.47698  -0.45537  -0.43087  -0.42293  -0.39622
 Alpha  occ. eigenvalues --   -0.39073  -0.36836  -0.35238  -0.34253  -0.31915
 Alpha  occ. eigenvalues --   -0.30301  -0.26821  -0.26080  -0.24592
 Alpha virt. eigenvalues --    0.07308   0.08136   0.10098   0.11160   0.12208
 Alpha virt. eigenvalues --    0.13391   0.14337   0.14983   0.15659   0.15955
 Alpha virt. eigenvalues --    0.17952   0.18760   0.19360   0.20793   0.21982

 Mulliken charges:
               1
     1  C   -0.466187
     2  C    0.407734
     3  O   -0.473427
     4  C   -0.089846
     5  C   -0.351409
     6  C    0.448495
     7  C   -0.266672
     8  O   -0.278955
     9  C   -0.228585
    10  H    0.122831
    11  H    0.144728
    12  H    0.109451
    13  H    0.280971
    14  H    0.100727
    15  H    0.111435
    16  H    0.113235
    17  H    0.112801
    18  H    0.114083
    19  H    0.088589
 Sum of Mulliken charges =   0.00000

 Dipole moment (field-independent basis, Debye):
    X=              0.2767    Y=             -0.6633    Z=             -0.6222  Tot=              0.9506
 Quadrupole moment (field-independent basis, Debye-Ang):
   XX=            -53.6803   YY=            -54.6028   ZZ=            -49.4989
   XY=             -6.8461   XZ=              1.1860   YZ=             -1.3661

  Exact polarizability:  89.562  -3.257  67.451  -1.194  -2.117  70.877
 Approx polarizability: 118.793  -0.317 104.286  -2.033  -4.304 106.924

                      1                      2                      3
                      A                      A                      A
 Frequencies --    105.9684               199.6168               202.5370
 Red. masses --      4.1081                 3.8098                 1.2962
 Frc consts  --      0.0272                 0.0894                 0.0313
 IR Inten    --      3.6408                 4.2260                 0.6235

                      4                      5                      6
                      A                      A                      A
 Frequencies --    242.1739               304.0833               312.4119
 Red. masses --      1.7712                 2.5626                 1.1627
 Frc consts  --      0.0612                 0.1396                 0.0669
 IR Inten    --      5.7516                 5.7300                81.7983

                      7                      8                      9
                      A                      A                      A
 Frequencies --    365.5675               407.5349               424.4907
 Red. masses --      3.0420                 3.5319                 3.1118
 Frc consts  --      0.2395                 0.3456                 0.3304
 IR Inten    --      3.7647                12.8710                 1.4664

                     10                     11                     12
                      A                      A                      A
 Frequencies --    459.7006               502.3507               599.7864
 Red. masses --      2.6669                 3.0177                 5.1434
 Frc consts  --      0.3321                 0.4487                 1.0902
 IR Inten    --      2.1327                 3.9111                15.7070

                     13                     14                     15
                      A                      A                      A
 Frequencies --    679.8741               788.7500               829.3319
 Red. masses --      3.6759                 2.9127                 1.7177
 Frc consts  --      1.0011                 1.0676                 0.6961
 IR Inten    --      0.5474                 3.4722                 3.7630

                     16                     17                     18
                      A                      A                      A
 Frequencies --    844.4013               889.7927               906.7603
 Red. masses --      2.1899                 2.7007                 1.5211
 Frc consts  --      0.9200                 1.2598                 0.7369
 IR Inten    --     48.8146                11.2495                 1.1633

                     19                     20                     21
                      A                      A                      A
 Frequencies --    932.9748               963.1268               987.3110
 Red. masses --      2.5795                 2.7579                 1.3197
 Frc consts  --      1.3229                 1.5073                 0.7579
 IR Inten    --      5.1217                25.1463                 5.5691

                     22                     23                     24
                      A                      A                      A
 Frequencies --   1006.2954              1026.3299              1075.3963
 Red. masses --      1.6272                 2.6341                 2.3245
 Frc consts  --      0.9708                 1.6347                 1.5838
 IR Inten    --      3.4582                11.8401                11.6968

                     25                     26                     27
                      A                      A                      A
 Frequencies --   1093.8903              1112.9145              1126.2960
 Red. masses --      1.5353                 1.4582                 1.3696
 Frc consts  --      1.0824                 1.0641                 1.0236
 IR Inten    --     20.9157                 7.8512                 4.3722

                     28                     29                     30
                      A                      A                      A
 Frequencies --   1163.4778              1173.7737              1188.8206
 Red. masses --      1.5261                 1.5848                 1.7029
 Frc consts  --      1.2172                 1.2864                 1.4180
 IR Inten    --      1.3230                39.3127                17.3438

                     31                     32                     33
                      A                      A                      A
 Frequencies --   1237.1326              1250.6547              1277.5647
 Red. masses --      2.1130                 1.5488                 2.8576
 Frc consts  --      1.9054                 1.4273                 2.7480
 IR Inten    --     40.6483                 2.1100                19.7074

                     34                     35                     36
                      A                      A                      A
 Frequencies --   1308.7774              1415.5010              1427.1142
 Red. masses --      1.6586                 1.5569                 1.7881
 Frc consts  --      1.6739                 1.8379                 2.1456
 IR Inten    --     40.0239                 7.7602                32.3061

                     37                     38                     39
                      A                      A                      A
 Frequencies --   1449.3852              1479.2492              1497.5887
 Red. masses --      2.1382                 1.1031                 1.0765
 Frc consts  --      2.6465                 1.4222                 1.4225
 IR Inten    --     13.8093                 5.7621                 0.3694

                     40                     41                     42
                      A                      A                      A
 Frequencies --   1502.3572              1536.6386              3029.7183
 Red. masses --      1.1996                 1.6231                 1.0416
 Frc consts  --      1.5953                 2.2581                 5.6332
 IR Inten    --      7.3933                10.0673                29.8919

                     43                     44                     45
                      A                      A                      A
 Frequencies --   3057.6957              3073.6827              3090.2920
 Red. masses --      1.0586                 1.0504                 1.0975
 Frc consts  --      5.8311                 5.8467                 6.1750
 IR Inten    --     27.8620                31.7785                20.9324

                     46                     47                     48
                      A                      A                      A
 Frequencies --   3107.7821              3141.3507              3158.8036
 Red. masses --      1.1072                 1.0977                 1.1192
 Frc consts  --      6.3008                 6.3819                 6.5795
 IR Inten    --     18.1866                11.2631                22.1643

                     49                     50                     51
                      A                      A                      A
 Frequencies --   3182.3974              3206.5594              3795.4070
 Red. masses --      1.0915                 1.0940                 1.0660
 Frc consts  --      6.5132                 6.6275                 9.0472
 IR Inten    --     11.7182                 7.8818                16.5711

 - Thermochemistry -
 -------------------
 Temperature   298.150 Kelvin.  Pressure   1.00000 Atm.
 Atom     1 has atomic number  6 and mass  12.00000

 Molecular mass:   126.06808 amu.
 Principal axes and moments of inertia in atomic units:
                           1         2         3
     Eigenvalues --   543.458921451.743911544.57594
           X            0.99928  -0.03748  -0.00568
           Y            0.03763   0.99886   0.02947
           Z            0.00457  -0.02966   0.99955
 This molecule is an asymmetric top.
 Rotational symmetry number  1.
 Warning -- assumption of classical behavior for rotation
           may cause significant error
 Rotational temperatures (Kelvin)      0.15938     0.05966     0.05608
 Rotational constants (GHZ):           3.32084     1.24315     1.16844
 Zero-point vibrational energy     413557.4 (Joules/Mol)
                                   98.84258 (Kcal/Mol)
 Warning -- explicit consideration of  12 degrees of freedom as
           vibrations may cause significant error
 Vibrational temperatures:    152.46   287.20   291.41   348.43   437.51
          (Kelvin)            449.49   525.97   586.35   610.75   661.41
                              722.77   862.96   978.19  1134.83  1193.22
                             1214.90  1280.21  1304.62  1342.34  1385.72
                             1420.52  1447.83  1476.66  1547.25  1573.86
                             1601.23  1620.49  1673.98  1688.80  1710.45
                             1779.96  1799.41  1838.13  1883.04  2036.59
                             2053.30  2085.34  2128.31  2154.69  2161.55
                             2210.88  4359.08  4399.34  4422.34  4446.24
                             4471.40  4519.70  4544.81  4578.75  4613.52
                             5460.74

 Zero-point correction=                           0.157516 (Hartree/Particle)
 Thermal correction to Energy=                    0.165969
 Thermal correction to Enthalpy=                  0.166914
 Thermal correction to Gibbs Free Energy=         0.125010
 Sum of electronic and zero-point Energies=           -422.969806
 Sum of electronic and thermal Energies=              -422.961352
 Sum of electronic and thermal Enthalpies=            -422.960408
 Sum of electronic and thermal Free Energies=         -423.002312

                     E (Thermal)             CV                S
                      KCal/Mol        Cal/Mol-Kelvin    Cal/Mol-Kelvin
 Total                  104.147             33.440             88.194
 Electronic               0.000              0.000              0.000
 Translational            0.889              2.981             40.409
 Rotational               0.889              2.981             28.590
 Vibrational            102.370             27.479             19.196
 Vibration     1          0.605              1.944              3.341
 Vibration     2          0.638              1.840              2.137
 Vibration     3          0.639              1.836              2.110
 Vibration     4          0.658              1.776              1.787
 Vibration     5          0.695              1.666              1.394
 Vibration     6          0.701              1.650              1.350
 Vibration     7          0.739              1.543              1.098
 Vibration     8          0.772              1.454              0.935
 Vibration     9          0.786              1.417              0.877
 Vibration    10          0.818              1.339              0.767
 Vibration    11          0.858              1.245              0.652
 Vibration    12          0.958              1.032              0.450

 Optimization completed.
    -- Stationary point found.
 Normal termination of Gaussian 09 at Mon Jan 27 17:11:48 2020.
