 Gaussian 09, Revision D.01,
 Gaussian 09:  ES64L-G09RevD.01 24-Apr-2013

 -----------------------------
 # b3lyp 6-31G(2df,p) opt Freq
 -----------------------------

 -----
 titel
 -----
 Symbolic Z-matrix:
 Charge =  0 Multiplicity = 1

 SCF Done:  E(RB3LYP) =  -423.119869907     A.U. after   14 cycles
 Optimization completed.
    -- Stationary point found.
 Normal termination of Gaussian 09 at Mon Jan 27 23:06:12 2020.

 ----------------------------------------------------------------------
 #N Geom=AllCheck Guess=TCheck SCRF=Check GenChk RB3LYP/6-31G(2df,p) Fr
 eq
 ----------------------------------------------------------------------

 Structure from the checkpoint file:  "/scratch/puck/g09_217da801-b247-4bcd-bdcf-69b5ce6945ae/Gau-81807.chk"
 -----
 titel
 -----
 Charge =  0 Multiplicity = 1

                         Standard orientation:
 ---------------------------------------------------------------------
 Center     Atomic      Atomic             Coordinates (Angstroms)
 Number     Number       Type             X           Y           Z
 ---------------------------------------------------------------------
      1          6           0        2.529083    1.525440   -0.073235
      2          6           0        2.065660    0.097198    0.159738
      3          6           0        1.123881   -0.683572   -0.802596
      4          8           0        0.863719   -1.636717    0.301487
      5          6           0        0.752585   -0.286457    0.902344
      6          6           0       -0.094094    0.159093   -0.328120
      7          6           0       -1.490308   -0.426832   -0.519843
      8          6           0       -2.512460    0.236351    0.373463
      9          8           0       -3.538805    0.740948   -0.003614
     10          1           0        3.322085    1.545694   -0.828235
     11          1           0        1.734912    2.196088   -0.409327
     12          1           0        2.947355    1.941891    0.849208
     13          1           0        2.887405   -0.543822    0.488966
     14          1           0        1.326037   -1.104128   -1.789005
     15          1           0        0.518443   -0.231690    1.966635
     16          1           0       -0.064920    1.223710   -0.570921
     17          1           0       -1.823079   -0.326545   -1.557472
     18          1           0       -1.446911   -1.492210   -0.260663
     19          1           0       -2.246720    0.229837    1.457329
 ---------------------------------------------------------------------

 SCF Done:  E(RB3LYP) =  -423.119869907     A.U. after    1 cycles

 The electronic state is 1-A.
 Alpha  occ. eigenvalues --  -19.14229 -19.13774 -10.27042 -10.25688 -10.25635
 Alpha  occ. eigenvalues --  -10.21289 -10.20830 -10.19270 -10.19044  -1.06597
 Alpha  occ. eigenvalues --   -1.04442  -0.81664  -0.77771  -0.71322  -0.66167
 Alpha  occ. eigenvalues --   -0.63970  -0.57477  -0.53274  -0.52633  -0.49127
 Alpha  occ. eigenvalues --   -0.44984  -0.44317  -0.43771  -0.43360  -0.40340
 Alpha  occ. eigenvalues --   -0.39959  -0.39228  -0.36593  -0.34518  -0.33261
 Alpha  occ. eigenvalues --   -0.32592  -0.31717  -0.25187  -0.24724
 Alpha virt. eigenvalues --   -0.02090   0.07677   0.09750   0.10051   0.11267
 Alpha virt. eigenvalues --    0.11981   0.12702   0.13227   0.14003   0.14619
 Alpha virt. eigenvalues --    0.16439   0.16886   0.17968   0.18753   0.19997

 Mulliken charges:
               1
     1  C   -0.445860
     2  C    0.047482
     3  C    0.013800
     4  O   -0.309018
     5  C    0.017991
     6  C   -0.005886
     7  C   -0.314198
     8  C    0.159745
     9  O   -0.240193
    10  H    0.128321
    11  H    0.125252
    12  H    0.128240
    13  H    0.090451
    14  H    0.095459
    15  H    0.096124
    16  H    0.084467
    17  H    0.117008
    18  H    0.141291
    19  H    0.069525
 Sum of Mulliken charges =   0.00000

 Dipole moment (field-independent basis, Debye):
    X=              2.9705    Y=              0.7318    Z=             -0.0714  Tot=              3.0601
 Quadrupole moment (field-independent basis, Debye-Ang):
   XX=            -64.0619   YY=            -57.1490   ZZ=            -49.9931
   XY=              6.1923   XZ=             -1.7670   YZ=              1.4960

  Exact polarizability:  93.438  -0.728  67.784   1.118   1.159  70.388
 Approx polarizability: 122.673  -7.725 107.156   3.481  -0.910 110.572

                      1                      2                      3
                      A                      A                      A
 Frequencies --     54.5237                72.4347               147.1966
 Red. masses --      5.0654                 3.3043                 2.3111
 Frc consts  --      0.0089                 0.0102                 0.0295
 IR Inten    --      6.7181                 3.2943                 1.4853

                      4                      5                      6
                      A                      A                      A
 Frequencies --    174.0458               235.3055               297.1838
 Red. masses --      1.0955                 2.7755                 3.3850
 Frc consts  --      0.0196                 0.0905                 0.1761
 IR Inten    --      0.4367                 1.2284                 1.7359

                      7                      8                      9
                      A                      A                      A
 Frequencies --    309.6470               392.4103               483.7616
 Red. masses --      3.4189                 2.9556                 3.0190
 Frc consts  --      0.1931                 0.2681                 0.4163
 IR Inten    --      1.6242                 4.3851                15.9788

                     10                     11                     12
                      A                      A                      A
 Frequencies --    588.5371               622.4099               747.9885
 Red. masses --      3.8583                 2.6135                 5.0669
 Frc consts  --      0.7874                 0.5965                 1.6703
 IR Inten    --     10.0467                 2.1307                 5.6876

                     13                     14                     15
                      A                      A                      A
 Frequencies --    769.9845               800.4102               838.5141
 Red. masses --      2.6652                 2.3164                 2.5066
 Frc consts  --      0.9310                 0.8743                 1.0384
 IR Inten    --      0.5727                 4.7161                11.7235

                     16                     17                     18
                      A                      A                      A
 Frequencies --    851.8468               874.2112               894.9019
 Red. masses --      1.7538                 2.5120                 3.4749
 Frc consts  --      0.7498                 1.1311                 1.6396
 IR Inten    --      0.2273                12.6264                29.4917

                     19                     20                     21
                      A                      A                      A
 Frequencies --   1025.4175              1030.5422              1044.3741
 Red. masses --      1.5612                 1.2037                 1.9984
 Frc consts  --      0.9672                 0.7532                 1.2842
 IR Inten    --      6.0292                 8.8505                 4.8960

                     22                     23                     24
                      A                      A                      A
 Frequencies --   1058.1820              1100.9167              1117.6549
 Red. masses --      1.8439                 3.6066                 1.5952
 Frc consts  --      1.2165                 2.5755                 1.1741
 IR Inten    --     27.1364                 1.6173                 1.1672

                     25                     26                     27
                      A                      A                      A
 Frequencies --   1133.1665              1148.2884              1155.6685
 Red. masses --      1.6576                 2.1580                 2.4900
 Frc consts  --      1.2540                 1.6765                 1.9593
 IR Inten    --      2.2891                 4.0423                 6.2320

                     28                     29                     30
                      A                      A                      A
 Frequencies --   1185.5110              1217.0956              1228.3279
 Red. masses --      1.4351                 1.3434                 1.4768
 Frc consts  --      1.1883                 1.1724                 1.3128
 IR Inten    --      1.3234                16.9633                 7.9664

                     31                     32                     33
                      A                      A                      A
 Frequencies --   1264.1641              1270.8826              1298.3351
 Red. masses --      1.4167                 1.6610                 1.5297
 Frc consts  --      1.3340                 1.5806                 1.5193
 IR Inten    --      4.6996                 4.1154                 1.4482

                     34                     35                     36
                      A                      A                      A
 Frequencies --   1384.6790              1404.2175              1420.0093
 Red. masses --      1.4350                 1.6171                 1.2498
 Frc consts  --      1.6211                 1.8787                 1.4848
 IR Inten    --     13.4030                 4.5146                 6.6837

                     37                     38                     39
                      A                      A                      A
 Frequencies --   1432.0855              1462.2282              1493.9434
 Red. masses --      1.2004                 1.0986                 1.0462
 Frc consts  --      1.4505                 1.3839                 1.3757
 IR Inten    --      4.1423                 7.2079                 3.8252

                     40                     41                     42
                      A                      A                      A
 Frequencies --   1501.2293              1833.8309              2850.3696
 Red. masses --      1.0542                10.0247                 1.0812
 Frc consts  --      1.3998                19.8628                 5.1756
 IR Inten    --      3.4657               201.1552                97.9099

                     43                     44                     45
                      A                      A                      A
 Frequencies --   3036.4171              3039.6535              3081.5406
 Red. masses --      1.0580                 1.0374                 1.0872
 Frc consts  --      5.7474                 5.6476                 6.0828
 IR Inten    --     15.0427                16.3836                24.0586

                     46                     47                     48
                      A                      A                      A
 Frequencies --   3082.1674              3098.9545              3101.0046
 Red. masses --      1.0831                 1.1006                 1.1014
 Frc consts  --      6.0623                 6.2276                 6.2401
 IR Inten    --     12.5597                16.0772                 8.9379

                     49                     50                     51
                      A                      A                      A
 Frequencies --   3104.8569              3111.9003              3123.5042
 Red. masses --      1.0895                 1.0966                 1.0976
 Frc consts  --      6.1881                 6.2565                 6.3093
 IR Inten    --     87.7749                 1.5331                37.5141

 - Thermochemistry -
 -------------------
 Temperature   298.150 Kelvin.  Pressure   1.00000 Atm.
 Atom     1 has atomic number  6 and mass  12.00000

 Molecular mass:   126.06808 amu.
 Principal axes and moments of inertia in atomic units:
                           1         2         3
     Eigenvalues --   517.387521957.227092192.92722
           X            0.99942   0.03413  -0.00149
           Y           -0.03409   0.99925   0.01816
           Z            0.00211  -0.01810   0.99983
 This molecule is an asymmetric top.
 Rotational symmetry number  1.
 Warning -- assumption of classical behavior for rotation
           may cause significant error
 Rotational temperatures (Kelvin)      0.16741     0.04425     0.03950
 Rotational constants (GHZ):           3.48818     0.92209     0.82298
 Zero-point vibrational energy     412690.3 (Joules/Mol)
                                   98.63535 (Kcal/Mol)
 Warning -- explicit consideration of  10 degrees of freedom as
           vibrations may cause significant error
 Vibrational temperatures:     78.45   104.22   211.78   250.41   338.55
          (Kelvin)            427.58   445.51   564.59   696.02   846.77
                              895.51  1076.19  1107.83  1151.61  1206.43
                             1225.62  1257.79  1287.56  1475.35  1482.72
                             1502.62  1522.49  1583.97  1608.05  1630.37
                             1652.13  1662.75  1705.68  1751.13  1767.29
                             1818.85  1828.51  1868.01  1992.24  2020.35
                             2043.07  2060.45  2103.82  2149.45  2159.93
                             2638.47  4101.04  4368.72  4373.38  4433.64
                             4434.55  4458.70  4461.65  4467.19  4477.32
                             4494.02

 Zero-point correction=                           0.157185 (Hartree/Particle)
 Thermal correction to Energy=                    0.165966
 Thermal correction to Enthalpy=                  0.166910
 Thermal correction to Gibbs Free Energy=         0.122776
 Sum of electronic and zero-point Energies=           -422.962684
 Sum of electronic and thermal Energies=              -422.953904
 Sum of electronic and thermal Enthalpies=            -422.952960
 Sum of electronic and thermal Free Energies=         -422.997094

                     E (Thermal)             CV                S
                      KCal/Mol        Cal/Mol-Kelvin    Cal/Mol-Kelvin
 Total                  104.145             32.274             92.887
 Electronic               0.000              0.000              0.000
 Translational            0.889              2.981             40.409
 Rotational               0.889              2.981             29.186
 Vibrational            102.367             26.313             23.292
 Vibration     1          0.596              1.976              4.646
 Vibration     2          0.599              1.967              4.086
 Vibration     3          0.617              1.906              2.708
 Vibration     4          0.627              1.874              2.391
 Vibration     5          0.655              1.787              1.838
 Vibration     6          0.691              1.679              1.433
 Vibration     7          0.699              1.655              1.364
 Vibration     8          0.760              1.486              0.991
 Vibration     9          0.840              1.286              0.700
 Vibration    10          0.946              1.056              0.470

 Optimization completed.
    -- Stationary point found.
 Normal termination of Gaussian 09 at Mon Jan 27 23:48:16 2020.
