 Gaussian 09, Revision D.01,
 Gaussian 09:  ES64L-G09RevD.01 24-Apr-2013

 -----------------------------
 # b3lyp 6-31G(2df,p) opt Freq
 -----------------------------

 -----
 titel
 -----
 Symbolic Z-matrix:
 Charge =  0 Multiplicity = 1

 SCF Done:  E(RB3LYP) =  -423.190674982     A.U. after   13 cycles
 Optimization completed.
    -- Stationary point found.
 Normal termination of Gaussian 09 at Mon Jan 27 19:00:41 2020.

 ----------------------------------------------------------------------
 #N Geom=AllCheck Guess=TCheck SCRF=Check GenChk RB3LYP/6-31G(2df,p) Fr
 eq
 ----------------------------------------------------------------------

 Structure from the checkpoint file:  "/scratch/puck/g09_63f7366d-9531-4cef-80e8-6cb772cefe2a/Gau-54908.chk"
 -----
 titel
 -----
 Charge =  0 Multiplicity = 1

                         Standard orientation:
 ---------------------------------------------------------------------
 Center     Atomic      Atomic             Coordinates (Angstroms)
 Number     Number       Type             X           Y           Z
 ---------------------------------------------------------------------
      1          8           0       -2.444666    0.033574    0.094981
      2          6           0       -1.046790    0.102274    0.031716
      3          6           0       -0.442366    1.490776    0.163268
      4          6           0        1.103626    1.459800   -0.009765
      5          6           0        1.590978    0.009111   -0.090609
      6          6           0        1.078370   -0.800664    1.122057
      7          6           0       -0.355507   -1.069632    0.697455
      8          6           0       -0.333509   -0.929818   -0.810160
      9          8           0        0.971175   -0.607300   -1.232851
     10          1           0       -2.796412    0.443181   -0.703868
     11          1           0       -0.894504    2.147350   -0.590260
     12          1           0       -0.727916    1.902147    1.137663
     13          1           0        1.397478    1.969788   -0.931341
     14          1           0        1.601422    1.974431    0.819091
     15          1           0        2.671694   -0.046696   -0.237242
     16          1           0        1.624984   -1.742310    1.233771
     17          1           0        1.173004   -0.233791    2.053392
     18          1           0       -0.963595   -1.816572    1.191845
     19          1           0       -0.867047   -1.578804   -1.493863
 ---------------------------------------------------------------------

 SCF Done:  E(RB3LYP) =  -423.190674982     A.U. after    1 cycles

 The electronic state is 1-A.
 Alpha  occ. eigenvalues --  -19.14298 -19.13760 -10.23294 -10.23066 -10.22371
 Alpha  occ. eigenvalues --  -10.18510 -10.18484 -10.18242 -10.18230  -1.04609
 Alpha  occ. eigenvalues --   -1.02383  -0.84151  -0.78397  -0.74082  -0.64809
 Alpha  occ. eigenvalues --   -0.61582  -0.56760  -0.54572  -0.52368  -0.47874
 Alpha  occ. eigenvalues --   -0.46416  -0.44688  -0.43095  -0.40754  -0.39530
 Alpha  occ. eigenvalues --   -0.38970  -0.37478  -0.34873  -0.34120  -0.32520
 Alpha  occ. eigenvalues --   -0.31832  -0.29225  -0.25986  -0.21471
 Alpha virt. eigenvalues --    0.07671   0.08254   0.11222   0.12612   0.13556
 Alpha virt. eigenvalues --    0.14575   0.15042   0.15838   0.17369   0.17784
 Alpha virt. eigenvalues --    0.18792   0.18996   0.20812   0.21969   0.22466

 Mulliken charges:
               1
     1  O   -0.475031
     2  C    0.353156
     3  C   -0.281654
     4  C   -0.211187
     5  C    0.064765
     6  C   -0.241270
     7  C   -0.138371
     8  C    0.021625
     9  O   -0.265301
    10  H    0.279342
    11  H    0.093401
    12  H    0.109471
    13  H    0.107676
    14  H    0.097522
    15  H    0.079526
    16  H    0.107242
    17  H    0.102401
    18  H    0.096342
    19  H    0.100345
 Sum of Mulliken charges =   0.00000

 Dipole moment (field-independent basis, Debye):
    X=              0.1942    Y=              0.9140    Z=              0.1639  Tot=              0.9487
 Quadrupole moment (field-independent basis, Debye-Ang):
   XX=            -52.7527   YY=            -51.5023   ZZ=            -53.6554
   XY=             -0.2378   XZ=              6.1330   YZ=             -1.4366

  Exact polarizability:  79.075   0.103  72.832   3.797  -1.555  66.884
 Approx polarizability: 110.719  -0.958 102.591   2.661  -0.820 107.478

                      1                      2                      3
                      A                      A                      A
 Frequencies --    144.8370               261.1538               323.9123
 Red. masses --      1.8613                 1.8403                 1.5765
 Frc consts  --      0.0230                 0.0740                 0.0975
 IR Inten    --      0.7285                27.2566                43.2638

                      4                      5                      6
                      A                      A                      A
 Frequencies --    344.2730               360.6290               402.4010
 Red. masses --      2.9853                 2.7085                 3.7288
 Frc consts  --      0.2085                 0.2075                 0.3557
 IR Inten    --     22.5401                15.0648                 4.5007

                      7                      8                      9
                      A                      A                      A
 Frequencies --    463.5371               508.1251               576.4425
 Red. masses --      2.6668                 5.3291                 4.3335
 Frc consts  --      0.3376                 0.8107                 0.8484
 IR Inten    --      2.5143                 2.2781                 1.4431

                     10                     11                     12
                      A                      A                      A
 Frequencies --    668.3387               714.0924               799.0234
 Red. masses --      4.3890                 4.1240                 1.8549
 Frc consts  --      1.1551                 1.2390                 0.6977
 IR Inten    --      3.1622                 7.2937                 0.6191

                     13                     14                     15
                      A                      A                      A
 Frequencies --    825.8752               855.0179               866.4229
 Red. masses --      2.5123                 2.4213                 1.8473
 Frc consts  --      1.0096                 1.0429                 0.8171
 IR Inten    --      3.4284                 5.4388                10.3274

                     16                     17                     18
                      A                      A                      A
 Frequencies --    905.0288               929.4440               943.2356
 Red. masses --      2.2020                 2.2459                 2.6152
 Frc consts  --      1.0627                 1.1431                 1.3709
 IR Inten    --     28.0698                 4.5598                13.7920

                     19                     20                     21
                      A                      A                      A
 Frequencies --    978.9428              1020.4145              1033.4680
 Red. masses --      1.8855                 2.2540                 1.7203
 Frc consts  --      1.0646                 1.3828                 1.0826
 IR Inten    --      0.5745                 4.8450                 4.8210

                     22                     23                     24
                      A                      A                      A
 Frequencies --   1050.9755              1075.4605              1094.6932
 Red. masses --      1.8306                 1.7943                 2.2242
 Frc consts  --      1.1914                 1.2227                 1.5704
 IR Inten    --      8.0398                 0.8634                45.0024

                     25                     26                     27
                      A                      A                      A
 Frequencies --   1101.5447              1158.9626              1182.7684
 Red. masses --      2.8267                 1.5926                 1.4950
 Frc consts  --      2.0208                 1.2604                 1.2322
 IR Inten    --     44.7173                59.2228                19.9775

                     28                     29                     30
                      A                      A                      A
 Frequencies --   1212.7559              1246.1852              1252.1632
 Red. masses --      1.4371                 1.8618                 1.1950
 Frc consts  --      1.2453                 1.7035                 1.1039
 IR Inten    --      4.9666                12.9327                 0.6046

                     31                     32                     33
                      A                      A                      A
 Frequencies --   1270.5116              1275.6416              1322.3850
 Red. masses --      1.4390                 1.7815                 1.5848
 Frc consts  --      1.3686                 1.7080                 1.6329
 IR Inten    --      8.9331                 7.4472                 2.6271

                     34                     35                     36
                      A                      A                      A
 Frequencies --   1331.3768              1356.3895              1368.0736
 Red. masses --      1.4604                 1.6935                 1.7782
 Frc consts  --      1.5252                 1.8357                 1.9608
 IR Inten    --     46.0352                 0.9286                11.7646

                     37                     38                     39
                      A                      A                      A
 Frequencies --   1373.9252              1444.1020              1480.8561
 Red. masses --      1.3663                 2.4262                 1.1180
 Frc consts  --      1.5196                 2.9810                 1.4446
 IR Inten    --      2.4196                 5.1622                 2.8002

                     40                     41                     42
                      A                      A                      A
 Frequencies --   1492.0647              1510.0987              3024.4293
 Red. masses --      1.1023                 1.1312                 1.0611
 Frc consts  --      1.4458                 1.5198                 5.7188
 IR Inten    --      1.9184                 1.6391                42.4497

                     43                     44                     45
                      A                      A                      A
 Frequencies --   3045.3941              3049.0594              3059.7392
 Red. masses --      1.0638                 1.0604                 1.0985
 Frc consts  --      5.8130                 5.8083                 6.0591
 IR Inten    --     33.4003                22.6480                11.2312

                     46                     47                     48
                      A                      A                      A
 Frequencies --   3090.5095              3092.9690              3097.4590
 Red. masses --      1.1003                 1.0962                 1.1009
 Frc consts  --      6.1920                 6.1785                 6.2231
 IR Inten    --     24.7091                42.7540                40.5635

                     49                     50                     51
                      A                      A                      A
 Frequencies --   3189.0715              3198.5727              3786.0963
 Red. masses --      1.0903                 1.0942                 1.0659
 Frc consts  --      6.5330                 6.5955                 9.0024
 IR Inten    --     10.0127                10.5633                14.4882

 - Thermochemistry -
 -------------------
 Temperature   298.150 Kelvin.  Pressure   1.00000 Atm.
 Atom     1 has atomic number  8 and mass  15.99491

 Molecular mass:   126.06808 amu.
 Principal axes and moments of inertia in atomic units:
                           1         2         3
     Eigenvalues --   649.764671005.157131179.26353
           X            0.99918   0.01526   0.03740
           Y           -0.01378   0.99912  -0.03960
           Z           -0.03797   0.03905   0.99852
 This molecule is an asymmetric top.
 Rotational symmetry number  1.
 Warning -- assumption of classical behavior for rotation
           may cause significant error
 Rotational temperatures (Kelvin)      0.13330     0.08617     0.07345
 Rotational constants (GHZ):           2.77753     1.79548     1.53040
 Zero-point vibrational energy     425624.4 (Joules/Mol)
                                  101.72668 (Kcal/Mol)
 Warning -- explicit consideration of   9 degrees of freedom as
           vibrations may cause significant error
 Vibrational temperatures:    208.39   375.74   466.04   495.33   518.86
          (Kelvin)            578.96   666.93   731.08   829.37   961.59
                             1027.42  1149.62  1188.25  1230.18  1246.59
                             1302.13  1337.26  1357.10  1408.48  1468.15
                             1486.93  1512.12  1547.35  1575.02  1584.88
                             1667.49  1701.74  1744.88  1792.98  1801.58
                             1827.98  1835.36  1902.61  1915.55  1951.54
                             1968.35  1976.77  2077.74  2130.62  2146.75
                             2172.69  4351.47  4381.64  4386.91  4402.28
                             4446.55  4450.09  4456.55  4588.36  4602.03
                             5447.34

 Zero-point correction=                           0.162112 (Hartree/Particle)
 Thermal correction to Energy=                    0.169170
 Thermal correction to Enthalpy=                  0.170114
 Thermal correction to Gibbs Free Energy=         0.131117
 Sum of electronic and zero-point Energies=           -423.028563
 Sum of electronic and thermal Energies=              -423.021505
 Sum of electronic and thermal Enthalpies=            -423.020561
 Sum of electronic and thermal Free Energies=         -423.059558

                     E (Thermal)             CV                S
                      KCal/Mol        Cal/Mol-Kelvin    Cal/Mol-Kelvin
 Total                  106.156             29.512             82.077
 Electronic               0.000              0.000              0.000
 Translational            0.889              2.981             40.409
 Rotational               0.889              2.981             28.134
 Vibrational            104.378             23.551             13.535
 Vibration     1          0.616              1.908              2.739
 Vibration     2          0.669              1.744              1.654
 Vibration     3          0.708              1.628              1.290
 Vibration     4          0.723              1.587              1.192
 Vibration     5          0.735              1.553              1.119
 Vibration     6          0.768              1.465              0.954
 Vibration     7          0.821              1.331              0.756
 Vibration     8          0.863              1.232              0.638
 Vibration     9          0.933              1.082              0.492

 Normal termination of Gaussian 09 at Mon Jan 27 19:44:15 2020.
