 Gaussian 09, Revision D.01,
 Gaussian 09:  ES64L-G09RevD.01 24-Apr-2013

 -----------------------------
 # b3lyp 6-31G(2df,p) opt Freq
 -----------------------------

 -----
 titel
 -----
 Symbolic Z-matrix:
 Charge =  0 Multiplicity = 1

 SCF Done:  E(RB3LYP) =  -423.184029740     A.U. after   14 cycles
 Optimization completed.
    -- Stationary point found.
 Normal termination of Gaussian 09 at Mon Jan 27 13:49:49 2020.

 ----------------------------------------------------------------------
 #N Geom=AllCheck Guess=TCheck SCRF=Check GenChk RB3LYP/6-31G(2df,p) Fr
 eq
 ----------------------------------------------------------------------

 Structure from the checkpoint file:  "/scratch/puck/g09_823ca146-a62a-4bcd-a002-effb1f95df77/Gau-137635.chk"
 -----
 titel
 -----
 Charge =  0 Multiplicity = 1

                         Standard orientation:
 ---------------------------------------------------------------------
 Center     Atomic      Atomic             Coordinates (Angstroms)
 Number     Number       Type             X           Y           Z
 ---------------------------------------------------------------------
      1          8           0        2.880264    0.133143    0.039990
      2          6           0        1.812621   -0.247825   -0.365059
      3          6           0        0.567100   -0.402247    0.479244
      4          6           0       -0.078900   -1.803930    0.299762
      5          6           0       -1.543326   -1.477965   -0.044567
      6          8           0       -1.482698   -0.232491   -0.726215
      7          6           0       -0.543502    0.541928   -0.025306
      8          6           0       -1.048109    1.692024    0.809185
      9          6           0       -0.333422    1.940441   -0.507584
     10          1           0        1.658670   -0.504625   -1.439686
     11          1           0        0.831179   -0.189252    1.516803
     12          1           0        0.390508   -2.334997   -0.535506
     13          1           0        0.025528   -2.425733    1.190839
     14          1           0       -2.014863   -2.203982   -0.710439
     15          1           0       -2.148922   -1.390726    0.870486
     16          1           0       -2.121815    1.842094    0.824751
     17          1           0       -0.532149    1.937925    1.731450
     18          1           0       -0.933757    2.258641   -1.352282
     19          1           0        0.670315    2.350878   -0.480665
 ---------------------------------------------------------------------

 SCF Done:  E(RB3LYP) =  -423.184029740     A.U. after    1 cycles

 The electronic state is 1-A.
 Alpha  occ. eigenvalues --  -19.15182 -19.13942 -10.26992 -10.25040 -10.23754
 Alpha  occ. eigenvalues --  -10.20407 -10.20173 -10.19204 -10.18976  -1.05561
 Alpha  occ. eigenvalues --   -1.04608  -0.85902  -0.80270  -0.71682  -0.62642
 Alpha  occ. eigenvalues --   -0.61605  -0.58960  -0.55526  -0.51369  -0.50098
 Alpha  occ. eigenvalues --   -0.47433  -0.45740  -0.44224  -0.43197  -0.40502
 Alpha  occ. eigenvalues --   -0.39412  -0.37213  -0.37064  -0.36319  -0.33872
 Alpha  occ. eigenvalues --   -0.32031  -0.30144  -0.25961  -0.23920
 Alpha virt. eigenvalues --   -0.02117   0.07920   0.09520   0.10359   0.11021
 Alpha virt. eigenvalues --    0.12606   0.13574   0.14723   0.15518   0.16954
 Alpha virt. eigenvalues --    0.17782   0.17988   0.19386   0.20292   0.21797

 Mulliken charges:
               1
     1  O   -0.263184
     2  C    0.166615
     3  C   -0.154629
     4  C   -0.253144
     5  C   -0.095286
     6  O   -0.273698
     7  C    0.422436
     8  C   -0.326551
     9  C   -0.345314
    10  H    0.079840
    11  H    0.095992
    12  H    0.114244
    13  H    0.117433
    14  H    0.113710
    15  H    0.097752
    16  H    0.123170
    17  H    0.118025
    18  H    0.130642
    19  H    0.131947
 Sum of Mulliken charges =   0.00000

 Dipole moment (field-independent basis, Debye):
    X=             -2.0181    Y=             -1.1425    Z=              0.5917  Tot=              2.3933
 Quadrupole moment (field-independent basis, Debye-Ang):
   XX=            -63.4252   YY=            -49.3281   ZZ=            -52.3906
   XY=             -0.2996   XZ=             -2.3432   YZ=             -0.2583

  Exact polarizability:  82.059   2.913  79.621  -1.243   1.054  67.270
 Approx polarizability: 119.794   7.145 107.306   2.628   2.611 105.268

                      1                      2                      3
                      A                      A                      A
 Frequencies --     40.9270                68.0690               179.7541
 Red. masses --      3.2705                 5.4938                 2.7291
 Frc consts  --      0.0032                 0.0150                 0.0520
 IR Inten    --      2.7013                 4.9073                 0.0095

                      4                      5                      6
                      A                      A                      A
 Frequencies --    223.8079               278.1346               323.2746
 Red. masses --      1.9501                 2.5825                 2.3665
 Frc consts  --      0.0576                 0.1177                 0.1457
 IR Inten    --      2.8480                 1.5242                 5.2121

                      7                      8                      9
                      A                      A                      A
 Frequencies --    367.8585               427.8285               515.3026
 Red. masses --      2.6051                 5.7130                 3.9475
 Frc consts  --      0.2077                 0.6161                 0.6176
 IR Inten    --      6.0373                 5.9662                 2.3866

                     10                     11                     12
                      A                      A                      A
 Frequencies --    545.3755               636.6896               770.3161
 Red. masses --      3.7379                 2.2131                 1.0756
 Frc consts  --      0.6551                 0.5286                 0.3760
 IR Inten    --      6.0305                 2.3421                 1.8227

                     13                     14                     15
                      A                      A                      A
 Frequencies --    797.3441               865.0168               880.9587
 Red. masses --      3.1741                 1.9538                 1.8153
 Frc consts  --      1.1889                 0.8613                 0.8301
 IR Inten    --      9.0121                 7.7652                 4.0175

                     16                     17                     18
                      A                      A                      A
 Frequencies --    901.8234               920.2079               958.5280
 Red. masses --      1.9724                 1.9713                 2.2004
 Frc consts  --      0.9451                 0.9835                 1.1911
 IR Inten    --      7.1478                 0.7029                12.7815

                     19                     20                     21
                      A                      A                      A
 Frequencies --    961.9231               990.0259              1025.7727
 Red. masses --      2.4429                 2.9116                 1.9132
 Frc consts  --      1.3318                 1.6814                 1.1861
 IR Inten    --     18.6651                 4.6764                 2.7271

                     22                     23                     24
                      A                      A                      A
 Frequencies --   1047.6387              1074.8686              1081.4564
 Red. masses --      1.4932                 3.9918                 1.6960
 Frc consts  --      0.9656                 2.7172                 1.1687
 IR Inten    --      1.2667                60.9256                 4.5625

                     25                     26                     27
                      A                      A                      A
 Frequencies --   1094.8937              1149.1688              1192.0127
 Red. masses --      2.1495                 2.5478                 1.2788
 Frc consts  --      1.5182                 1.9824                 1.0706
 IR Inten    --     29.4257                21.1924                 1.4546

                     28                     29                     30
                      A                      A                      A
 Frequencies --   1201.7639              1237.7670              1245.6813
 Red. masses --      1.6593                 1.3178                 1.6591
 Frc consts  --      1.4120                 1.1896                 1.5168
 IR Inten    --     30.9492                 1.2245                28.0092

                     31                     32                     33
                      A                      A                      A
 Frequencies --   1272.4632              1286.0923              1341.7784
 Red. masses --      1.3535                 1.3580                 1.3611
 Frc consts  --      1.2912                 1.3234                 1.4438
 IR Inten    --      5.3316                 4.0565                 6.8483

                     34                     35                     36
                      A                      A                      A
 Frequencies --   1349.0636              1386.5184              1421.9882
 Red. masses --      2.3330                 1.3985                 1.1908
 Frc consts  --      2.5016                 1.5841                 1.4187
 IR Inten    --     18.3133                 7.6741                 2.8610

                     37                     38                     39
                      A                      A                      A
 Frequencies --   1450.5635              1487.8883              1490.9165
 Red. masses --      1.0904                 1.0993                 1.4209
 Frc consts  --      1.3518                 1.4339                 1.8608
 IR Inten    --      2.1678                 1.0834                13.8238

                     40                     41                     42
                      A                      A                      A
 Frequencies --   1519.1652              1830.1920              2857.5386
 Red. masses --      1.1278                10.2684                 1.0823
 Frc consts  --      1.5336                20.2651                 5.2067
 IR Inten    --      0.7593               199.7203                82.7175

                     43                     44                     45
                      A                      A                      A
 Frequencies --   2988.8737              3048.4181              3093.1475
 Red. masses --      1.0707                 1.0660                 1.0869
 Frc consts  --      5.6354                 5.8367                 6.1267
 IR Inten    --     58.4523                19.7706                 8.8534

                     46                     47                     48
                      A                      A                      A
 Frequencies --   3106.1319              3118.9738              3130.4164
 Red. masses --      1.0929                 1.0994                 1.0525
 Frc consts  --      6.2126                 6.3012                 6.0769
 IR Inten    --     27.2172                23.6170                11.2031

                     49                     50                     51
                      A                      A                      A
 Frequencies --   3136.6651              3217.9675              3231.7887
 Red. masses --      1.0560                 1.1187                 1.1159
 Frc consts  --      6.1212                 6.8252                 6.8668
 IR Inten    --      4.1566                 0.5526                 6.7367

 - Thermochemistry -
 -------------------
 Temperature   298.150 Kelvin.  Pressure   1.00000 Atm.
 Atom     1 has atomic number  8 and mass  15.99491

 Molecular mass:   126.06808 amu.
 Principal axes and moments of inertia in atomic units:
                           1         2         3
     Eigenvalues --   809.247951122.325901660.28403
           X            0.99989   0.00011  -0.01467
           Y           -0.00013   1.00000  -0.00106
           Z            0.01467   0.00106   0.99989
 This molecule is an asymmetric top.
 Rotational symmetry number  1.
 Warning -- assumption of classical behavior for rotation
           may cause significant error
 Rotational temperatures (Kelvin)      0.10703     0.07717     0.05217
 Rotational constants (GHZ):           2.23015     1.60804     1.08701
 Zero-point vibrational energy     417321.7 (Joules/Mol)
                                   99.74228 (Kcal/Mol)
 Warning -- explicit consideration of  10 degrees of freedom as
           vibrations may cause significant error
 Vibrational temperatures:     58.88    97.94   258.63   322.01   400.17
          (Kelvin)            465.12   529.27   615.55   741.40   784.67
                              916.05  1108.31  1147.20  1244.56  1267.50
                             1297.52  1323.97  1379.11  1383.99  1424.42
                             1475.86  1507.32  1546.49  1555.97  1575.31
                             1653.40  1715.04  1729.07  1780.87  1792.26
                             1830.79  1850.40  1930.52  1941.00  1994.89
                             2045.92  2087.03  2140.74  2145.09  2185.74
                             2633.23  4111.36  4300.32  4385.99  4450.34
                             4469.03  4487.50  4503.97  4512.96  4629.93
                             4649.82

 Zero-point correction=                           0.158949 (Hartree/Particle)
 Thermal correction to Energy=                    0.167383
 Thermal correction to Enthalpy=                  0.168327
 Thermal correction to Gibbs Free Energy=         0.124926
 Sum of electronic and zero-point Energies=           -423.025080
 Sum of electronic and thermal Energies=              -423.016647
 Sum of electronic and thermal Enthalpies=            -423.015702
 Sum of electronic and thermal Free Energies=         -423.059104

                     E (Thermal)             CV                S
                      KCal/Mol        Cal/Mol-Kelvin    Cal/Mol-Kelvin
 Total                  105.035             31.525             91.347
 Electronic               0.000              0.000              0.000
 Translational            0.889              2.981             40.409
 Rotational               0.889              2.981             28.802
 Vibrational            103.257             25.563             22.136
 Vibration     1          0.594              1.981              5.214
 Vibration     2          0.598              1.969              4.208
 Vibration     3          0.629              1.867              2.331
 Vibration     4          0.649              1.805              1.928
 Vibration     5          0.679              1.714              1.545
 Vibration     6          0.708              1.629              1.293
 Vibration     7          0.740              1.538              1.089
 Vibration     8          0.789              1.410              0.866
 Vibration     9          0.870              1.216              0.621
 Vibration    10          0.901              1.150              0.554

 Optimization completed.
    -- Stationary point found.
 Normal termination of Gaussian 09 at Mon Jan 27 14:51:45 2020.
