 Gaussian 09, Revision D.01,
 Gaussian 09:  ES64L-G09RevD.01 24-Apr-2013

 -----------------------------
 # b3lyp 6-31G(2df,p) opt Freq
 -----------------------------

 -----
 titel
 -----
 Symbolic Z-matrix:
 Charge =  0 Multiplicity = 1

 SCF Done:  E(RB3LYP) =  -423.181011689     A.U. after   14 cycles
 Optimization completed.
    -- Stationary point found.
 Normal termination of Gaussian 09 at Tue Jan 28 00:03:42 2020.

 ----------------------------------------------------------------------
 #N Geom=AllCheck Guess=TCheck SCRF=Check GenChk RB3LYP/6-31G(2df,p) Fr
 eq
 ----------------------------------------------------------------------

 Structure from the checkpoint file:  "/scratch/puck/g09_c1fd1b7e-9567-4d3d-8b72-1bc8d794c8f2/Gau-188098.chk"
 -----
 titel
 -----
 Charge =  0 Multiplicity = 1

                         Standard orientation:
 ---------------------------------------------------------------------
 Center     Atomic      Atomic             Coordinates (Angstroms)
 Number     Number       Type             X           Y           Z
 ---------------------------------------------------------------------
      1          6           0       -2.793825   -0.594109   -0.100253
      2          6           0       -1.331348   -0.252389   -0.014808
      3          6           0       -0.383141   -1.110229   -0.392919
      4          6           0        1.096030   -0.859995   -0.342951
      5          8           0        1.656055   -1.766775    0.614711
      6          6           0        1.453181    0.568002    0.024714
      7          8           0        0.993381    1.582396   -0.869808
      8          6           0        0.426572    1.525607    0.446876
      9          6           0       -1.023267    1.119054    0.538101
     10          1           0       -3.321722    0.101257   -0.765645
     11          1           0       -2.950962   -1.609334   -0.472661
     12          1           0       -3.276798   -0.511207    0.882030
     13          1           0       -0.665661   -2.093816   -0.759705
     14          1           0        1.520320   -1.068331   -1.339911
     15          1           0        2.605833   -1.807888    0.460290
     16          1           0        2.478563    0.701161    0.376163
     17          1           0        0.722990    2.357085    1.086947
     18          1           0       -1.332398    1.158315    1.593169
     19          1           0       -1.640862    1.872143    0.027537
 ---------------------------------------------------------------------

 SCF Done:  E(RB3LYP) =  -423.181011689     A.U. after    1 cycles

 The electronic state is 1-A.
 Alpha  occ. eigenvalues --  -19.14569 -19.13695 -10.23640 -10.23579 -10.23169
 Alpha  occ. eigenvalues --  -10.19364 -10.19204 -10.18115 -10.17328  -1.06855
 Alpha  occ. eigenvalues --   -1.01671  -0.82135  -0.74575  -0.72555  -0.66873
 Alpha  occ. eigenvalues --   -0.61709  -0.59925  -0.51826  -0.51258  -0.48680
 Alpha  occ. eigenvalues --   -0.47417  -0.44669  -0.43358  -0.40671  -0.40123
 Alpha  occ. eigenvalues --   -0.39075  -0.38122  -0.37018  -0.34193  -0.32222
 Alpha  occ. eigenvalues --   -0.29569  -0.28036  -0.26225  -0.23912
 Alpha virt. eigenvalues --    0.01542   0.08301   0.09346   0.10475   0.11862
 Alpha virt. eigenvalues --    0.12700   0.13549   0.14881   0.16746   0.17479
 Alpha virt. eigenvalues --    0.18586   0.18734   0.18908   0.21524   0.22543

 Mulliken charges:
               1
     1  C   -0.473914
     2  C    0.326654
     3  C   -0.141573
     4  C    0.019118
     5  O   -0.429343
     6  C    0.014759
     7  O   -0.265338
     8  C    0.060121
     9  C   -0.335686
    10  H    0.126032
    11  H    0.124266
    12  H    0.123787
    13  H    0.085319
    14  H    0.080223
    15  H    0.283125
    16  H    0.079155
    17  H    0.089818
    18  H    0.116167
    19  H    0.117309
 Sum of Mulliken charges =   0.00000

 Dipole moment (field-independent basis, Debye):
    X=              0.0500    Y=             -0.0021    Z=              0.6681  Tot=              0.6700
 Quadrupole moment (field-independent basis, Debye-Ang):
   XX=            -44.9013   YY=            -55.2656   ZZ=            -55.3614
   XY=             -2.8221   XZ=              0.1637   YZ=              5.7071

  Exact polarizability:  95.299  -7.986  78.436  -2.737   7.134  59.315
 Approx polarizability: 128.945 -20.298 115.879  -8.043   7.916  97.395

                      1                      2                      3
                      A                      A                      A
 Frequencies --     71.1811               139.6607               198.7649
 Red. masses --      3.0972                 2.6053                 1.2153
 Frc consts  --      0.0092                 0.0299                 0.0283
 IR Inten    --      1.5401                 2.2810                 0.3888

                      4                      5                      6
                      A                      A                      A
 Frequencies --    243.6586               272.6437               321.6276
 Red. masses --      3.7033                 1.0779                 2.6552
 Frc consts  --      0.1295                 0.0472                 0.1618
 IR Inten    --      6.6277               105.8044                 0.7812

                      7                      8                      9
                      A                      A                      A
 Frequencies --    339.9219               398.0874               438.1182
 Red. masses --      3.2436                 4.0787                 2.7651
 Frc consts  --      0.2208                 0.3808                 0.3127
 IR Inten    --      5.2403                 2.6726                 2.7304

                     10                     11                     12
                      A                      A                      A
 Frequencies --    489.2574               531.6353               581.6455
 Red. masses --      4.4048                 4.5847                 3.9762
 Frc consts  --      0.6212                 0.7635                 0.7926
 IR Inten    --      4.0732                 4.9559                 4.1183

                     13                     14                     15
                      A                      A                      A
 Frequencies --    740.0798               794.9929               834.7484
 Red. masses --      3.2569                 4.0844                 2.9304
 Frc consts  --      1.0510                 1.5209                 1.2031
 IR Inten    --      6.3186                 4.8977                23.2133

                     16                     17                     18
                      A                      A                      A
 Frequencies --    868.9897               907.1827               928.8449
 Red. masses --      1.6653                 2.5006                 3.2226
 Frc consts  --      0.7409                 1.2125                 1.6381
 IR Inten    --     11.8031                11.0156                 3.2608

                     19                     20                     21
                      A                      A                      A
 Frequencies --    958.3242              1024.4695              1029.3215
 Red. masses --      1.9652                 2.3941                 1.5724
 Frc consts  --      1.0633                 1.4804                 0.9816
 IR Inten    --      2.0780                 0.5415                21.8719

                     22                     23                     24
                      A                      A                      A
 Frequencies --   1053.8146              1069.8101              1084.0988
 Red. masses --      3.8837                 1.4901                 1.3920
 Frc consts  --      2.5411                 1.0048                 0.9639
 IR Inten    --     63.5627                 9.8783                14.6572

                     25                     26                     27
                      A                      A                      A
 Frequencies --   1104.5744              1157.9568              1178.0619
 Red. masses --      2.1245                 1.7314                 1.7181
 Frc consts  --      1.5272                 1.3678                 1.4049
 IR Inten    --      4.1385                 8.6084                 5.3256

                     28                     29                     30
                      A                      A                      A
 Frequencies --   1237.2220              1246.5309              1286.4010
 Red. masses --      1.1174                 1.1879                 1.2257
 Frc consts  --      1.0078                 1.0875                 1.1950
 IR Inten    --     78.4184                 0.3760                 3.9368

                     31                     32                     33
                      A                      A                      A
 Frequencies --   1327.3913              1352.4478              1385.4385
 Red. masses --      1.4609                 1.2356                 2.0287
 Frc consts  --      1.5166                 1.3316                 2.2942
 IR Inten    --      1.1997                 5.5827                 6.0786

                     34                     35                     36
                      A                      A                      A
 Frequencies --   1401.6731              1413.8083              1424.7905
 Red. masses --      1.7745                 1.2604                 1.7302
 Frc consts  --      2.0541                 1.4843                 2.0694
 IR Inten    --      2.1153                 0.7536                 7.3262

                     37                     38                     39
                      A                      A                      A
 Frequencies --   1461.1846              1479.6021              1488.8370
 Red. masses --      1.1056                 1.0449                 1.6294
 Frc consts  --      1.3908                 1.3478                 2.1280
 IR Inten    --      4.5175                 7.2531                14.3884

                     40                     41                     42
                      A                      A                      A
 Frequencies --   1491.7292              1751.0552              2953.3392
 Red. masses --      1.5015                 7.2312                 1.0815
 Frc consts  --      1.9686                13.0635                 5.5580
 IR Inten    --     10.0523                 9.3993                54.6466

                     43                     44                     45
                      A                      A                      A
 Frequencies --   2999.6267              3016.4703              3024.1907
 Red. masses --      1.0592                 1.0392                 1.0990
 Frc consts  --      5.6151                 5.5709                 5.9219
 IR Inten    --     23.2197                38.6525                15.8384

                     46                     47                     48
                      A                      A                      A
 Frequencies --   3062.2185              3084.1393              3107.2810
 Red. masses --      1.0985                 1.0860                 1.0905
 Frc consts  --      6.0688                 6.0864                 6.2033
 IR Inten    --     21.2769                35.6188                52.0914

                     49                     50                     51
                      A                      A                      A
 Frequencies --   3116.1005              3158.3501              3807.0783
 Red. masses --      1.0989                 1.0893                 1.0662
 Frc consts  --      6.2868                 6.4018                 9.1050
 IR Inten    --     17.3950                17.7210                12.5746

 - Thermochemistry -
 -------------------
 Temperature   298.150 Kelvin.  Pressure   1.00000 Atm.
 Atom     1 has atomic number  6 and mass  12.00000

 Molecular mass:   126.06808 amu.
 Principal axes and moments of inertia in atomic units:
                           1         2         3
     Eigenvalues --   798.817241133.151801680.76919
           X            1.00000  -0.00002   0.00087
           Y           -0.00002   0.99893   0.04615
           Z           -0.00087  -0.04615   0.99893
 This molecule is an asymmetric top.
 Rotational symmetry number  1.
 Warning -- assumption of classical behavior for rotation
           may cause significant error
 Rotational temperatures (Kelvin)      0.10843     0.07644     0.05153
 Rotational constants (GHZ):           2.25927     1.59267     1.07376
 Zero-point vibrational energy     417726.3 (Joules/Mol)
                                   99.83897 (Kcal/Mol)
 Warning -- explicit consideration of  12 degrees of freedom as
           vibrations may cause significant error
 Vibrational temperatures:    102.41   200.94   285.98   350.57   392.27
          (Kelvin)            462.75   489.07   572.76   630.35   703.93
                              764.90   836.86  1064.81  1143.82  1201.02
                             1250.28  1305.23  1336.40  1378.81  1473.98
                             1480.96  1516.20  1539.22  1559.77  1589.23
                             1666.04  1694.97  1780.08  1793.48  1850.84
                             1909.82  1945.87  1993.33  2016.69  2034.15
                             2049.95  2102.32  2128.81  2142.10  2146.26
                             2519.37  4249.19  4315.79  4340.02  4351.13
                             4405.84  4437.38  4470.68  4483.37  4544.16
                             5477.53

 Zero-point correction=                           0.159104 (Hartree/Particle)
 Thermal correction to Energy=                    0.167634
 Thermal correction to Enthalpy=                  0.168579
 Thermal correction to Gibbs Free Energy=         0.125957
 Sum of electronic and zero-point Energies=           -423.021908
 Sum of electronic and thermal Energies=              -423.013377
 Sum of electronic and thermal Enthalpies=            -423.012433
 Sum of electronic and thermal Free Energies=         -423.055055

                     E (Thermal)             CV                S
                      KCal/Mol        Cal/Mol-Kelvin    Cal/Mol-Kelvin
 Total                  105.192             32.615             89.705
 Electronic               0.000              0.000              0.000
 Translational            0.889              2.981             40.409
 Rotational               0.889              2.981             28.811
 Vibrational            103.415             26.654             20.486
 Vibration     1          0.598              1.968              4.120
 Vibration     2          0.615              1.914              2.809
 Vibration     3          0.637              1.842              2.145
 Vibration     4          0.659              1.773              1.776
 Vibration     5          0.676              1.724              1.579
 Vibration     6          0.707              1.632              1.302
 Vibration     7          0.720              1.596              1.213
 Vibration     8          0.764              1.474              0.970
 Vibration     9          0.798              1.387              0.833
 Vibration    10          0.845              1.274              0.686
 Vibration    11          0.887              1.180              0.584
 Vibration    12          0.938              1.071              0.482

 Normal termination of Gaussian 09 at Tue Jan 28 00:49:19 2020.
