 Gaussian 09, Revision D.01,
 Gaussian 09:  ES64L-G09RevD.01 24-Apr-2013

 -----------------------------
 # b3lyp 6-31G(2df,p) opt Freq
 -----------------------------

 -----
 titel
 -----
 Symbolic Z-matrix:
 Charge =  0 Multiplicity = 1

 SCF Done:  E(RB3LYP) =  -423.158119090     A.U. after   14 cycles
 Optimization completed.
    -- Stationary point found.
 Normal termination of Gaussian 09 at Tue Jan 28 14:08:16 2020.

 ----------------------------------------------------------------------
 #N Geom=AllCheck Guess=TCheck SCRF=Check GenChk RB3LYP/6-31G(2df,p) Fr
 eq
 ----------------------------------------------------------------------

 Structure from the checkpoint file:  "/scratch/puck/g09_dc6252fe-e407-417b-9f03-91a7a0bc2bec/Gau-144662.chk"
 -----
 titel
 -----
 Charge =  0 Multiplicity = 1

                         Standard orientation:
 ---------------------------------------------------------------------
 Center     Atomic      Atomic             Coordinates (Angstroms)
 Number     Number       Type             X           Y           Z
 ---------------------------------------------------------------------
      1          6           0       -2.887518   -0.740130    0.072606
      2          8           0       -2.028886    0.309726   -0.312270
      3          6           0       -0.873017    0.421627    0.489067
      4          6           0       -0.075721    1.636853    0.051483
      5          6           0        1.197211    1.339967   -0.202284
      6          6           0        1.446425   -0.133492   -0.024772
      7          6           0        2.801033   -0.673996    0.333232
      8          8           0        0.661684   -0.915735   -0.959647
      9          6           0        0.152721   -0.717182    0.362247
     10          1           0       -3.192172   -0.650165    1.128024
     11          1           0       -3.777409   -0.674872   -0.557753
     12          1           0       -2.426152   -1.727597   -0.072235
     13          1           0       -1.168761    0.506896    1.552101
     14          1           0       -0.552550    2.601531   -0.073630
     15          1           0        1.963969    2.033105   -0.528386
     16          1           0        3.165907   -0.224412    1.262834
     17          1           0        2.761187   -1.758719    0.456758
     18          1           0        3.526797   -0.447450   -0.455755
     19          1           0        0.070001   -1.612131    0.973900
 ---------------------------------------------------------------------

 SCF Done:  E(RB3LYP) =  -423.158119090     A.U. after    1 cycles

 The electronic state is 1-A.
 Alpha  occ. eigenvalues --  -19.14323 -19.14012 -10.24195 -10.23872 -10.22826
 Alpha  occ. eigenvalues --  -10.22310 -10.18783 -10.18671 -10.18610  -1.06682
 Alpha  occ. eigenvalues --   -1.03126  -0.81694  -0.75076  -0.70901  -0.67405
 Alpha  occ. eigenvalues --   -0.62548  -0.56741  -0.54878  -0.51512  -0.48616
 Alpha  occ. eigenvalues --   -0.45601  -0.44568  -0.43201  -0.42985  -0.41891
 Alpha  occ. eigenvalues --   -0.39028  -0.37876  -0.37120  -0.35290  -0.32326
 Alpha  occ. eigenvalues --   -0.30559  -0.27110  -0.24892  -0.24354
 Alpha virt. eigenvalues --   -0.00443   0.08485   0.10314   0.12072   0.13112
 Alpha virt. eigenvalues --    0.13690   0.14462   0.14930   0.16047   0.16194
 Alpha virt. eigenvalues --    0.17245   0.18436   0.18957   0.19731   0.21001

 Mulliken charges:
               1
     1  C   -0.231631
     2  O   -0.242150
     3  C    0.082566
     4  C   -0.115949
     5  C   -0.130869
     6  C    0.387832
     7  C   -0.492725
     8  O   -0.286931
     9  C   -0.077224
    10  H    0.099480
    11  H    0.129657
    12  H    0.114717
    13  H    0.066840
    14  H    0.111392
    15  H    0.103289
    16  H    0.126054
    17  H    0.132665
    18  H    0.130331
    19  H    0.092654
 Sum of Mulliken charges =   0.00000

 Dipole moment (field-independent basis, Debye):
    X=              0.5312    Y=              0.0417    Z=              2.2684  Tot=              2.3301
 Quadrupole moment (field-independent basis, Debye-Ang):
   XX=            -47.7226   YY=            -51.3572   ZZ=            -55.4584
   XY=              2.8736   XZ=             -1.0783   YZ=             -2.1333

  Exact polarizability:  99.012   1.483  73.818  -4.155  -1.836  58.012
 Approx polarizability: 133.195   0.338 106.741  -8.552   0.681  95.623

                      1                      2                      3
                      A                      A                      A
 Frequencies --     69.5007               118.0724               169.6433
 Red. masses --      2.9546                 2.3866                 1.9827
 Frc consts  --      0.0084                 0.0196                 0.0336
 IR Inten    --      2.8809                 0.7753                 0.7781

                      4                      5                      6
                      A                      A                      A
 Frequencies --    196.4493               217.9367               278.6232
 Red. masses --      1.1069                 1.6815                 3.0467
 Frc consts  --      0.0252                 0.0471                 0.1394
 IR Inten    --      0.0707                 0.7578                 3.7841

                      7                      8                      9
                      A                      A                      A
 Frequencies --    310.4039               391.4112               436.4499
 Red. masses --      2.6748                 3.8713                 3.1512
 Frc consts  --      0.1518                 0.3494                 0.3537
 IR Inten    --      1.6619                 1.9088                 3.3591

                     10                     11                     12
                      A                      A                      A
 Frequencies --    511.0028               562.0773               641.8677
 Red. masses --      3.3984                 3.7508                 4.8966
 Frc consts  --      0.5228                 0.6982                 1.1886
 IR Inten    --      5.5723                10.1647                 3.5715

                     13                     14                     15
                      A                      A                      A
 Frequencies --    718.4587               752.4790               841.1538
 Red. masses --      5.5332                 1.6779                 2.8232
 Frc consts  --      1.6828                 0.5598                 1.1769
 IR Inten    --      5.2851                 8.1204                27.5315

                     16                     17                     18
                      A                      A                      A
 Frequencies --    848.7750               898.1456               927.1447
 Red. masses --      4.4783                 3.6100                 2.0559
 Frc consts  --      1.9009                 1.7157                 1.0412
 IR Inten    --      5.1870                19.7062                 8.2172

                     19                     20                     21
                      A                      A                      A
 Frequencies --    957.2016               992.5347              1022.0678
 Red. masses --      1.3116                 2.2845                 2.5254
 Frc consts  --      0.7081                 1.3260                 1.5543
 IR Inten    --      1.9426                12.2777                10.5504

                     22                     23                     24
                      A                      A                      A
 Frequencies --   1045.3051              1061.6685              1096.1105
 Red. masses --      2.0857                 1.7657                 1.4648
 Frc consts  --      1.3427                 1.1726                 1.0369
 IR Inten    --      7.1146                 5.1314                10.2377

                     25                     26                     27
                      A                      A                      A
 Frequencies --   1130.8833              1161.0849              1180.9583
 Red. masses --      1.5420                 2.7290                 1.3206
 Frc consts  --      1.1619                 2.1676                 1.0851
 IR Inten    --     29.0562               130.2376                 7.6388

                     28                     29                     30
                      A                      A                      A
 Frequencies --   1217.8397              1240.3501              1289.6866
 Red. masses --      1.5405                 2.2450                 1.4553
 Frc consts  --      1.3461                 2.0349                 1.4262
 IR Inten    --     44.5259                17.1061                 1.4110

                     31                     32                     33
                      A                      A                      A
 Frequencies --   1323.3950              1350.5335              1369.3768
 Red. masses --      1.7969                 1.5226                 1.6204
 Frc consts  --      1.8542                 1.6362                 1.7903
 IR Inten    --      5.3369                13.1302                32.5093

                     34                     35                     36
                      A                      A                      A
 Frequencies --   1410.3107              1449.8340              1477.6859
 Red. masses --      1.2957                 2.9333                 1.1210
 Frc consts  --      1.5184                 3.6328                 1.4422
 IR Inten    --      4.2025                24.0290                 1.7516

                     37                     38                     39
                      A                      A                      A
 Frequencies --   1484.2370              1488.9053              1496.4821
 Red. masses --      1.1106                 1.0790                 1.1067
 Frc consts  --      1.4415                 1.4094                 1.4602
 IR Inten    --      7.2883                 3.2614                 2.0237

                     40                     41                     42
                      A                      A                      A
 Frequencies --   1507.5322              1679.2693              2920.6170
 Red. masses --      1.0551                 6.8615                 1.0799
 Frc consts  --      1.4128                11.4002                 5.4275
 IR Inten    --      6.9632                 1.7461                49.3795

                     43                     44                     45
                      A                      A                      A
 Frequencies --   2971.9436              3027.1744              3035.3229
 Red. masses --      1.0414                 1.0977                 1.0366
 Frc consts  --      5.4196                 5.9264                 5.6267
 IR Inten    --     64.7226                47.7423                21.4430

                     46                     47                     48
                      A                      A                      A
 Frequencies --   3096.2818              3116.5714              3126.9364
 Red. masses --      1.1003                 1.0963                 1.1007
 Frc consts  --      6.2152                 6.2736                 6.3412
 IR Inten    --     16.8407                28.8519                11.2679

                     49                     50                     51
                      A                      A                      A
 Frequencies --   3141.4303              3193.0385              3218.6286
 Red. masses --      1.0908                 1.0855                 1.1047
 Frc consts  --      6.3423                 6.5209                 6.7430
 IR Inten    --     24.3034                 5.0549                13.1191

 - Thermochemistry -
 -------------------
 Temperature   298.150 Kelvin.  Pressure   1.00000 Atm.
 Atom     1 has atomic number  6 and mass  12.00000

 Molecular mass:   126.06808 amu.
 Principal axes and moments of inertia in atomic units:
                           1         2         3
     Eigenvalues --   500.291741482.336461770.31896
           X            0.99992   0.01260  -0.00150
           Y           -0.01265   0.99913  -0.03965
           Z            0.00100   0.03967   0.99921
 This molecule is an asymmetric top.
 Rotational symmetry number  1.
 Warning -- assumption of classical behavior for rotation
           may cause significant error
 Rotational temperatures (Kelvin)      0.17313     0.05843     0.04893
 Rotational constants (GHZ):           3.60738     1.21750     1.01944
 Zero-point vibrational energy     413733.2 (Joules/Mol)
                                   98.88461 (Kcal/Mol)
 Warning -- explicit consideration of  11 degrees of freedom as
           vibrations may cause significant error
 Vibrational temperatures:    100.00   169.88   244.08   282.65   313.56
          (Kelvin)            400.88   446.60   563.15   627.95   735.22
                              808.70   923.50  1033.70  1082.65  1210.23
                             1221.20  1292.23  1333.95  1377.20  1428.03
                             1470.53  1503.96  1527.50  1577.06  1627.09
                             1670.54  1699.13  1752.20  1784.58  1855.57
                             1904.07  1943.11  1970.23  2029.12  2085.99
                             2126.06  2135.48  2142.20  2153.10  2169.00
                             2416.09  4202.11  4275.96  4355.42  4367.15
                             4454.85  4484.05  4498.96  4519.81  4594.06
                             4630.88

 Zero-point correction=                           0.157583 (Hartree/Particle)
 Thermal correction to Energy=                    0.166410
 Thermal correction to Enthalpy=                  0.167354
 Thermal correction to Gibbs Free Energy=         0.123977
 Sum of electronic and zero-point Energies=           -423.000536
 Sum of electronic and thermal Energies=              -422.991709
 Sum of electronic and thermal Enthalpies=            -422.990765
 Sum of electronic and thermal Free Energies=         -423.034142

                     E (Thermal)             CV                S
                      KCal/Mol        Cal/Mol-Kelvin    Cal/Mol-Kelvin
 Total                  104.424             32.908             91.293
 Electronic               0.000              0.000              0.000
 Translational            0.889              2.981             40.409
 Rotational               0.889              2.981             28.664
 Vibrational            102.646             26.946             22.221
 Vibration     1          0.598              1.969              4.167
 Vibration     2          0.608              1.934              3.132
 Vibration     3          0.625              1.880              2.439
 Vibration     4          0.636              1.845              2.166
 Vibration     5          0.646              1.814              1.976
 Vibration     6          0.679              1.713              1.542
 Vibration     7          0.699              1.654              1.360
 Vibration     8          0.759              1.489              0.995
 Vibration     9          0.797              1.391              0.838
 Vibration    10          0.866              1.226              0.631
 Vibration    11          0.918              1.113              0.520

 Normal termination of Gaussian 09 at Tue Jan 28 14:47:15 2020.
