 Gaussian 09, Revision D.01,
 Gaussian 09:  ES64L-G09RevD.01 24-Apr-2013

 -----------------------------
 # b3lyp 6-31G(2df,p) opt Freq
 -----------------------------

 -----
 titel
 -----
 Symbolic Z-matrix:
 Charge =  0 Multiplicity = 1

 SCF Done:  E(RB3LYP) =  -423.139823115     A.U. after   13 cycles
 SCF Done:  E(RB3LYP) =  -423.139823246     A.U. after    6 cycles
 Optimization completed.
    -- Stationary point found.
 Normal termination of Gaussian 09 at Mon Jan 27 12:20:54 2020.

 ----------------------------------------------------------------------
 #N Geom=AllCheck Guess=TCheck SCRF=Check GenChk RB3LYP/6-31G(2df,p) Fr
 eq
 ----------------------------------------------------------------------

 Structure from the checkpoint file:  "/scratch/puck/g09_c8ff30bb-0dcd-4864-8957-d84f707d7ee5/Gau-153288.chk"
 -----
 titel
 -----
 Charge =  0 Multiplicity = 1

                         Standard orientation:
 ---------------------------------------------------------------------
 Center     Atomic      Atomic             Coordinates (Angstroms)
 Number     Number       Type             X           Y           Z
 ---------------------------------------------------------------------
      1          6           0       -2.045010    0.603485    0.114768
      2          8           0       -1.864555   -0.840585   -0.008249
      3          6           0       -0.449562   -0.645210   -0.075156
      4          6           0        0.666085   -1.275871   -0.921596
      5          6           0        1.579238   -0.539800    0.133643
      6          6           0        0.458180   -0.801932    1.168669
      7          8           0        1.732799    0.856917   -0.134651
      8          6           0        0.546056    1.641582    0.076358
      9          6           0       -0.628266    0.828977   -0.452792
     10          1           0       -2.892193    0.960655   -0.476494
     11          1           0       -2.175727    0.898488    1.164382
     12          1           0        0.764786   -2.360280   -0.819376
     13          1           0        0.741369   -0.974436   -1.968545
     14          1           0        2.580012   -0.935244    0.303985
     15          1           0        0.476416   -1.836762    1.517568
     16          1           0        0.350776   -0.127501    2.019815
     17          1           0        0.426863    1.883713    1.141272
     18          1           0        0.710215    2.578648   -0.461076
     19          1           0       -0.688797    0.914675   -1.541696
 ---------------------------------------------------------------------

 SCF Done:  E(RB3LYP) =  -423.139823246     A.U. after    1 cycles

 The electronic state is 1-A.
 Alpha  occ. eigenvalues --  -19.14091 -19.13714 -10.24225 -10.24047 -10.23760
 Alpha  occ. eigenvalues --  -10.23372 -10.19130 -10.18425 -10.18276  -1.04631
 Alpha  occ. eigenvalues --   -1.02748  -0.84282  -0.77227  -0.68904  -0.67301
 Alpha  occ. eigenvalues --   -0.62985  -0.58929  -0.52940  -0.51275  -0.49525
 Alpha  occ. eigenvalues --   -0.47124  -0.46097  -0.43529  -0.41624  -0.38865
 Alpha  occ. eigenvalues --   -0.38806  -0.37760  -0.36248  -0.35157  -0.34038
 Alpha  occ. eigenvalues --   -0.28942  -0.28664  -0.25115  -0.24414
 Alpha virt. eigenvalues --    0.07931   0.08597   0.09575   0.10570   0.12442
 Alpha virt. eigenvalues --    0.13229   0.14069   0.15461   0.16036   0.17082
 Alpha virt. eigenvalues --    0.18465   0.18741   0.20509   0.20896   0.21523

 Mulliken charges:
               1
     1  C   -0.154454
     2  O   -0.349504
     3  C    0.464767
     4  C   -0.319940
     5  C    0.128473
     6  C   -0.324064
     7  O   -0.285137
     8  C   -0.119112
     9  C   -0.063428
    10  H    0.112559
    11  H    0.103076
    12  H    0.104590
    13  H    0.101132
    14  H    0.088772
    15  H    0.107628
    16  H    0.101718
    17  H    0.098407
    18  H    0.110706
    19  H    0.093809
 Sum of Mulliken charges =   0.00000

 Dipole moment (field-independent basis, Debye):
    X=             -0.0363    Y=              0.8141    Z=              0.3283  Tot=              0.8786
 Quadrupole moment (field-independent basis, Debye-Ang):
   XX=            -57.7953   YY=            -51.6579   ZZ=            -51.8518
   XY=             -6.7262   XZ=              0.6595   YZ=             -0.1397

  Exact polarizability:  77.690  -6.604  75.875  -0.264   0.390  68.181
 Approx polarizability: 111.113  -4.438 110.643  -1.153   0.338 103.612

                      1                      2                      3
                      A                      A                      A
 Frequencies --    194.0189               268.1165               356.7101
 Red. masses --      2.4275                 4.0336                 2.5851
 Frc consts  --      0.0538                 0.1708                 0.1938
 IR Inten    --      1.2757                 9.3824                 1.9612

                      4                      5                      6
                      A                      A                      A
 Frequencies --    387.0227               417.6799               458.3825
 Red. masses --      3.3038                 2.8396                 3.6512
 Frc consts  --      0.2916                 0.2919                 0.4520
 IR Inten    --      0.8153                 4.0628                 1.1270

                      7                      8                      9
                      A                      A                      A
 Frequencies --    500.0337               539.5339               577.3034
 Red. masses --      2.3272                 4.5378                 2.3056
 Frc consts  --      0.3428                 0.7783                 0.4527
 IR Inten    --      0.6937                 1.2378                 3.4858

                     10                     11                     12
                      A                      A                      A
 Frequencies --    753.4400               805.9562               820.2429
 Red. masses --      3.0908                 2.6655                 2.5417
 Frc consts  --      1.0338                 1.0201                 1.0075
 IR Inten    --     11.7379                 7.1639                 7.3295

                     13                     14                     15
                      A                      A                      A
 Frequencies --    832.8106               913.9217               926.0267
 Red. masses --      2.7441                 2.0886                 2.1774
 Frc consts  --      1.1214                 1.0278                 1.1001
 IR Inten    --      6.9351                 5.5784                25.1228

                     16                     17                     18
                      A                      A                      A
 Frequencies --    955.3136               959.4413               972.1194
 Red. masses --      3.2343                 1.9342                 2.0996
 Frc consts  --      1.7391                 1.0490                 1.1691
 IR Inten    --     20.1453                29.8781                34.2873

                     19                     20                     21
                      A                      A                      A
 Frequencies --    983.9069              1002.1249              1039.6526
 Red. masses --      2.9917                 2.3608                 1.1320
 Frc consts  --      1.7064                 1.3969                 0.7209
 IR Inten    --      7.8329                16.2854                 4.9823

                     22                     23                     24
                      A                      A                      A
 Frequencies --   1052.7533              1116.7908              1140.8181
 Red. masses --      3.4313                 2.0689                 1.9325
 Frc consts  --      2.2406                 1.5203                 1.4818
 IR Inten    --     31.7589                 5.4271                11.9908

                     25                     26                     27
                      A                      A                      A
 Frequencies --   1161.5493              1164.6758              1174.8682
 Red. masses --      1.4077                 2.0977                 2.0444
 Frc consts  --      1.1191                 1.6765                 1.6626
 IR Inten    --      2.0042                34.8195                18.9391

                     28                     29                     30
                      A                      A                      A
 Frequencies --   1182.5223              1225.8872              1249.8526
 Red. masses --      1.9563                 1.3980                 1.6564
 Frc consts  --      1.6118                 1.2378                 1.5245
 IR Inten    --     39.5866                13.2109                15.6186

                     31                     32                     33
                      A                      A                      A
 Frequencies --   1256.0180              1276.4727              1300.7471
 Red. masses --      1.3558                 1.5318                 1.8889
 Frc consts  --      1.2602                 1.4706                 1.8829
 IR Inten    --      3.0821                27.2804                16.5035

                     34                     35                     36
                      A                      A                      A
 Frequencies --   1325.9437              1352.1396              1380.4873
 Red. masses --      1.4348                 1.3132                 1.4246
 Frc consts  --      1.4863                 1.4146                 1.5996
 IR Inten    --     19.8522                 5.0965                 2.7616

                     37                     38                     39
                      A                      A                      A
 Frequencies --   1409.0732              1473.3622              1502.4108
 Red. masses --      1.5765                 1.1048                 1.1230
 Frc consts  --      1.8442                 1.4131                 1.4935
 IR Inten    --      1.1140                 4.2810                 3.4962

                     40                     41                     42
                      A                      A                      A
 Frequencies --   1517.9331              1530.9806              3007.8989
 Red. masses --      1.1203                 1.0938                 1.0694
 Frc consts  --      1.5208                 1.5106                 5.7005
 IR Inten    --      0.2874                 3.4955                27.2484

                     43                     44                     45
                      A                      A                      A
 Frequencies --   3016.6339              3057.6863              3060.6800
 Red. masses --      1.0638                 1.0616                 1.0786
 Frc consts  --      5.7036                 5.8479                 5.9534
 IR Inten    --     70.3580                10.9114                32.9803

                     46                     47                     48
                      A                      A                      A
 Frequencies --   3076.0789              3093.0805              3098.2384
 Red. masses --      1.0579                 1.0996                 1.0986
 Frc consts  --      5.8978                 6.1985                 6.2131
 IR Inten    --     13.8048                23.7042                62.1519

                     49                     50                     51
                      A                      A                      A
 Frequencies --   3120.1090              3125.5272              3131.3594
 Red. masses --      1.0912                 1.1089                 1.1083
 Frc consts  --      6.2590                 6.3827                 6.4030
 IR Inten    --     35.3956                29.3959                27.2156

 - Thermochemistry -
 -------------------
 Temperature   298.150 Kelvin.  Pressure   1.00000 Atm.
 Atom     1 has atomic number  6 and mass  12.00000

 Molecular mass:   126.06808 amu.
 Principal axes and moments of inertia in atomic units:
                           1         2         3
     Eigenvalues --   618.49519 971.681201258.37527
           X            0.99627  -0.08631   0.00071
           Y            0.08630   0.99624   0.00811
           Z           -0.00141  -0.00802   0.99997
 This molecule is an asymmetric top.
 Rotational symmetry number  1.
 Warning -- assumption of classical behavior for rotation
           may cause significant error
 Rotational temperatures (Kelvin)      0.14004     0.08914     0.06883
 Rotational constants (GHZ):           2.91796     1.85734     1.43418
 Zero-point vibrational energy     426147.7 (Joules/Mol)
                                  101.85175 (Kcal/Mol)
 Warning -- explicit consideration of   9 degrees of freedom as
           vibrations may cause significant error
 Vibrational temperatures:    279.15   385.76   513.23   556.84   600.95
          (Kelvin)            659.51   719.44   776.27   830.61  1084.03
                             1159.59  1180.15  1198.23  1314.93  1332.34
                             1374.48  1380.42  1398.66  1415.62  1441.83
                             1495.83  1514.68  1606.81  1641.38  1671.21
                             1675.71  1690.37  1701.38  1763.78  1798.26
                             1807.13  1836.56  1871.48  1907.73  1945.42
                             1986.21  2027.34  2119.84  2161.63  2183.96
                             2202.74  4327.69  4340.26  4399.32  4403.63
                             4425.79  4450.25  4457.67  4489.14  4496.93
                             4505.32

 Zero-point correction=                           0.162311 (Hartree/Particle)
 Thermal correction to Energy=                    0.168911
 Thermal correction to Enthalpy=                  0.169855
 Thermal correction to Gibbs Free Energy=         0.131749
 Sum of electronic and zero-point Energies=           -422.977512
 Sum of electronic and thermal Energies=              -422.970913
 Sum of electronic and thermal Enthalpies=            -422.969968
 Sum of electronic and thermal Free Energies=         -423.008074

                     E (Thermal)             CV                S
                      KCal/Mol        Cal/Mol-Kelvin    Cal/Mol-Kelvin
 Total                  105.993             28.117             80.201
 Electronic               0.000              0.000              0.000
 Translational            0.889              2.981             40.409
 Rotational               0.889              2.981             28.116
 Vibrational            104.216             22.156             11.676
 Vibration     1          0.635              1.848              2.189
 Vibration     2          0.673              1.732              1.608
 Vibration     3          0.732              1.561              1.136
 Vibration     4          0.755              1.498              1.012
 Vibration     5          0.781              1.432              0.900
 Vibration     6          0.816              1.342              0.771
 Vibration     7          0.855              1.250              0.658
 Vibration     8          0.895              1.163              0.566
 Vibration     9          0.934              1.080              0.490

 Optimization completed.
    -- Stationary point found.
 Normal termination of Gaussian 09 at Mon Jan 27 13:08:36 2020.
