 Gaussian 09, Revision D.01,
 Gaussian 09:  ES64L-G09RevD.01 24-Apr-2013

 -----------------------------
 # b3lyp 6-31G(2df,p) opt Freq
 -----------------------------

 -----
 titel
 -----
 Symbolic Z-matrix:
 Charge =  0 Multiplicity = 1

 SCF Done:  E(RB3LYP) =  -423.137345041     A.U. after   14 cycles
 Optimization completed.
    -- Stationary point found.
 Normal termination of Gaussian 09 at Mon Jan 27 13:58:53 2020.

 ----------------------------------------------------------------------
 #N Geom=AllCheck Guess=TCheck SCRF=Check GenChk RB3LYP/6-31G(2df,p) Fr
 eq
 ----------------------------------------------------------------------

 Structure from the checkpoint file:  "/scratch/puck/g09_3a1bdb53-44e7-44b7-b41b-d33196694e2c/Gau-170713.chk"
 -----
 titel
 -----
 Charge =  0 Multiplicity = 1

                         Standard orientation:
 ---------------------------------------------------------------------
 Center     Atomic      Atomic             Coordinates (Angstroms)
 Number     Number       Type             X           Y           Z
 ---------------------------------------------------------------------
      1          6           0        3.658450   -0.593932    0.043580
      2          6           0        2.294470   -0.129259   -0.165976
      3          6           0        1.175551    0.272037   -0.365744
      4          6           0       -0.207595    0.747798   -0.546130
      5          8           0       -0.388921    2.057528   -0.028372
      6          6           0       -1.170804   -0.223273    0.125086
      7          8           0       -0.970676   -0.273168    1.515568
      8          6           0       -1.644707   -1.458211   -0.588255
      9          6           0       -2.593382   -0.301744   -0.317697
     10          1           0        4.080367   -0.182634    0.967126
     11          1           0        3.701759   -1.686185    0.116172
     12          1           0        4.310577   -0.289780   -0.782327
     13          1           0       -0.438249    0.810091   -1.615810
     14          1           0       -0.431736    1.951413    0.931160
     15          1           0       -0.094091   -0.655731    1.656005
     16          1           0       -1.312083   -1.633694   -1.605936
     17          1           0       -1.767778   -2.351655    0.013343
     18          1           0       -2.909123    0.320928   -1.147275
     19          1           0       -3.334776   -0.438130    0.460794
 ---------------------------------------------------------------------

 SCF Done:  E(RB3LYP) =  -423.137345041     A.U. after    1 cycles

 The electronic state is 1-A.
 Alpha  occ. eigenvalues --  -19.14999 -19.13220 -10.25264 -10.24162 -10.20974
 Alpha  occ. eigenvalues --  -10.18708 -10.18621 -10.18322 -10.17225  -1.04185
 Alpha  occ. eigenvalues --   -1.01097  -0.85079  -0.78429  -0.73742  -0.67405
 Alpha  occ. eigenvalues --   -0.61100  -0.58561  -0.52732  -0.52068  -0.48966
 Alpha  occ. eigenvalues --   -0.45901  -0.45143  -0.43497  -0.43099  -0.42862
 Alpha  occ. eigenvalues --   -0.40926  -0.36957  -0.34157  -0.33296  -0.30183
 Alpha  occ. eigenvalues --   -0.28296  -0.26524  -0.25598  -0.25274
 Alpha virt. eigenvalues --    0.04111   0.04762   0.08448   0.10568   0.10824
 Alpha virt. eigenvalues --    0.11327   0.13129   0.14552   0.15923   0.16449
 Alpha virt. eigenvalues --    0.17817   0.18155   0.20566   0.21881   0.22305

 Mulliken charges:
               1
     1  C   -0.499677
     2  C    0.056232
     3  C    0.066793
     4  C   -0.124337
     5  O   -0.414717
     6  C    0.416846
     7  O   -0.478402
     8  C   -0.323357
     9  C   -0.315460
    10  H    0.151610
    11  H    0.149292
    12  H    0.154449
    13  H    0.107678
    14  H    0.285395
    15  H    0.285522
    16  H    0.116190
    17  H    0.117317
    18  H    0.122450
    19  H    0.126174
 Sum of Mulliken charges =   0.00000

 Dipole moment (field-independent basis, Debye):
    X=              1.4743    Y=             -1.9920    Z=              0.1126  Tot=              2.4808
 Quadrupole moment (field-independent basis, Debye-Ang):
   XX=            -46.4379   YY=            -56.3069   ZZ=            -51.6255
   XY=             -1.7378   XZ=              2.8821   YZ=              0.7533

  Exact polarizability: 107.041  -7.524  69.103   4.481   0.003  64.664
 Approx polarizability: 144.044 -18.110 102.372   8.283  -1.260  98.563

                      1                      2                      3
                      A                      A                      A
 Frequencies --     17.9235                62.1471                81.1660
 Red. masses --      1.0210                 3.8056                 3.8316
 Frc consts  --      0.0002                 0.0087                 0.0149
 IR Inten    --      0.0103                 1.9198                 0.1982

                      4                      5                      6
                      A                      A                      A
 Frequencies --    146.1876               210.1244               252.0547
 Red. masses --      4.5010                 3.3757                 3.2793
 Frc consts  --      0.0567                 0.0878                 0.1228
 IR Inten    --      2.2596                 6.6890                 9.0109

                      7                      8                      9
                      A                      A                      A
 Frequencies --    287.3385               318.6066               348.0924
 Red. masses --      3.5604                 2.0512                 3.3675
 Frc consts  --      0.1732                 0.1227                 0.2404
 IR Inten    --      1.6539                 3.9368                 1.1973

                     10                     11                     12
                      A                      A                      A
 Frequencies --    394.7439               410.5203               466.4415
 Red. masses --      1.7153                 2.7038                 1.2853
 Frc consts  --      0.1575                 0.2685                 0.1648
 IR Inten    --     23.8359                10.2420               126.1755

                     13                     14                     15
                      A                      A                      A
 Frequencies --    499.3796               525.3924               595.1988
 Red. masses --      4.2360                 3.3410                 4.9126
 Frc consts  --      0.6224                 0.5434                 1.0254
 IR Inten    --     17.5844                85.8154                 5.2122

                     16                     17                     18
                      A                      A                      A
 Frequencies --    764.5571               807.3077               813.0829
 Red. masses --      1.1411                 3.0770                 3.8700
 Frc consts  --      0.3930                 1.1816                 1.5074
 IR Inten    --      0.4689                19.1444                14.8857

                     19                     20                     21
                      A                      A                      A
 Frequencies --    899.4440               930.1852               963.5214
 Red. masses --      1.6587                 1.4560                 4.1964
 Frc consts  --      0.7906                 0.7422                 2.2954
 IR Inten    --     10.5361                12.5695                21.8386

                     22                     23                     24
                      A                      A                      A
 Frequencies --    987.4928              1043.0895              1052.1487
 Red. masses --      2.4300                 2.3151                 1.4104
 Frc consts  --      1.3961                 1.4841                 0.9199
 IR Inten    --      5.2613                41.0599                 3.2072

                     25                     26                     27
                      A                      A                      A
 Frequencies --   1053.9148              1059.5780              1077.0654
 Red. masses --      1.4369                 2.0775                 1.4313
 Frc consts  --      0.9404                 1.3743                 0.9783
 IR Inten    --     12.9323                71.6187                 1.1477

                     28                     29                     30
                      A                      A                      A
 Frequencies --   1150.6521              1185.5733              1225.7406
 Red. masses --      3.8458                 1.2847                 1.5976
 Frc consts  --      3.0000                 1.0639                 1.4142
 IR Inten    --     21.6865                 0.5873                27.8520

                     31                     32                     33
                      A                      A                      A
 Frequencies --   1279.0678              1301.3878              1312.2686
 Red. masses --      1.5063                 3.0156                 1.3392
 Frc consts  --      1.4519                 3.0091                 1.3587
 IR Inten    --     50.8137                38.2364                54.2431

                     34                     35                     36
                      A                      A                      A
 Frequencies --   1394.3474              1414.2477              1434.1051
 Red. masses --      1.4337                 1.2412                 1.2700
 Frc consts  --      1.6423                 1.4626                 1.5389
 IR Inten    --     33.7475                 6.4262                55.2308

                     37                     38                     39
                      A                      A                      A
 Frequencies --   1454.6560              1477.1898              1478.2699
 Red. masses --      1.0917                 1.0395                 1.0395
 Frc consts  --      1.3611                 1.3364                 1.3384
 IR Inten    --      3.4462                 5.6721                 6.4881

                     40                     41                     42
                      A                      A                      A
 Frequencies --   1504.3411              2359.6665              3028.9058
 Red. masses --      1.6600                11.8639                 1.0348
 Frc consts  --      2.2134                38.9205                 5.5932
 IR Inten    --      6.3134                13.7138                28.2548

                     43                     44                     45
                      A                      A                      A
 Frequencies --   3048.1161              3089.9937              3091.5383
 Red. masses --      1.0840                 1.1002                 1.1002
 Frc consts  --      5.9339                 6.1892                 6.1956
 IR Inten    --     18.9013                 9.3035                 8.2289

                     46                     47                     48
                      A                      A                      A
 Frequencies --   3133.4629              3141.4075              3219.5797
 Red. masses --      1.0530                 1.0559                 1.1184
 Frc consts  --      6.0913                 6.1396                 6.8301
 IR Inten    --      9.6249                 7.7526                 1.2990

                     49                     50                     51
                      A                      A                      A
 Frequencies --   3234.7112              3754.4449              3770.5169
 Red. masses --      1.1160                 1.0653                 1.0653
 Frc consts  --      6.8802                 8.8472                 8.9233
 IR Inten    --      8.2562                22.0104                32.3478

 - Thermochemistry -
 -------------------
 Temperature   298.150 Kelvin.  Pressure   1.00000 Atm.
 Atom     1 has atomic number  6 and mass  12.00000

 Molecular mass:   126.06808 amu.
 Principal axes and moments of inertia in atomic units:
                           1         2         3
     Eigenvalues --   657.871791864.478292095.76149
           X            0.99989  -0.00794   0.01223
           Y            0.00770   0.99977   0.01986
           Z           -0.01239  -0.01977   0.99973
 This molecule is an asymmetric top.
 Rotational symmetry number  1.
 Warning -- assumption of classical behavior for rotation
           may cause significant error
 Rotational temperatures (Kelvin)      0.13166     0.04645     0.04133
 Rotational constants (GHZ):           2.74330     0.96796     0.86114
 Zero-point vibrational energy     410025.4 (Joules/Mol)
                                   97.99842 (Kcal/Mol)
 Warning -- explicit consideration of  15 degrees of freedom as
           vibrations may cause significant error
 Vibrational temperatures:     25.79    89.42   116.78   210.33   302.32
          (Kelvin)            362.65   413.42   458.40   500.83   567.95
                              590.65   671.10   718.49   755.92   856.36
                             1100.03  1161.53  1169.84  1294.10  1338.33
                             1386.29  1420.78  1500.77  1513.81  1516.35
                             1524.49  1549.66  1655.53  1705.77  1763.57
                             1840.29  1872.40  1888.06  2006.15  2034.78
                             2063.35  2092.92  2125.34  2126.90  2164.41
                             3395.03  4357.91  4385.55  4445.81  4448.03
                             4508.35  4519.78  4632.25  4654.02  5401.80
                             5424.93

 Zero-point correction=                           0.156170 (Hartree/Particle)
 Thermal correction to Energy=                    0.166522
 Thermal correction to Enthalpy=                  0.167466
 Thermal correction to Gibbs Free Energy=         0.119254
 Sum of electronic and zero-point Energies=           -422.981175
 Sum of electronic and thermal Energies=              -422.970823
 Sum of electronic and thermal Enthalpies=            -422.969879
 Sum of electronic and thermal Free Energies=         -423.018091

                     E (Thermal)             CV                S
                      KCal/Mol        Cal/Mol-Kelvin    Cal/Mol-Kelvin
 Total                  104.494             37.094            101.470
 Electronic               0.000              0.000              0.000
 Translational            0.889              2.981             40.409
 Rotational               0.889              2.981             29.332
 Vibrational            102.717             31.132             31.730
 Vibration     1          0.593              1.986              6.852
 Vibration     2          0.597              1.972              4.388
 Vibration     3          0.600              1.962              3.862
 Vibration     4          0.617              1.907              2.721
 Vibration     5          0.642              1.825              2.043
 Vibration     6          0.664              1.759              1.716
 Vibration     7          0.685              1.697              1.490
 Vibration     8          0.705              1.638              1.317
 Vibration     9          0.726              1.579              1.175
 Vibration    10          0.762              1.481              0.982
 Vibration    11          0.775              1.447              0.925
 Vibration    12          0.824              1.325              0.748
 Vibration    13          0.855              1.251              0.660
 Vibration    14          0.880              1.194              0.598
 Vibration    15          0.953              1.042              0.458

 Normal termination of Gaussian 09 at Mon Jan 27 14:34:53 2020.
