 Gaussian 09, Revision D.01,
 Gaussian 09:  ES64L-G09RevD.01 24-Apr-2013

 -----------------------------
 # b3lyp 6-31G(2df,p) opt Freq
 -----------------------------

 -----
 titel
 -----
 Symbolic Z-matrix:
 Charge =  0 Multiplicity = 1

 SCF Done:  E(RB3LYP) =  -423.198775000     A.U. after   14 cycles
 Optimization completed.
    -- Stationary point found.
 Normal termination of Gaussian 09 at Mon Jan 27 13:04:28 2020.

 ----------------------------------------------------------------------
 #N Geom=AllCheck Guess=TCheck SCRF=Check GenChk RB3LYP/6-31G(2df,p) Fr
 eq
 ----------------------------------------------------------------------

 Structure from the checkpoint file:  "/scratch/puck/g09_041355bd-80f9-478a-a8f1-c90e6e4a8661/Gau-155902.chk"
 -----
 titel
 -----
 Charge =  0 Multiplicity = 1

                         Standard orientation:
 ---------------------------------------------------------------------
 Center     Atomic      Atomic             Coordinates (Angstroms)
 Number     Number       Type             X           Y           Z
 ---------------------------------------------------------------------
      1          8           0       -2.472285   -1.561424    0.088327
      2          6           0       -1.966587   -0.486009    0.099439
      3          8           0       -2.549992    0.720960   -0.201509
      4          6           0       -1.290948    1.439000    0.009465
      5          6           0       -0.585842    0.118018    0.379718
      6          6           0        0.564374   -0.381881   -0.495078
      7          6           0        1.862004    0.357137   -0.241909
      8          6           0        2.759722   -0.053182    0.899902
      9          6           0        3.184632   -0.305102   -0.526647
     10          1           0       -0.959933    1.911588   -0.918756
     11          1           0       -1.397952    2.182071    0.801833
     12          1           0       -0.319185    0.049086    1.438386
     13          1           0        0.703963   -1.451954   -0.300073
     14          1           0        0.280747   -0.296240   -1.552475
     15          1           0        1.817393    1.424804   -0.445202
     16          1           0        3.271825    0.719408    1.462439
     17          1           0        2.461962   -0.910726    1.495154
     18          1           0        3.985428    0.297234   -0.940662
     19          1           0        3.169843   -1.329451   -0.884524
 ---------------------------------------------------------------------

 SCF Done:  E(RB3LYP) =  -423.198775000     A.U. after    1 cycles

 The electronic state is 1-A.
 Alpha  occ. eigenvalues --  -19.17923 -19.13290 -10.30494 -10.25376 -10.21394
 Alpha  occ. eigenvalues --  -10.20359 -10.20297 -10.19366 -10.19293  -1.10337
 Alpha  occ. eigenvalues --   -1.03073  -0.86935  -0.79872  -0.70465  -0.66726
 Alpha  occ. eigenvalues --   -0.60821  -0.58073  -0.53751  -0.51215  -0.50796
 Alpha  occ. eigenvalues --   -0.48456  -0.47603  -0.45832  -0.41750  -0.40450
 Alpha  occ. eigenvalues --   -0.39411  -0.38520  -0.37120  -0.35592  -0.34107
 Alpha  occ. eigenvalues --   -0.30158  -0.29950  -0.29341  -0.26875
 Alpha virt. eigenvalues --    0.01216   0.07762   0.08561   0.09790   0.10610
 Alpha virt. eigenvalues --    0.10978   0.12629   0.13457   0.14371   0.14987
 Alpha virt. eigenvalues --    0.16186   0.17303   0.18624   0.21972   0.23324

 Mulliken charges:
               1
     1  O   -0.327182
     2  C    0.449627
     3  O   -0.239055
     4  C   -0.090989
     5  C   -0.188356
     6  C   -0.238893
     7  C    0.029533
     8  C   -0.257922
     9  C   -0.276494
    10  H    0.123341
    11  H    0.126188
    12  H    0.116290
    13  H    0.119507
    14  H    0.109257
    15  H    0.083191
    16  H    0.114675
    17  H    0.115069
    18  H    0.115545
    19  H    0.116669
 Sum of Mulliken charges =   0.00000

 Dipole moment (field-independent basis, Debye):
    X=              3.4400    Y=              2.3861    Z=              0.3723  Tot=              4.2030
 Quadrupole moment (field-independent basis, Debye-Ang):
   XX=            -63.7984   YY=            -53.9972   ZZ=            -51.6266
   XY=             -4.3168   XZ=             -1.1928   YZ=              0.4658

  Exact polarizability:  87.342   1.873  75.955   0.123   0.102  63.730
 Approx polarizability: 109.523   4.657 120.754   1.228  -1.666  97.312

                      1                      2                      3
                      A                      A                      A
 Frequencies --     55.7874                77.0997               113.3394
 Red. masses --      3.3659                 3.5108                 3.4533
 Frc consts  --      0.0062                 0.0123                 0.0261
 IR Inten    --      2.0627                 0.6264                 4.1385

                      4                      5                      6
                      A                      A                      A
 Frequencies --    144.5828               224.4085               304.7515
 Red. masses --      3.9019                 4.1072                 2.7222
 Frc consts  --      0.0481                 0.1219                 0.1490
 IR Inten    --      0.3819                 1.4489                 1.2149

                      7                      8                      9
                      A                      A                      A
 Frequencies --    388.2156               398.2975               549.3197
 Red. masses --      2.4618                 2.1287                 3.8710
 Frc consts  --      0.2186                 0.1990                 0.6882
 IR Inten    --      1.3084                 0.9092                 3.7387

                     10                     11                     12
                      A                      A                      A
 Frequencies --    673.7296               739.1196               779.0068
 Red. masses --      4.7442                 4.4277                 1.1259
 Frc consts  --      1.2688                 1.4252                 0.4025
 IR Inten    --      4.2636                 1.4603                 0.0382

                     13                     14                     15
                      A                      A                      A
 Frequencies --    809.6803               827.1583               865.9841
 Red. masses --      1.9482                 1.4779                 2.4413
 Frc consts  --      0.7525                 0.5957                 1.0787
 IR Inten    --      4.1371                 5.8707                 3.7452

                     16                     17                     18
                      A                      A                      A
 Frequencies --    882.0422               923.6891               948.5861
 Red. masses --      1.9361                 2.2623                 3.7989
 Frc consts  --      0.8875                 1.1372                 2.0140
 IR Inten    --      3.8871                 3.1691                46.7757

                     19                     20                     21
                      A                      A                      A
 Frequencies --    969.1597               982.1956              1052.7857
 Red. masses --      3.6055                 2.2715                 1.3852
 Frc consts  --      1.9953                 1.2911                 0.9046
 IR Inten    --     31.8537                20.1054                 4.8130

                     22                     23                     24
                      A                      A                      A
 Frequencies --   1065.6960              1082.5468              1112.7303
 Red. masses --      1.9129                 1.3740                 2.7145
 Frc consts  --      1.2800                 0.9487                 1.9803
 IR Inten    --      0.1664                 1.2590                99.9523

                     25                     26                     27
                      A                      A                      A
 Frequencies --   1124.0964              1138.1701              1158.5145
 Red. masses --      2.6425                 1.1178                 1.2166
 Frc consts  --      1.9673                 0.8532                 0.9621
 IR Inten    --     43.0656                 0.7787                 2.7253

                     28                     29                     30
                      A                      A                      A
 Frequencies --   1186.1045              1198.9514              1214.3686
 Red. masses --      1.7500                 1.4018                 1.4247
 Frc consts  --      1.4506                 1.1872                 1.2378
 IR Inten    --      0.0523                 0.2751                 4.0123

                     31                     32                     33
                      A                      A                      A
 Frequencies --   1228.2853              1259.7050              1311.8773
 Red. masses --      1.7703                 1.4890                 1.3840
 Frc consts  --      1.5736                 1.3921                 1.4034
 IR Inten    --      0.4424                 0.7361                20.0301

                     34                     35                     36
                      A                      A                      A
 Frequencies --   1347.2745              1376.2163              1416.7786
 Red. masses --      1.5033                 1.5309                 1.6439
 Frc consts  --      1.6077                 1.7083                 1.9442
 IR Inten    --      9.5691                15.7748                 0.1427

                     37                     38                     39
                      A                      A                      A
 Frequencies --   1468.3164              1483.0305              1507.0343
 Red. masses --      1.0889                 1.0983                 1.3688
 Frc consts  --      1.3831                 1.4232                 1.8316
 IR Inten    --      1.9766                 2.4019                 1.8731

                     40                     41                     42
                      A                      A                      A
 Frequencies --   1517.3968              1936.1164              3019.5726
 Red. masses --      1.0992                12.8111                 1.0624
 Frc consts  --      1.4912                28.2943                 5.7072
 IR Inten    --      3.0833               405.3091                19.6963

                     43                     44                     45
                      A                      A                      A
 Frequencies --   3061.0864              3068.0370              3079.8386
 Red. masses --      1.0946                 1.0575                 1.0882
 Frc consts  --      6.0433                 5.8647                 6.0816
 IR Inten    --      4.8130                30.3141                10.1536

                     46                     47                     48
                      A                      A                      A
 Frequencies --   3128.4024              3129.2257              3130.3969
 Red. masses --      1.0771                 1.0670                 1.1010
 Frc consts  --      6.2111                 6.1560                 6.3567
 IR Inten    --     14.6722                31.8770                16.3008

                     49                     50                     51
                      A                      A                      A
 Frequencies --   3135.4142              3208.0150              3223.2360
 Red. masses --      1.0634                 1.1175                 1.1153
 Frc consts  --      6.1593                 6.7758                 6.8271
 IR Inten    --      6.2445                 0.5807                19.3136

 - Thermochemistry -
 -------------------
 Temperature   298.150 Kelvin.  Pressure   1.00000 Atm.
 Atom     1 has atomic number  8 and mass  15.99491

 Molecular mass:   126.06808 amu.
 Principal axes and moments of inertia in atomic units:
                           1         2         3
     Eigenvalues --   454.029912182.669542410.34589
           X            0.99992  -0.01241  -0.00056
           Y            0.01242   0.99982   0.01426
           Z            0.00038  -0.01426   0.99990
 This molecule is an asymmetric top.
 Rotational symmetry number  1.
 Warning -- assumption of classical behavior for rotation
           may cause significant error
 Rotational temperatures (Kelvin)      0.19077     0.03968     0.03593
 Rotational constants (GHZ):           3.97494     0.82685     0.74875
 Zero-point vibrational energy     418844.7 (Joules/Mol)
                                  100.10630 (Kcal/Mol)
 Warning -- explicit consideration of   9 degrees of freedom as
           vibrations may cause significant error
 Vibrational temperatures:     80.27   110.93   163.07   208.02   322.87
          (Kelvin)            438.47   558.55   573.06   790.35   969.35
                             1063.43  1120.82  1164.95  1190.09  1245.96
                             1269.06  1328.98  1364.80  1394.40  1413.16
                             1514.72  1533.30  1557.54  1600.97  1617.32
                             1637.57  1666.84  1706.54  1725.02  1747.20
                             1767.23  1812.43  1887.50  1938.43  1980.07
                             2038.43  2112.58  2133.75  2168.28  2183.19
                             2785.64  4344.49  4404.22  4414.22  4431.20
                             4501.07  4502.25  4503.94  4511.16  4615.61
                             4637.51

 Zero-point correction=                           0.159530 (Hartree/Particle)
 Thermal correction to Energy=                    0.168141
 Thermal correction to Enthalpy=                  0.169085
 Thermal correction to Gibbs Free Energy=         0.125016
 Sum of electronic and zero-point Energies=           -423.039245
 Sum of electronic and thermal Energies=              -423.030634
 Sum of electronic and thermal Enthalpies=            -423.029690
 Sum of electronic and thermal Free Energies=         -423.073759

                     E (Thermal)             CV                S
                      KCal/Mol        Cal/Mol-Kelvin    Cal/Mol-Kelvin
 Total                  105.510             31.398             92.752
 Electronic               0.000              0.000              0.000
 Translational            0.889              2.981             40.409
 Rotational               0.889              2.981             29.259
 Vibrational            103.733             25.437             23.085
 Vibration     1          0.596              1.975              4.601
 Vibration     2          0.599              1.964              3.963
 Vibration     3          0.607              1.938              3.211
 Vibration     4          0.616              1.909              2.742
 Vibration     5          0.649              1.804              1.923
 Vibration     6          0.696              1.665              1.391
 Vibration     7          0.756              1.495              1.007
 Vibration     8          0.765              1.474              0.969
 Vibration     9          0.905              1.141              0.546

 Optimization completed.
    -- Stationary point found.
 Normal termination of Gaussian 09 at Mon Jan 27 13:41:20 2020.
