 Gaussian 09, Revision D.01,
 Gaussian 09:  ES64L-G09RevD.01 24-Apr-2013

 -----------------------------
 # b3lyp 6-31G(2df,p) opt Freq
 -----------------------------

 -----
 titel
 -----
 Symbolic Z-matrix:
 Charge =  0 Multiplicity = 1

 SCF Done:  E(RB3LYP) =  -423.148269030     A.U. after   14 cycles
 Optimization completed.
    -- Stationary point found.
 Normal termination of Gaussian 09 at Tue Jan 28 09:25:11 2020.

 ----------------------------------------------------------------------
 #N Geom=AllCheck Guess=TCheck SCRF=Check GenChk RB3LYP/6-31G(2df,p) Fr
 eq
 ----------------------------------------------------------------------

 Structure from the checkpoint file:  "/scratch/puck/g09_96f9da69-cca7-46fe-b143-a086748654e1/Gau-82698.chk"
 -----
 titel
 -----
 Charge =  0 Multiplicity = 1

                         Standard orientation:
 ---------------------------------------------------------------------
 Center     Atomic      Atomic             Coordinates (Angstroms)
 Number     Number       Type             X           Y           Z
 ---------------------------------------------------------------------
      1          6           0       -3.053962   -0.725763    0.045698
      2          8           0       -1.867834   -0.528238   -0.708714
      3          6           0       -0.868886    0.103959   -0.006858
      4          6           0       -0.870821    1.585643    0.245114
      5          6           0        0.244945    0.966775   -0.572175
      6          6           0        1.268877    0.310512    0.375457
      7          6           0        0.113467   -0.609499    0.929509
      8          6           0        2.326797   -0.486630   -0.338194
      9          8           0        3.509850   -0.409692   -0.128078
     10          1           0       -3.468161    0.229289    0.396579
     11          1           0       -3.774232   -1.210554   -0.616414
     12          1           0       -2.878797   -1.373394    0.916030
     13          1           0       -1.597235    2.131230   -0.348728
     14          1           0       -0.672496    2.006712    1.228294
     15          1           0        0.438016    1.271727   -1.593214
     16          1           0        1.745813    0.976872    1.098707
     17          1           0        0.259383   -1.654799    0.641946
     18          1           0       -0.073079   -0.554695    2.005687
     19          1           0        1.922157   -1.188928   -1.105862
 ---------------------------------------------------------------------

 SCF Done:  E(RB3LYP) =  -423.148269030     A.U. after    1 cycles

 The electronic state is 1-A.
 Alpha  occ. eigenvalues --  -19.15699 -19.13707 -10.26805 -10.25009 -10.23330
 Alpha  occ. eigenvalues --  -10.20536 -10.20466 -10.20128 -10.19640  -1.05305
 Alpha  occ. eigenvalues --   -1.04400  -0.90439  -0.76048  -0.70732  -0.67676
 Alpha  occ. eigenvalues --   -0.60503  -0.57942  -0.54699  -0.52491  -0.48589
 Alpha  occ. eigenvalues --   -0.46816  -0.45621  -0.44899  -0.43257  -0.41456
 Alpha  occ. eigenvalues --   -0.40011  -0.39088  -0.38038  -0.34566  -0.33688
 Alpha  occ. eigenvalues --   -0.31616  -0.26826  -0.26435  -0.24394
 Alpha virt. eigenvalues --   -0.02189   0.08884   0.10124   0.10332   0.11406
 Alpha virt. eigenvalues --    0.11972   0.12566   0.14327   0.14564   0.16091
 Alpha virt. eigenvalues --    0.16332   0.17228   0.17885   0.19210   0.21032

 Mulliken charges:
               1
     1  C   -0.259171
     2  O   -0.280190
     3  C    0.463547
     4  C   -0.346303
     5  C   -0.159265
     6  C   -0.070129
     7  C   -0.337779
     8  C    0.155977
     9  O   -0.256723
    10  H    0.114419
    11  H    0.131622
    12  H    0.114655
    13  H    0.122071
    14  H    0.108724
    15  H    0.105560
    16  H    0.090377
    17  H    0.118728
    18  H    0.107089
    19  H    0.076791
 Sum of Mulliken charges =   0.00000

 Dipole moment (field-independent basis, Debye):
    X=             -3.3487    Y=              0.3947    Z=              0.8289  Tot=              3.4722
 Quadrupole moment (field-independent basis, Debye-Ang):
   XX=            -63.2903   YY=            -51.9215   ZZ=            -52.4159
   XY=              1.1419   XZ=             -1.8068   YZ=             -0.9837

  Exact polarizability:  96.919   0.097  70.629  -0.597   1.137  65.072
 Approx polarizability: 130.386   2.071 103.780   0.119   2.615 100.541

                      1                      2                      3
                      A                      A                      A
 Frequencies --     67.1152                81.2842               101.4970
 Red. masses --      4.1195                 4.1320                 3.0819
 Frc consts  --      0.0109                 0.0161                 0.0187
 IR Inten    --      0.9255                 3.1363                 6.6899

                      4                      5                      6
                      A                      A                      A
 Frequencies --    178.7724               230.1625               294.3412
 Red. masses --      1.0985                 2.8271                 2.1627
 Frc consts  --      0.0207                 0.0882                 0.1104
 IR Inten    --      0.4646                 3.8220                 0.6428

                      7                      8                      9
                      A                      A                      A
 Frequencies --    358.8087               387.2657               397.6455
 Red. masses --      2.2684                 3.5842                 4.2422
 Frc consts  --      0.1721                 0.3167                 0.3952
 IR Inten    --      3.3985                 1.0475                 5.3471

                     10                     11                     12
                      A                      A                      A
 Frequencies --    424.9508               503.4826               658.5817
 Red. masses --      2.9976                 2.9992                 2.9740
 Frc consts  --      0.3189                 0.4479                 0.7600
 IR Inten    --      5.3161                 8.8363                 7.1390

                     13                     14                     15
                      A                      A                      A
 Frequencies --    744.9915               845.7441               855.2625
 Red. masses --      3.1100                 2.4949                 1.6025
 Frc consts  --      1.0170                 1.0514                 0.6906
 IR Inten    --      2.4961                 4.6410                12.2367

                     16                     17                     18
                      A                      A                      A
 Frequencies --    910.0032               923.9490               963.5725
 Red. masses --      3.1581                 1.8411                 1.5957
 Frc consts  --      1.5409                 0.9260                 0.8729
 IR Inten    --      7.3897                 2.6062                10.9203

                     19                     20                     21
                      A                      A                      A
 Frequencies --    992.7059              1017.4628              1020.3872
 Red. masses --      2.6795                 1.3709                 2.1105
 Frc consts  --      1.5558                 0.8362                 1.2947
 IR Inten    --     33.0394                 0.8530                 5.7820

                     22                     23                     24
                      A                      A                      A
 Frequencies --   1060.2419              1080.6697              1095.7414
 Red. masses --      1.7955                 1.6871                 3.0536
 Frc consts  --      1.1892                 1.1609                 2.1601
 IR Inten    --      7.0005                 0.8527                52.0986

                     25                     26                     27
                      A                      A                      A
 Frequencies --   1129.9767              1175.0948              1180.6011
 Red. masses --      2.1220                 1.7985                 1.2839
 Frc consts  --      1.5964                 1.4632                 1.0544
 IR Inten    --      0.4923                46.0464                 3.0650

                     28                     29                     30
                      A                      A                      A
 Frequencies --   1204.9026              1226.1838              1232.5999
 Red. masses --      1.5112                 1.3595                 1.4792
 Frc consts  --      1.2927                 1.2043                 1.3241
 IR Inten    --      8.7873                 6.5529                 0.8394

                     31                     32                     33
                      A                      A                      A
 Frequencies --   1248.1954              1278.6228              1308.7966
 Red. masses --      1.6233                 2.3558                 1.8934
 Frc consts  --      1.4901                 2.2692                 1.9109
 IR Inten    --     33.8777                21.7528                32.8858

                     34                     35                     36
                      A                      A                      A
 Frequencies --   1379.8206              1426.6268              1472.2511
 Red. masses --      2.3059                 1.2147                 1.1407
 Frc consts  --      2.5866                 1.4566                 1.4567
 IR Inten    --    116.2921                 3.1780                 5.3385

                     37                     38                     39
                      A                      A                      A
 Frequencies --   1479.0951              1488.8367              1504.1209
 Red. masses --      1.1192                 1.0605                 1.1817
 Frc consts  --      1.4427                 1.3850                 1.5751
 IR Inten    --      0.7108                 4.3022                27.8529

                     40                     41                     42
                      A                      A                      A
 Frequencies --   1508.3707              1831.4191              2848.6908
 Red. masses --      1.2515                10.2565                 1.0815
 Frc consts  --      1.6777                20.2686                 5.1711
 IR Inten    --      2.2010               223.4176                87.5642

                     43                     44                     45
                      A                      A                      A
 Frequencies --   2995.8663              3049.4507              3052.3095
 Red. masses --      1.0348                 1.0784                 1.0819
 Frc consts  --      5.4719                 5.9084                 5.9389
 IR Inten    --     49.9964                 7.9060                62.9787

                     46                     47                     48
                      A                      A                      A
 Frequencies --   3082.0014              3105.3431              3106.8070
 Red. masses --      1.0872                 1.0586                 1.1055
 Frc consts  --      6.0847                 6.0148                 6.2869
 IR Inten    --     17.4163                10.6887                25.6643

                     49                     50                     51
                      A                      A                      A
 Frequencies --   3126.5427              3190.8028              3205.8702
 Red. masses --      1.0987                 1.0951                 1.1110
 Frc consts  --      6.3277                 6.5690                 6.7274
 IR Inten    --     26.9063                 5.0902                 9.6554

 - Thermochemistry -
 -------------------
 Temperature   298.150 Kelvin.  Pressure   1.00000 Atm.
 Atom     1 has atomic number  6 and mass  12.00000

 Molecular mass:   126.06808 amu.
 Principal axes and moments of inertia in atomic units:
                           1         2         3
     Eigenvalues --   433.583121968.948852125.18695
           X            0.99996   0.00573  -0.00635
           Y           -0.00581   0.99992  -0.01163
           Z            0.00628   0.01167   0.99991
 This molecule is an asymmetric top.
 Rotational symmetry number  1.
 Warning -- assumption of classical behavior for rotation
           may cause significant error
 Rotational temperatures (Kelvin)      0.19976     0.04399     0.04076
 Rotational constants (GHZ):           4.16239     0.91660     0.84922
 Zero-point vibrational energy     412914.0 (Joules/Mol)
                                   98.68883 (Kcal/Mol)
 Warning -- explicit consideration of  11 degrees of freedom as
           vibrations may cause significant error
 Vibrational temperatures:     96.56   116.95   146.03   257.21   331.15
          (Kelvin)            423.49   516.25   557.19   572.12   611.41
                              724.40   947.55  1071.88  1216.84  1230.53
                             1309.29  1329.35  1386.36  1428.28  1463.90
                             1468.11  1525.45  1554.84  1576.53  1625.78
                             1690.70  1698.62  1733.58  1764.20  1773.43
                             1795.87  1839.65  1883.06  1985.25  2052.60
                             2118.24  2128.09  2142.10  2164.09  2170.21
                             2635.00  4098.63  4310.38  4387.47  4391.59
                             4434.31  4467.89  4470.00  4498.39  4590.85
                             4612.53

 Zero-point correction=                           0.157271 (Hartree/Particle)
 Thermal correction to Energy=                    0.166306
 Thermal correction to Enthalpy=                  0.167251
 Thermal correction to Gibbs Free Energy=         0.122842
 Sum of electronic and zero-point Energies=           -422.990998
 Sum of electronic and thermal Energies=              -422.981963
 Sum of electronic and thermal Enthalpies=            -422.981018
 Sum of electronic and thermal Free Energies=         -423.025427

                     E (Thermal)             CV                S
                      KCal/Mol        Cal/Mol-Kelvin    Cal/Mol-Kelvin
 Total                  104.359             32.914             93.466
 Electronic               0.000              0.000              0.000
 Translational            0.889              2.981             40.409
 Rotational               0.889              2.981             28.985
 Vibrational            102.581             26.952             24.072
 Vibration     1          0.598              1.970              4.236
 Vibration     2          0.600              1.962              3.860
 Vibration     3          0.604              1.948              3.425
 Vibration     4          0.629              1.868              2.341
 Vibration     5          0.652              1.795              1.878
 Vibration     6          0.689              1.684              1.449
 Vibration     7          0.734              1.557              1.127
 Vibration     8          0.756              1.497              1.011
 Vibration     9          0.764              1.475              0.971
 Vibration    10          0.787              1.416              0.875
 Vibration    11          0.859              1.242              0.649

 Normal termination of Gaussian 09 at Tue Jan 28 10:18:43 2020.
