 Gaussian 09, Revision D.01,
 Gaussian 09:  ES64L-G09RevD.01 24-Apr-2013

 -----------------------------
 # b3lyp 6-31G(2df,p) opt Freq
 -----------------------------

 -----
 titel
 -----
 Symbolic Z-matrix:
 Charge =  0 Multiplicity = 1

 SCF Done:  E(RB3LYP) =  -423.167120540     A.U. after   14 cycles
 Optimization completed.
    -- Stationary point found.
 Normal termination of Gaussian 09 at Mon Jan 27 12:06:33 2020.

 ----------------------------------------------------------------------
 #N Geom=AllCheck Guess=TCheck SCRF=Check GenChk RB3LYP/6-31G(2df,p) Fr
 eq
 ----------------------------------------------------------------------

 Structure from the checkpoint file:  "/scratch/puck/g09_e54f09f4-1493-414b-9dff-c76b37f74395/Gau-165369.chk"
 -----
 titel
 -----
 Charge =  0 Multiplicity = 1

                         Standard orientation:
 ---------------------------------------------------------------------
 Center     Atomic      Atomic             Coordinates (Angstroms)
 Number     Number       Type             X           Y           Z
 ---------------------------------------------------------------------
      1          6           0        2.688984   -0.200120    0.675156
      2          8           0        2.559599   -0.190919   -0.742941
      3          6           0        1.681285    0.656771    0.020844
      4          6           0        0.231933    0.350756   -0.010616
      5          6           0       -0.678557    1.326706   -0.055513
      6          6           0       -2.156274    1.048574   -0.047660
      7          6           0       -2.413046   -0.409380    0.341196
      8          8           0       -1.551022   -1.280316   -0.369906
      9          6           0       -0.196518   -1.100355   -0.013520
     10          1           0        2.385045   -1.121668    1.168364
     11          1           0        3.596976    0.255452    1.069102
     12          1           0        1.917428    1.718359   -0.062436
     13          1           0       -0.356316    2.365019   -0.100941
     14          1           0       -2.670555    1.718212    0.653865
     15          1           0       -2.582044    1.257388   -1.038853
     16          1           0       -2.270926   -0.536263    1.427651
     17          1           0       -3.433162   -0.717071    0.095971
     18          1           0        0.000064   -1.552236    0.976618
     19          1           0        0.398035   -1.655032   -0.745899
 ---------------------------------------------------------------------

 SCF Done:  E(RB3LYP) =  -423.167120540     A.U. after    1 cycles

 The electronic state is 1-A.
 Alpha  occ. eigenvalues --  -19.15408 -19.13844 -10.24388 -10.23743 -10.22966
 Alpha  occ. eigenvalues --  -10.22833 -10.19174 -10.18922 -10.18799  -1.07251
 Alpha  occ. eigenvalues --   -1.03451  -0.81234  -0.77019  -0.68341  -0.66053
 Alpha  occ. eigenvalues --   -0.64382  -0.60472  -0.53119  -0.51275  -0.49562
 Alpha  occ. eigenvalues --   -0.47530  -0.46667  -0.43409  -0.42409  -0.40100
 Alpha  occ. eigenvalues --   -0.39547  -0.38010  -0.37686  -0.35949  -0.32455
 Alpha  occ. eigenvalues --   -0.30789  -0.27167  -0.25217  -0.24073
 Alpha virt. eigenvalues --    0.00747   0.09334   0.09823   0.10809   0.11229
 Alpha virt. eigenvalues --    0.12525   0.13779   0.14256   0.15459   0.16340
 Alpha virt. eigenvalues --    0.17849   0.18676   0.20222   0.20783   0.22025

 Mulliken charges:
               1
     1  C   -0.192244
     2  O   -0.235436
     3  C   -0.004928
     4  C    0.296911
     5  C   -0.168768
     6  C   -0.256420
     7  C   -0.081915
     8  O   -0.242668
     9  C   -0.174670
    10  H    0.116822
    11  H    0.118116
    12  H    0.091765
    13  H    0.084107
    14  H    0.104891
    15  H    0.119921
    16  H    0.087729
    17  H    0.107806
    18  H    0.091395
    19  H    0.137586
 Sum of Mulliken charges =   0.00000

 Dipole moment (field-independent basis, Debye):
    X=             -0.4783    Y=              1.4444    Z=              2.1484  Tot=              2.6326
 Quadrupole moment (field-independent basis, Debye-Ang):
   XX=            -51.7580   YY=            -52.5309   ZZ=            -54.7222
   XY=             -1.6354   XZ=              3.2428   YZ=             -1.8183

  Exact polarizability: 103.369 -10.257  77.174   3.974  -3.402  57.579
 Approx polarizability: 136.072 -22.862 118.930   4.093  -2.264  93.891

                      1                      2                      3
                      A                      A                      A
 Frequencies --     66.3559               121.2855               187.2147
 Red. masses --      3.4330                 2.8212                 4.0937
 Frc consts  --      0.0089                 0.0245                 0.0845
 IR Inten    --      1.1461                 0.9159                 1.1040

                      4                      5                      6
                      A                      A                      A
 Frequencies --    214.9179               300.5188               362.6654
 Red. masses --      2.2829                 2.9694                 2.2427
 Frc consts  --      0.0621                 0.1580                 0.1738
 IR Inten    --      6.0501                 3.8223                 2.7915

                      7                      8                      9
                      A                      A                      A
 Frequencies --    380.4543               486.6239               530.4992
 Red. masses --      4.0629                 3.3602                 4.0067
 Frc consts  --      0.3465                 0.4688                 0.6644
 IR Inten    --      0.1394                 2.1411                 3.2509

                     10                     11                     12
                      A                      A                      A
 Frequencies --    550.8800               637.0976               798.5536
 Red. masses --      3.4542                 2.2056                 2.0348
 Frc consts  --      0.6176                 0.5274                 0.7645
 IR Inten    --      4.3046                 6.5232                 5.3974

                     13                     14                     15
                      A                      A                      A
 Frequencies --    820.4976               872.8925               883.5766
 Red. masses --      5.1737                 2.9157                 1.6601
 Frc consts  --      2.0521                 1.3089                 0.7636
 IR Inten    --     30.1451                25.0775                 9.4820

                     16                     17                     18
                      A                      A                      A
 Frequencies --    908.8806               938.8874               960.3586
 Red. masses --      2.5045                 2.4311                 2.2614
 Frc consts  --      1.2189                 1.2626                 1.2288
 IR Inten    --      4.4211                20.2998                 2.6444

                     19                     20                     21
                      A                      A                      A
 Frequencies --   1012.6447              1037.6884              1054.9974
 Red. masses --      2.2939                 1.7419                 1.9385
 Frc consts  --      1.3859                 1.1051                 1.2712
 IR Inten    --     22.3208                 3.8770                11.0066

                     22                     23                     24
                      A                      A                      A
 Frequencies --   1091.0405              1100.1802              1142.6084
 Red. masses --      1.5755                 1.3206                 3.9057
 Frc consts  --      1.1050                 0.9418                 3.0043
 IR Inten    --      1.2098                 2.1278                58.5300

                     25                     26                     27
                      A                      A                      A
 Frequencies --   1152.9183              1169.8693              1201.1029
 Red. masses --      1.6811                 1.3405                 1.8834
 Frc consts  --      1.3165                 1.0809                 1.6009
 IR Inten    --     14.7351                 2.3527                 4.3257

                     28                     29                     30
                      A                      A                      A
 Frequencies --   1230.2181              1259.1493              1284.2854
 Red. masses --      1.2267                 1.2616                 1.5198
 Frc consts  --      1.0939                 1.1785                 1.4769
 IR Inten    --      1.7510                15.6723                 5.1957

                     31                     32                     33
                      A                      A                      A
 Frequencies --   1318.8013              1343.7290              1366.5328
 Red. masses --      1.2689                 1.3763                 1.5425
 Frc consts  --      1.3003                 1.4642                 1.6972
 IR Inten    --      2.4018                 7.0649                10.1193

                     34                     35                     36
                      A                      A                      A
 Frequencies --   1393.6568              1418.4497              1425.0790
 Red. masses --      1.9394                 1.4162                 1.6112
 Frc consts  --      2.2193                 1.6789                 1.9278
 IR Inten    --     11.1035                 9.2148                 5.9772

                     37                     38                     39
                      A                      A                      A
 Frequencies --   1469.2199              1491.1746              1502.2916
 Red. masses --      1.0902                 1.0801                 1.1035
 Frc consts  --      1.3866                 1.4150                 1.4673
 IR Inten    --      2.5097                 0.7602                 2.4562

                     40                     41                     42
                      A                      A                      A
 Frequencies --   1527.7245              1731.7964              2927.6407
 Red. masses --      1.2484                 7.2842                 1.0722
 Frc consts  --      1.7168                12.8714                 5.4144
 IR Inten    --      1.8468                 2.0832                53.0217

                     43                     44                     45
                      A                      A                      A
 Frequencies --   2965.6672              3012.4999              3046.0061
 Red. masses --      1.0712                 1.0613                 1.0985
 Frc consts  --      5.5510                 5.6749                 6.0047
 IR Inten    --     57.2065                31.8426                30.2360

                     46                     47                     48
                      A                      A                      A
 Frequencies --   3081.5116              3083.7339              3090.1313
 Red. masses --      1.0813                 1.0553                 1.0932
 Frc consts  --      6.0497                 5.9126                 6.1504
 IR Inten    --     17.0463                24.7050                41.0231

                     49                     50                     51
                      A                      A                      A
 Frequencies --   3102.5224              3144.3493              3170.5097
 Red. masses --      1.0884                 1.0896                 1.1189
 Frc consts  --      6.1725                 6.3473                 6.6266
 IR Inten    --     18.8511                21.8648                28.3625

 - Thermochemistry -
 -------------------
 Temperature   298.150 Kelvin.  Pressure   1.00000 Atm.
 Atom     1 has atomic number  6 and mass  12.00000

 Molecular mass:   126.06808 amu.
 Principal axes and moments of inertia in atomic units:
                           1         2         3
     Eigenvalues --   466.787201697.718281983.13711
           X            0.99990  -0.01161   0.00856
           Y            0.01189   0.99938  -0.03311
           Z           -0.00817   0.03321   0.99941
 This molecule is an asymmetric top.
 Rotational symmetry number  1.
 Warning -- assumption of classical behavior for rotation
           may cause significant error
 Rotational temperatures (Kelvin)      0.18555     0.05102     0.04368
 Rotational constants (GHZ):           3.86630     1.06304     0.91004
 Zero-point vibrational energy     420917.4 (Joules/Mol)
                                  100.60167 (Kcal/Mol)
 Warning -- explicit consideration of  10 degrees of freedom as
           vibrations may cause significant error
 Vibrational temperatures:     95.47   174.50   269.36   309.22   432.38
          (Kelvin)            521.79   547.39   700.14   763.27   792.59
                              916.64  1148.94  1180.51  1255.90  1271.27
                             1307.67  1350.85  1381.74  1456.97  1493.00
                             1517.90  1569.76  1582.91  1643.96  1658.79
                             1683.18  1728.12  1770.01  1811.63  1847.80
                             1897.46  1933.32  1966.13  2005.16  2040.83
                             2050.37  2113.88  2145.46  2161.46  2198.05
                             2491.67  4212.22  4266.93  4334.31  4382.52
                             4433.60  4436.80  4446.00  4463.83  4524.01
                             4561.65

 Zero-point correction=                           0.160319 (Hartree/Particle)
 Thermal correction to Energy=                    0.168374
 Thermal correction to Enthalpy=                  0.169319
 Thermal correction to Gibbs Free Energy=         0.127260
 Sum of electronic and zero-point Energies=           -423.006802
 Sum of electronic and thermal Energies=              -422.998746
 Sum of electronic and thermal Enthalpies=            -422.997802
 Sum of electronic and thermal Free Energies=         -423.039860

                     E (Thermal)             CV                S
                      KCal/Mol        Cal/Mol-Kelvin    Cal/Mol-Kelvin
 Total                  105.657             30.559             88.520
 Electronic               0.000              0.000              0.000
 Translational            0.889              2.981             40.409
 Rotational               0.889              2.981             28.843
 Vibrational            103.879             24.598             19.268
 Vibration     1          0.598              1.970              4.259
 Vibration     2          0.609              1.931              3.080
 Vibration     3          0.632              1.857              2.255
 Vibration     4          0.645              1.818              2.002
 Vibration     5          0.693              1.673              1.414
 Vibration     6          0.737              1.549              1.111
 Vibration     7          0.750              1.512              1.037
 Vibration     8          0.843              1.280              0.692
 Vibration     9          0.885              1.183              0.586
 Vibration    10          0.906              1.138              0.542

 Normal termination of Gaussian 09 at Mon Jan 27 12:45:04 2020.
