 Gaussian 09, Revision D.01,
 Gaussian 09:  ES64L-G09RevD.01 24-Apr-2013

 -----------------------------
 # b3lyp 6-31G(2df,p) opt Freq
 -----------------------------

 -----
 titel
 -----
 Symbolic Z-matrix:
 Charge =  0 Multiplicity = 1

 SCF Done:  E(RB3LYP) =  -423.139922426     A.U. after   13 cycles
 Optimization completed.
    -- Stationary point found.
 Normal termination of Gaussian 09 at Mon Jan 27 12:02:25 2020.

 ----------------------------------------------------------------------
 #N Geom=AllCheck Guess=TCheck SCRF=Check GenChk RB3LYP/6-31G(2df,p) Fr
 eq
 ----------------------------------------------------------------------

 Structure from the checkpoint file:  "/scratch/puck/g09_44d24ce0-6b4b-46d0-94d7-f7218230a0fd/Gau-24388.chk"
 -----
 titel
 -----
 Charge =  0 Multiplicity = 1

                         Standard orientation:
 ---------------------------------------------------------------------
 Center     Atomic      Atomic             Coordinates (Angstroms)
 Number     Number       Type             X           Y           Z
 ---------------------------------------------------------------------
      1          6           0        2.411135   -0.301092   -0.469208
      2          6           0        1.954011   -0.095033    0.964435
      3          6           0        0.970238   -0.055045   -0.175593
      4          6           0        0.293822    1.229926   -0.571357
      5          8           0       -0.849682    1.486881    0.239152
      6          6           0       -1.618301    0.364171    0.557063
      7          6           0       -2.277641   -0.518408   -0.479512
      8          6           0       -1.097089   -1.026438    0.327162
      9          8           0        0.122989   -1.165015   -0.358098
     10          1           0        2.984268    0.481233   -0.955476
     11          1           0        2.672599   -1.309865   -0.767978
     12          1           0        1.928657   -0.969108    1.604723
     13          1           0        2.208769    0.832703    1.465434
     14          1           0        0.958001    2.087785   -0.436722
     15          1           0        0.007662    1.177716   -1.633386
     16          1           0       -2.170825    0.553170    1.471644
     17          1           0       -3.270893   -0.900981   -0.271002
     18          1           0       -2.072009   -0.322370   -1.525956
     19          1           0       -1.249730   -1.793694    1.082349
 ---------------------------------------------------------------------

 SCF Done:  E(RB3LYP) =  -423.139922426     A.U. after    1 cycles

 The electronic state is 1-A.
 Alpha  occ. eigenvalues --  -19.15024 -19.14640 -10.24049 -10.23739 -10.23437
 Alpha  occ. eigenvalues --  -10.23235 -10.18903 -10.18595 -10.18089  -1.06246
 Alpha  occ. eigenvalues --   -1.02425  -0.86767  -0.82518  -0.71264  -0.63428
 Alpha  occ. eigenvalues --   -0.60851  -0.59847  -0.53160  -0.52395  -0.52068
 Alpha  occ. eigenvalues --   -0.47537  -0.46976  -0.44110  -0.41668  -0.40171
 Alpha  occ. eigenvalues --   -0.38532  -0.37858  -0.36644  -0.35752  -0.31261
 Alpha  occ. eigenvalues --   -0.29538  -0.28499  -0.24425  -0.22815
 Alpha virt. eigenvalues --    0.08103   0.09476   0.09902   0.11454   0.12530
 Alpha virt. eigenvalues --    0.13415   0.14999   0.15366   0.16223   0.16919
 Alpha virt. eigenvalues --    0.17610   0.20859   0.21350   0.22224   0.22311

 Mulliken charges:
               1
     1  C   -0.333722
     2  C   -0.317701
     3  C    0.430175
     4  C   -0.147876
     5  O   -0.260831
     6  C    0.103250
     7  C   -0.346089
     8  C    0.040987
     9  O   -0.295777
    10  H    0.114970
    11  H    0.127588
    12  H    0.120221
    13  H    0.117171
    14  H    0.109680
    15  H    0.099883
    16  H    0.105886
    17  H    0.112457
    18  H    0.125391
    19  H    0.094337
 Sum of Mulliken charges =   0.00000

 Dipole moment (field-independent basis, Debye):
    X=              0.3271    Y=             -0.1022    Z=              0.3042  Tot=              0.4582
 Quadrupole moment (field-independent basis, Debye-Ang):
   XX=            -49.9925   YY=            -55.6312   ZZ=            -51.7026
   XY=              3.3991   XZ=             -1.4339   YZ=             -2.5597

  Exact polarizability:  89.377   3.839  67.783  -0.812  -1.685  67.861
 Approx polarizability: 113.774   3.488 103.364  -1.640   0.832 103.365

                      1                      2                      3
                      A                      A                      A
 Frequencies --    100.4036               147.8896               264.7536
 Red. masses --      3.6769                 3.2671                 2.4413
 Frc consts  --      0.0218                 0.0421                 0.1008
 IR Inten    --      4.0582                 1.9633                 0.2462

                      4                      5                      6
                      A                      A                      A
 Frequencies --    297.4779               338.0937               386.2213
 Red. masses --      2.5405                 2.4511                 2.9354
 Frc consts  --      0.1325                 0.1651                 0.2580
 IR Inten    --      1.8130                 0.4311                 0.2587

                      7                      8                      9
                      A                      A                      A
 Frequencies --    481.9675               510.7548               515.3256
 Red. masses --      3.0724                 3.1082                 4.9001
 Frc consts  --      0.4205                 0.4777                 0.7667
 IR Inten    --      6.7223                 3.7891                 1.1198

                     10                     11                     12
                      A                      A                      A
 Frequencies --    666.6146               741.6091               767.8234
 Red. masses --      3.2763                 2.6529                 1.0980
 Frc consts  --      0.8578                 0.8597                 0.3814
 IR Inten    --      3.0634                15.7766                 0.2915

                     13                     14                     15
                      A                      A                      A
 Frequencies --    793.0648               808.4342               847.4760
 Red. masses --      1.9551                 2.2754                 2.1288
 Frc consts  --      0.7245                 0.8762                 0.9008
 IR Inten    --     11.5987                22.9062                 8.8016

                     16                     17                     18
                      A                      A                      A
 Frequencies --    901.4943               928.0991               960.3178
 Red. masses --      1.7575                 1.6532                 2.3228
 Frc consts  --      0.8415                 0.8390                 1.2621
 IR Inten    --     12.1594                 6.7989                15.8289

                     19                     20                     21
                      A                      A                      A
 Frequencies --    986.8629              1004.0627              1029.8123
 Red. masses --      2.3934                 1.7683                 2.6090
 Frc consts  --      1.3734                 1.0503                 1.6302
 IR Inten    --     12.1678                26.1487                28.4393

                     22                     23                     24
                      A                      A                      A
 Frequencies --   1039.1168              1053.1186              1064.8807
 Red. masses --      1.8557                 1.7364                 2.5745
 Frc consts  --      1.1806                 1.1346                 1.7201
 IR Inten    --     10.8102                11.4617                12.9396

                     25                     26                     27
                      A                      A                      A
 Frequencies --   1080.0424              1081.8025              1120.5256
 Red. masses --      1.9202                 1.6661                 1.2809
 Frc consts  --      1.3197                 1.1488                 0.9475
 IR Inten    --     11.3644                 8.1133                 1.8628

                     28                     29                     30
                      A                      A                      A
 Frequencies --   1164.5959              1184.1384              1185.8987
 Red. masses --      1.8061                 3.1241                 1.3111
 Frc consts  --      1.4432                 2.5810                 1.0864
 IR Inten    --     32.8009                 6.1311                 0.1621

                     31                     32                     33
                      A                      A                      A
 Frequencies --   1246.5099              1252.6255              1302.1935
 Red. masses --      1.9061                 1.5000                 2.0449
 Frc consts  --      1.7450                 1.3867                 2.0430
 IR Inten    --     19.9763                45.1736               123.5445

                     34                     35                     36
                      A                      A                      A
 Frequencies --   1348.4680              1366.5694              1394.9618
 Red. masses --      1.5933                 1.3988                 1.4758
 Frc consts  --      1.7070                 1.5391                 1.6920
 IR Inten    --     29.8182                 9.8539                10.7143

                     37                     38                     39
                      A                      A                      A
 Frequencies --   1427.7896              1452.8544              1473.7482
 Red. masses --      1.4714                 1.0929                 1.5016
 Frc consts  --      1.7673                 1.3592                 1.9215
 IR Inten    --      3.2863                 2.6418                23.4300

                     40                     41                     42
                      A                      A                      A
 Frequencies --   1496.5599              1503.3470              2986.3708
 Red. masses --      1.3527                 1.2487                 1.0696
 Frc consts  --      1.7849                 1.6627                 5.6202
 IR Inten    --      6.8388                 5.1776                49.7620

                     43                     44                     45
                      A                      A                      A
 Frequencies --   3091.9495              3125.3487              3134.0330
 Red. masses --      1.0935                 1.0868                 1.0511
 Frc consts  --      6.1594                 6.2546                 6.0827
 IR Inten    --     24.5598                25.1241                14.1805

                     46                     47                     48
                      A                      A                      A
 Frequencies --   3135.6460              3137.1316              3161.8928
 Red. masses --      1.0565                 1.0582                 1.0908
 Frc consts  --      6.1203                 6.1359                 6.4255
 IR Inten    --      8.3479                 5.9127                21.3889

                     49                     50                     51
                      A                      A                      A
 Frequencies --   3218.4054              3227.4195              3231.8915
 Red. masses --      1.1182                 1.1164                 1.1157
 Frc consts  --      6.8241                 6.8514                 6.8663
 IR Inten    --      0.1007                 8.7846                10.0255

 - Thermochemistry -
 -------------------
 Temperature   298.150 Kelvin.  Pressure   1.00000 Atm.
 Atom     1 has atomic number  6 and mass  12.00000

 Molecular mass:   126.06808 amu.
 Principal axes and moments of inertia in atomic units:
                           1         2         3
     Eigenvalues --   540.804751209.611411438.84808
           X            0.99970   0.02426   0.00112
           Y           -0.02419   0.99863  -0.04644
           Z           -0.00225   0.04640   0.99892
 This molecule is an asymmetric top.
 Rotational symmetry number  1.
 Warning -- assumption of classical behavior for rotation
           may cause significant error
 Rotational temperatures (Kelvin)      0.16016     0.07160     0.06020
 Rotational constants (GHZ):           3.33714     1.49200     1.25430
 Zero-point vibrational energy     419700.2 (Joules/Mol)
                                  100.31075 (Kcal/Mol)
 Warning -- explicit consideration of   9 degrees of freedom as
           vibrations may cause significant error
 Vibrational temperatures:    144.46   212.78   380.92   428.00   486.44
          (Kelvin)            555.69   693.44   734.86   741.44   959.11
                             1067.01  1104.73  1141.04  1163.16  1219.33
                             1297.05  1335.33  1381.68  1419.87  1444.62
                             1481.67  1495.06  1515.20  1532.12  1553.94
                             1556.47  1612.18  1675.59  1703.71  1706.24
                             1793.45  1802.25  1873.56  1940.14  1966.19
                             2007.04  2054.27  2090.33  2120.39  2153.21
                             2162.98  4296.72  4448.62  4496.67  4509.17
                             4511.49  4513.63  4549.25  4630.56  4643.53
                             4649.97

 Zero-point correction=                           0.159855 (Hartree/Particle)
 Thermal correction to Energy=                    0.167424
 Thermal correction to Enthalpy=                  0.168368
 Thermal correction to Gibbs Free Energy=         0.127983
 Sum of electronic and zero-point Energies=           -422.980067
 Sum of electronic and thermal Energies=              -422.972499
 Sum of electronic and thermal Enthalpies=            -422.971554
 Sum of electronic and thermal Free Energies=         -423.011939

                     E (Thermal)             CV                S
                      KCal/Mol        Cal/Mol-Kelvin    Cal/Mol-Kelvin
 Total                  105.060             30.534             84.997
 Electronic               0.000              0.000              0.000
 Translational            0.889              2.981             40.409
 Rotational               0.889              2.981             28.333
 Vibrational            103.283             24.573             16.255
 Vibration     1          0.604              1.949              3.446
 Vibration     2          0.617              1.905              2.699
 Vibration     3          0.671              1.738              1.630
 Vibration     4          0.691              1.678              1.431
 Vibration     5          0.718              1.599              1.221
 Vibration     6          0.755              1.500              1.015
 Vibration     7          0.838              1.290              0.705
 Vibration     8          0.866              1.226              0.632
 Vibration     9          0.870              1.216              0.621

 Optimization completed.
    -- Stationary point found.
 Normal termination of Gaussian 09 at Mon Jan 27 12:52:41 2020.
