 Gaussian 09, Revision D.01,
 Gaussian 09:  ES64L-G09RevD.01 24-Apr-2013

 -----------------------------
 # b3lyp 6-31G(2df,p) opt Freq
 -----------------------------

 -----
 titel
 -----
 Symbolic Z-matrix:
 Charge =  0 Multiplicity = 1

 SCF Done:  E(RB3LYP) =  -423.203288648     A.U. after   14 cycles
 Optimization completed.
    -- Stationary point found.
 Normal termination of Gaussian 09 at Mon Jan 27 18:37:40 2020.

 ----------------------------------------------------------------------
 #N Geom=AllCheck Guess=TCheck SCRF=Check GenChk RB3LYP/6-31G(2df,p) Fr
 eq
 ----------------------------------------------------------------------

 Structure from the checkpoint file:  "/scratch/puck/g09_78be7d2d-e39e-4372-ad50-9e8847d63b7d/Gau-76426.chk"
 -----
 titel
 -----
 Charge =  0 Multiplicity = 1

                         Standard orientation:
 ---------------------------------------------------------------------
 Center     Atomic      Atomic             Coordinates (Angstroms)
 Number     Number       Type             X           Y           Z
 ---------------------------------------------------------------------
      1          6           0       -2.147665   -0.619960   -0.864578
      2          6           0       -0.929266   -0.250705   -0.047031
      3          6           0       -1.148377    0.844537    1.049743
      4          6           0       -0.268222    1.825938    0.226338
      5          6           0        0.165204    0.640532   -0.689766
      6          6           0        1.461809   -0.024260   -0.247090
      7          8           0        2.584548    0.347863   -0.465800
      8          6           0        1.076772   -1.267601    0.566398
      9          8           0       -0.312730   -1.461450    0.405165
     10          1           0       -2.659409    0.276799   -1.227063
     11          1           0       -1.863189   -1.233890   -1.724255
     12          1           0       -2.851081   -1.192180   -0.251364
     13          1           0       -2.183628    1.145381    1.224573
     14          1           0       -0.705998    0.557889    2.006869
     15          1           0       -0.851771    2.566692   -0.324037
     16          1           0        0.535915    2.343090    0.753937
     17          1           0        0.166016    0.808862   -1.768782
     18          1           0        1.618736   -2.150384    0.211492
     19          1           0        1.358332   -1.104461    1.619616
 ---------------------------------------------------------------------

 SCF Done:  E(RB3LYP) =  -423.203288648     A.U. after    1 cycles

 The electronic state is 1-A.
 Alpha  occ. eigenvalues --  -19.14665 -19.13763 -10.27352 -10.24492 -10.23660
 Alpha  occ. eigenvalues --  -10.19851 -10.19525 -10.18768 -10.18268  -1.05542
 Alpha  occ. eigenvalues --   -1.03853  -0.85118  -0.75974  -0.71283  -0.68115
 Alpha  occ. eigenvalues --   -0.63647  -0.55486  -0.54998  -0.50265  -0.48460
 Alpha  occ. eigenvalues --   -0.46153  -0.45126  -0.43131  -0.42180  -0.40947
 Alpha  occ. eigenvalues --   -0.39426  -0.38527  -0.36684  -0.35427  -0.34688
 Alpha  occ. eigenvalues --   -0.32241  -0.31225  -0.26282  -0.23724
 Alpha virt. eigenvalues --   -0.02692   0.07475   0.08520   0.11261   0.12500
 Alpha virt. eigenvalues --    0.12961   0.14018   0.15839   0.16506   0.16816
 Alpha virt. eigenvalues --    0.17726   0.17963   0.19222   0.20370   0.22609

 Mulliken charges:
               1
     1  C   -0.454450
     2  C    0.433969
     3  C   -0.283037
     4  C   -0.230136
     5  C   -0.213857
     6  C    0.377944
     7  O   -0.306798
     8  C   -0.202716
     9  O   -0.299898
    10  H    0.116898
    11  H    0.123487
    12  H    0.129933
    13  H    0.105651
    14  H    0.111830
    15  H    0.114779
    16  H    0.118248
    17  H    0.098804
    18  H    0.137131
    19  H    0.122220
 Sum of Mulliken charges =   0.00000

 Dipole moment (field-independent basis, Debye):
    X=             -2.1395    Y=              0.4974    Z=              0.2074  Tot=              2.2063
 Quadrupole moment (field-independent basis, Debye-Ang):
   XX=            -59.5410   YY=            -53.7032   ZZ=            -51.4392
   XY=             -4.2498   XZ=              2.9631   YZ=              0.8209

  Exact polarizability:  84.077  -2.579  73.703   0.801  -0.970  66.246
 Approx polarizability: 119.945  -0.514 105.752  -1.807  -3.079  99.033

                      1                      2                      3
                      A                      A                      A
 Frequencies --     64.9215               131.7296               201.4230
 Red. masses --      3.4565                 2.4240                 2.4506
 Frc consts  --      0.0086                 0.0248                 0.0586
 IR Inten    --      3.3840                 5.2131                 0.2882

                      4                      5                      6
                      A                      A                      A
 Frequencies --    232.8486               279.6476               325.7948
 Red. masses --      1.0493                 3.2903                 2.2082
 Frc consts  --      0.0335                 0.1516                 0.1381
 IR Inten    --      0.0527                 1.3679                 0.0374

                      7                      8                      9
                      A                      A                      A
 Frequencies --    398.5938               464.7728               540.4730
 Red. masses --      4.0509                 3.3857                 3.3033
 Frc consts  --      0.3792                 0.4309                 0.5685
 IR Inten    --      7.3021                 5.3492                 4.7573

                     10                     11                     12
                      A                      A                      A
 Frequencies --    573.1922               637.2211               658.8771
 Red. masses --      3.7528                 3.3626                 6.7549
 Frc consts  --      0.7265                 0.8045                 1.7277
 IR Inten    --      1.1332                 1.1632                 6.4871

                     13                     14                     15
                      A                      A                      A
 Frequencies --    725.8725               775.8510               867.1489
 Red. masses --      1.5548                 2.1310                 2.6353
 Frc consts  --      0.4827                 0.7558                 1.1675
 IR Inten    --      5.8537                 1.3125                 9.4847

                     16                     17                     18
                      A                      A                      A
 Frequencies --    893.3960               912.4833               915.6188
 Red. masses --      1.8576                 1.6613                 1.9108
 Frc consts  --      0.8735                 0.8150                 0.9438
 IR Inten    --     14.2237                 1.4885                 8.1040

                     19                     20                     21
                      A                      A                      A
 Frequencies --    944.3181               967.9524               990.8733
 Red. masses --      2.4814                 2.0931                 1.9328
 Frc consts  --      1.3037                 1.1554                 1.1181
 IR Inten    --      1.9072                 0.1659                 0.7309

                     22                     23                     24
                      A                      A                      A
 Frequencies --   1080.8219              1100.7476              1117.9196
 Red. masses --      2.3728                 7.5034                 1.8231
 Frc consts  --      1.6331                 5.3565                 1.3424
 IR Inten    --     18.7718                57.6829                 2.5590

                     25                     26                     27
                      A                      A                      A
 Frequencies --   1153.4997              1177.1687              1201.9210
 Red. masses --      1.9534                 1.9980                 2.3146
 Frc consts  --      1.5313                 1.6312                 1.9700
 IR Inten    --     22.4325                 9.1282                79.0453

                     28                     29                     30
                      A                      A                      A
 Frequencies --   1210.3745              1211.9740              1233.7276
 Red. masses --      1.3985                 1.2285                 1.4069
 Frc consts  --      1.2071                 1.0632                 1.2617
 IR Inten    --      9.2940                 0.0780                 2.9110

                     31                     32                     33
                      A                      A                      A
 Frequencies --   1261.5733              1285.3501              1328.1603
 Red. masses --      1.6188                 1.5716                 2.4878
 Frc consts  --      1.5180                 1.5298                 2.5857
 IR Inten    --     28.4959                16.1084                21.5022

                     34                     35                     36
                      A                      A                      A
 Frequencies --   1339.3583              1410.5484              1474.4263
 Red. masses --      1.4811                 1.3610                 1.0821
 Frc consts  --      1.5654                 1.5955                 1.3860
 IR Inten    --      6.7388                12.5179                 2.1390

                     37                     38                     39
                      A                      A                      A
 Frequencies --   1482.1751              1484.6286              1492.7714
 Red. masses --      1.0577                 1.0766                 1.0560
 Frc consts  --      1.3690                 1.3981                 1.3865
 IR Inten    --      4.3263                 6.6023                 0.7658

                     40                     41                     42
                      A                      A                      A
 Frequencies --   1497.1648              1850.1176              2977.3607
 Red. masses --      1.1054                12.7166                 1.0699
 Frc consts  --      1.4598                25.6461                 5.5877
 IR Inten    --      3.1056               203.8845                33.6667

                     43                     44                     45
                      A                      A                      A
 Frequencies --   3037.4347              3066.5043              3072.1042
 Red. masses --      1.0346                 1.0576                 1.0615
 Frc consts  --      5.6241                 5.8594                 5.9024
 IR Inten    --     16.1968                25.3523                21.2478

                     46                     47                     48
                      A                      A                      A
 Frequencies --   3072.7508              3092.5197              3111.1504
 Red. masses --      1.0894                 1.0868                 1.1014
 Frc consts  --      6.0603                 6.1237                 6.2812
 IR Inten    --     26.3177                 8.0599                16.5800

                     49                     50                     51
                      A                      A                      A
 Frequencies --   3112.5136              3115.3053              3130.2349
 Red. masses --      1.1076                 1.1033                 1.1077
 Frc consts  --      6.3221                 6.3085                 6.3946
 IR Inten    --      0.2403                21.9539                30.0471

 - Thermochemistry -
 -------------------
 Temperature   298.150 Kelvin.  Pressure   1.00000 Atm.
 Atom     1 has atomic number  6 and mass  12.00000

 Molecular mass:   126.06808 amu.
 Principal axes and moments of inertia in atomic units:
                           1         2         3
     Eigenvalues --   689.962271128.132341420.43327
           X            0.99908  -0.03194   0.02870
           Y            0.03134   0.99928   0.02136
           Z           -0.02936  -0.02044   0.99936
 This molecule is an asymmetric top.
 Rotational symmetry number  1.
 Warning -- assumption of classical behavior for rotation
           may cause significant error
 Rotational temperatures (Kelvin)      0.12553     0.07678     0.06098
 Rotational constants (GHZ):           2.61571     1.59976     1.27056
 Zero-point vibrational energy     416810.8 (Joules/Mol)
                                   99.62016 (Kcal/Mol)
 Warning -- explicit consideration of  10 degrees of freedom as
           vibrations may cause significant error
 Vibrational temperatures:     93.41   189.53   289.80   335.02   402.35
          (Kelvin)            468.75   573.49   668.70   777.62   824.69
                              916.82   947.98  1044.37  1116.28  1247.63
                             1285.40  1312.86  1317.37  1358.66  1392.67
                             1425.64  1555.06  1583.73  1608.43  1659.63
                             1693.68  1729.29  1741.46  1743.76  1775.06
                             1815.12  1849.33  1910.92  1927.04  2029.46
                             2121.37  2132.52  2136.05  2147.76  2154.08
                             2661.90  4283.75  4370.19  4412.01  4420.07
                             4421.00  4449.44  4476.25  4478.21  4482.22
                             4503.70

 Zero-point correction=                           0.158755 (Hartree/Particle)
 Thermal correction to Energy=                    0.166964
 Thermal correction to Enthalpy=                  0.167908
 Thermal correction to Gibbs Free Energy=         0.125873
 Sum of electronic and zero-point Energies=           -423.044534
 Sum of electronic and thermal Energies=              -423.036324
 Sum of electronic and thermal Enthalpies=            -423.035380
 Sum of electronic and thermal Free Energies=         -423.077415

                     E (Thermal)             CV                S
                      KCal/Mol        Cal/Mol-Kelvin    Cal/Mol-Kelvin
 Total                  104.772             31.653             88.471
 Electronic               0.000              0.000              0.000
 Translational            0.889              2.981             40.409
 Rotational               0.889              2.981             28.493
 Vibrational            102.994             25.692             19.569
 Vibration     1          0.597              1.971              4.302
 Vibration     2          0.612              1.922              2.921
 Vibration     3          0.638              1.838              2.120
 Vibration     4          0.654              1.791              1.857
 Vibration     5          0.680              1.711              1.536
 Vibration     6          0.710              1.624              1.281
 Vibration     7          0.765              1.473              0.968
 Vibration     8          0.822              1.328              0.752
 Vibration     9          0.896              1.161              0.564
 Vibration    10          0.929              1.089              0.498

 Normal termination of Gaussian 09 at Mon Jan 27 19:34:56 2020.
