 Gaussian 09, Revision D.01,
 Gaussian 09:  ES64L-G09RevD.01 24-Apr-2013

 -----------------------------
 # b3lyp 6-31G(2df,p) opt Freq
 -----------------------------

 -----
 titel
 -----
 Symbolic Z-matrix:
 Charge =  0 Multiplicity = 1

 SCF Done:  E(RB3LYP) =  -423.177352094     A.U. after   14 cycles
 Optimization completed.
    -- Stationary point found.
 Normal termination of Gaussian 09 at Tue Jan 28 01:53:07 2020.

 ----------------------------------------------------------------------
 #N Geom=AllCheck Guess=TCheck SCRF=Check GenChk RB3LYP/6-31G(2df,p) Fr
 eq
 ----------------------------------------------------------------------

 Structure from the checkpoint file:  "/scratch/puck/g09_59b0f8f4-f1f7-4f1c-8dc8-3e28b98ff7a7/Gau-190635.chk"
 -----
 titel
 -----
 Charge =  0 Multiplicity = 1

                         Standard orientation:
 ---------------------------------------------------------------------
 Center     Atomic      Atomic             Coordinates (Angstroms)
 Number     Number       Type             X           Y           Z
 ---------------------------------------------------------------------
      1          6           0       -2.398051   -1.145329   -0.630952
      2          6           0       -1.717037    0.197868   -0.497589
      3          6           0       -1.667156    0.909763    0.833218
      4          6           0       -0.420362    0.286572    0.269176
      5          8           0        0.235681   -0.844370    0.849990
      6          6           0        1.561161   -0.331353    0.519146
      7          6           0        2.358745   -1.248513   -0.387292
      8          6           0        0.885945    0.899847   -0.119181
      9          8           0        1.247583    1.888742   -0.686591
     10          1           0       -2.021328   -1.690401   -1.502290
     11          1           0       -2.214777   -1.764878    0.250794
     12          1           0       -3.479711   -1.023622   -0.749438
     13          1           0       -1.760346    0.839110   -1.374899
     14          1           0       -1.721426    1.992960    0.863696
     15          1           0       -2.093981    0.397489    1.689923
     16          1           0        2.117077   -0.086138    1.433481
     17          1           0        1.803712   -1.473248   -1.302328
     18          1           0        3.304558   -0.769773   -0.659503
     19          1           0        2.580632   -2.189616    0.124216
 ---------------------------------------------------------------------

 SCF Done:  E(RB3LYP) =  -423.177352094     A.U. after    1 cycles

 The electronic state is 1-A.
 Alpha  occ. eigenvalues --  -19.14850 -19.14454 -10.27372 -10.24572 -10.24434
 Alpha  occ. eigenvalues --  -10.20678 -10.19833 -10.18964 -10.18511  -1.06575
 Alpha  occ. eigenvalues --   -1.04047  -0.86756  -0.76198  -0.72195  -0.68362
 Alpha  occ. eigenvalues --   -0.61813  -0.58743  -0.52798  -0.49869  -0.47799
 Alpha  occ. eigenvalues --   -0.46630  -0.44337  -0.43431  -0.41350  -0.40323
 Alpha  occ. eigenvalues --   -0.39758  -0.38701  -0.37558  -0.36468  -0.34165
 Alpha  occ. eigenvalues --   -0.33957  -0.31261  -0.24772  -0.24139
 Alpha virt. eigenvalues --   -0.02682   0.06886   0.10634   0.11190   0.12598
 Alpha virt. eigenvalues --    0.12653   0.14108   0.14761   0.15809   0.16929
 Alpha virt. eigenvalues --    0.17256   0.17927   0.19094   0.20545   0.22553

 Mulliken charges:
               1
     1  C   -0.401980
     2  C   -0.075976
     3  C   -0.358803
     4  C    0.321713
     5  O   -0.336660
     6  C    0.032606
     7  C   -0.403918
     8  C    0.265754
     9  O   -0.306216
    10  H    0.124277
    11  H    0.135877
    12  H    0.122892
    13  H    0.107977
    14  H    0.132434
    15  H    0.131719
    16  H    0.109620
    17  H    0.128544
    18  H    0.135861
    19  H    0.134279
 Sum of Mulliken charges =   0.00000

 Dipole moment (field-independent basis, Debye):
    X=             -0.6950    Y=             -1.2227    Z=              0.3210  Tot=              1.4426
 Quadrupole moment (field-independent basis, Debye-Ang):
   XX=            -49.0254   YY=            -57.7713   ZZ=            -52.9482
   XY=             -4.1848   XZ=              1.8126   YZ=              3.5655

  Exact polarizability:  94.672  -0.868  74.901  -0.300   0.379  65.770
 Approx polarizability: 122.930   3.531 112.160  -2.263  -6.478 101.480

                      1                      2                      3
                      A                      A                      A
 Frequencies --     67.2441               113.0047               156.7742
 Red. masses --      3.3834                 3.8214                 1.8139
 Frc consts  --      0.0090                 0.0288                 0.0263
 IR Inten    --      1.6932                 1.3498                 0.4679

                      4                      5                      6
                      A                      A                      A
 Frequencies --    181.4618               194.6978               203.9039
 Red. masses --      1.3304                 2.0549                 1.4455
 Frc consts  --      0.0258                 0.0459                 0.0354
 IR Inten    --      0.8351                 1.9137                 0.8426

                      7                      8                      9
                      A                      A                      A
 Frequencies --    254.0827               352.4913               369.7711
 Red. masses --      3.5976                 3.0852                 2.5584
 Frc consts  --      0.1368                 0.2259                 0.2061
 IR Inten    --      2.8749                 0.9003                 4.1030

                     10                     11                     12
                      A                      A                      A
 Frequencies --    478.9185               533.1539               572.3555
 Red. masses --      3.1434                 3.5203                 3.9302
 Frc consts  --      0.4248                 0.5896                 0.7586
 IR Inten    --      4.7550                 6.2793                 1.2039

                     13                     14                     15
                      A                      A                      A
 Frequencies --    699.0387               729.8390               808.1465
 Red. masses --      3.3954                 5.2720                 2.4427
 Frc consts  --      0.9776                 1.6545                 0.9399
 IR Inten    --      4.3226                 4.4708                 2.0632

                     16                     17                     18
                      A                      A                      A
 Frequencies --    837.8336               871.3250               879.6295
 Red. masses --      2.9714                 2.6363                 1.5109
 Frc consts  --      1.2289                 1.1792                 0.6888
 IR Inten    --     17.7066                 5.8338                 3.5078

                     19                     20                     21
                      A                      A                      A
 Frequencies --    923.6727               968.4603               995.8541
 Red. masses --      2.0261                 2.2443                 1.3955
 Frc consts  --      1.0185                 1.2402                 0.8154
 IR Inten    --      1.7207               107.8302                47.8565

                     22                     23                     24
                      A                      A                      A
 Frequencies --   1057.4681              1064.8191              1072.3088
 Red. masses --      1.3269                 2.3907                 1.8191
 Frc consts  --      0.8742                 1.5970                 1.2324
 IR Inten    --     11.4692                22.3732                20.4729

                     25                     26                     27
                      A                      A                      A
 Frequencies --   1105.9324              1125.0345              1133.8324
 Red. masses --      2.5775                 2.2016                 1.7560
 Frc consts  --      1.8574                 1.6418                 1.3301
 IR Inten    --     54.1983                 4.0501                 4.5417

                     28                     29                     30
                      A                      A                      A
 Frequencies --   1183.7264              1218.3033              1270.3265
 Red. masses --      1.6580                 2.4608                 1.6436
 Frc consts  --      1.3688                 2.1520                 1.5627
 IR Inten    --     12.0448                60.9144                 2.6912

                     31                     32                     33
                      A                      A                      A
 Frequencies --   1295.9812              1353.3576              1399.5929
 Red. masses --      1.7804                 1.4752                 1.2640
 Frc consts  --      1.7619                 1.5919                 1.4589
 IR Inten    --      3.8349                 3.9962                 2.5214

                     34                     35                     36
                      A                      A                      A
 Frequencies --   1404.4349              1422.4309              1468.7842
 Red. masses --      1.3891                 1.4717                 1.4985
 Frc consts  --      1.6143                 1.7544                 1.9047
 IR Inten    --     10.5514                 6.2363                 8.9514

                     37                     38                     39
                      A                      A                      A
 Frequencies --   1481.6394              1490.1020              1493.5600
 Red. masses --      1.0586                 1.0535                 1.0543
 Frc consts  --      1.3692                 1.3782                 1.3856
 IR Inten    --      3.8085                 4.2379                 1.0074

                     40                     41                     42
                      A                      A                      A
 Frequencies --   1501.5332              1907.4905              3027.9712
 Red. masses --      1.1079                12.8138                 1.0833
 Frc consts  --      1.4717                27.4697                 5.8517
 IR Inten    --      8.6721               279.5464                25.6212

                     43                     44                     45
                      A                      A                      A
 Frequencies --   3038.0597              3042.1318              3100.5492
 Red. masses --      1.0357                 1.0343                 1.1016
 Frc consts  --      5.6320                 5.6395                 6.2396
 IR Inten    --     27.5955                13.4265                20.4308

                     46                     47                     48
                      A                      A                      A
 Frequencies --   3117.6615              3117.9380              3122.2787
 Red. masses --      1.0976                 1.1017                 1.1027
 Frc consts  --      6.2854                 6.3105                 6.3334
 IR Inten    --      4.9029                11.8852                18.6446

                     49                     50                     51
                      A                      A                      A
 Frequencies --   3126.8092              3140.8902              3220.0788
 Red. masses --      1.0537                 1.0900                 1.1172
 Frc consts  --      6.0696                 6.3354                 6.8252
 IR Inten    --      6.0827                15.3815                 3.3191

 - Thermochemistry -
 -------------------
 Temperature   298.150 Kelvin.  Pressure   1.00000 Atm.
 Atom     1 has atomic number  6 and mass  12.00000

 Molecular mass:   126.06808 amu.
 Principal axes and moments of inertia in atomic units:
                           1         2         3
     Eigenvalues --   708.394281364.018811690.34178
           X            0.99950  -0.03133   0.00345
           Y            0.03103   0.99728   0.06690
           Z           -0.00554  -0.06676   0.99775
 This molecule is an asymmetric top.
 Rotational symmetry number  1.
 Warning -- assumption of classical behavior for rotation
           may cause significant error
 Rotational temperatures (Kelvin)      0.12227     0.06350     0.05124
 Rotational constants (GHZ):           2.54765     1.32311     1.06768
 Zero-point vibrational energy     410897.4 (Joules/Mol)
                                   98.20684 (Kcal/Mol)
 Warning -- explicit consideration of  12 degrees of freedom as
           vibrations may cause significant error
 Vibrational temperatures:     96.75   162.59   225.56   261.08   280.13
          (Kelvin)            293.37   365.57   507.16   532.02   689.06
                              767.09   823.49  1005.76  1050.07  1162.74
                             1205.45  1253.64  1265.59  1328.96  1393.40
                             1432.81  1521.46  1532.04  1542.81  1591.19
                             1618.67  1631.33  1703.12  1752.86  1827.71
                             1864.63  1947.18  2013.70  2020.67  2046.56
                             2113.25  2131.75  2143.92  2148.90  2160.37
                             2744.45  4356.57  4371.08  4376.94  4460.99
                             4485.61  4486.01  4492.26  4498.78  4519.03
                             4632.97

 Zero-point correction=                           0.156503 (Hartree/Particle)
 Thermal correction to Energy=                    0.165861
 Thermal correction to Enthalpy=                  0.166805
 Thermal correction to Gibbs Free Energy=         0.122184
 Sum of electronic and zero-point Energies=           -423.020850
 Sum of electronic and thermal Energies=              -423.011491
 Sum of electronic and thermal Enthalpies=            -423.010547
 Sum of electronic and thermal Free Energies=         -423.055168

                     E (Thermal)             CV                S
                      KCal/Mol        Cal/Mol-Kelvin    Cal/Mol-Kelvin
 Total                  104.079             34.187             93.914
 Electronic               0.000              0.000              0.000
 Translational            0.889              2.981             40.409
 Rotational               0.889              2.981             28.881
 Vibrational            102.302             28.225             24.624
 Vibration     1          0.598              1.970              4.232
 Vibration     2          0.607              1.939              3.217
 Vibration     3          0.620              1.895              2.588
 Vibration     4          0.630              1.865              2.313
 Vibration     5          0.635              1.847              2.183
 Vibration     6          0.640              1.834              2.098
 Vibration     7          0.665              1.756              1.702
 Vibration     8          0.729              1.570              1.155
 Vibration     9          0.742              1.534              1.081
 Vibration    10          0.835              1.297              0.713
 Vibration    11          0.888              1.177              0.580
 Vibration    12          0.929              1.091              0.500

 Optimization completed.
    -- Stationary point found.
 Normal termination of Gaussian 09 at Tue Jan 28 02:38:56 2020.
