 Gaussian 09, Revision D.01,
 Gaussian 09:  ES64L-G09RevD.01 24-Apr-2013

 -----------------------------
 # b3lyp 6-31G(2df,p) opt Freq
 -----------------------------

 -----
 titel
 -----
 Symbolic Z-matrix:
 Charge =  0 Multiplicity = 1

 SCF Done:  E(RB3LYP) =  -423.165821328     A.U. after   12 cycles
 Optimization completed.
    -- Stationary point found.
 Normal termination of Gaussian 09 at Tue Jan 28 03:04:00 2020.

 ----------------------------------------------------------------------
 #N Geom=AllCheck Guess=TCheck SCRF=Check GenChk RB3LYP/6-31G(2df,p) Fr
 eq
 ----------------------------------------------------------------------

 Structure from the checkpoint file:  "/scratch/puck/g09_14a716e6-e952-4bc9-a868-3926ed44d54b/Gau-44482.chk"
 -----
 titel
 -----
 Charge =  0 Multiplicity = 1

                         Standard orientation:
 ---------------------------------------------------------------------
 Center     Atomic      Atomic             Coordinates (Angstroms)
 Number     Number       Type             X           Y           Z
 ---------------------------------------------------------------------
      1          8           0       -2.077689   -0.730008   -0.317986
      2          6           0       -0.993526   -0.476233    0.557915
      3          6           0        0.004423   -1.648914    0.467406
      4          6           0        1.105841   -1.141101   -0.463935
      5          6           0        1.875564    0.113019   -0.081057
      6          6           0        1.090562    0.942327    0.940229
      7          6           0       -0.182388    0.726988    0.064077
      8          8           0       -1.050171    1.806663   -0.159041
      9          6           0        0.730101    0.175811   -1.079238
     10          1           0       -2.466979    0.130813   -0.516153
     11          1           0       -1.353078   -0.308338    1.585034
     12          1           0        0.387206   -1.941058    1.450510
     13          1           0       -0.511245   -2.512149    0.039440
     14          1           0        1.658520   -1.853012   -1.067151
     15          1           0        2.940139    0.191075   -0.267207
     16          1           0        1.055684    0.609522    1.984530
     17          1           0        1.393475    1.993912    0.914230
     18          1           0       -0.566680    2.508615   -0.605404
     19          1           0        0.702381    0.415993   -2.134002
 ---------------------------------------------------------------------

 SCF Done:  E(RB3LYP) =  -423.165821328     A.U. after    1 cycles

 The electronic state is 1-A.
 Alpha  occ. eigenvalues --  -19.15254 -19.12205 -10.23738 -10.22094 -10.19235
 Alpha  occ. eigenvalues --  -10.19000 -10.18400 -10.18387 -10.17548  -1.04068
 Alpha  occ. eigenvalues --   -1.00226  -0.90513  -0.74652  -0.72862  -0.65790
 Alpha  occ. eigenvalues --   -0.58838  -0.57680  -0.53450  -0.52888  -0.49514
 Alpha  occ. eigenvalues --   -0.46858  -0.45186  -0.41279  -0.40907  -0.39458
 Alpha  occ. eigenvalues --   -0.38151  -0.37172  -0.35889  -0.32763  -0.30144
 Alpha  occ. eigenvalues --   -0.28729  -0.26929  -0.26070  -0.24815
 Alpha virt. eigenvalues --    0.06458   0.09499   0.11033   0.11266   0.13448
 Alpha virt. eigenvalues --    0.14871   0.15255   0.16075   0.16482   0.17360
 Alpha virt. eigenvalues --    0.18462   0.18630   0.19680   0.21930   0.22661

 Mulliken charges:
               1
     1  O   -0.453680
     2  C    0.132354
     3  C   -0.260923
     4  C   -0.029356
     5  C   -0.069325
     6  C   -0.301275
     7  C    0.367701
     8  O   -0.511745
     9  C   -0.161514
    10  H    0.286458
    11  H    0.062826
    12  H    0.096719
    13  H    0.118614
    14  H    0.084986
    15  H    0.083111
    16  H    0.093443
    17  H    0.093256
    18  H    0.284555
    19  H    0.083795
 Sum of Mulliken charges =   0.00000

 Dipole moment (field-independent basis, Debye):
    X=              1.7837    Y=              1.4937    Z=             -0.3635  Tot=              2.3547
 Quadrupole moment (field-independent basis, Debye-Ang):
   XX=            -55.3368   YY=            -50.1684   ZZ=            -51.7848
   XY=             -1.6436   XZ=             -0.7240   YZ=             -2.5909

  Exact polarizability:  75.741  -0.037  76.333   0.403  -0.444  68.001
 Approx polarizability: 108.889  -1.128 111.127   3.991  -1.368 105.019

                      1                      2                      3
                      A                      A                      A
 Frequencies --    135.8078               242.8483               255.0535
 Red. masses --      3.9372                 1.1831                 2.9274
 Frc consts  --      0.0428                 0.0411                 0.1122
 IR Inten    --      1.4229                63.5674                12.6379

                      4                      5                      6
                      A                      A                      A
 Frequencies --    341.0957               354.2139               372.8608
 Red. masses --      2.6097                 2.8978                 3.3482
 Frc consts  --      0.1789                 0.2142                 0.2743
 IR Inten    --     19.4522                10.8208                 7.9795

                      7                      8                      9
                      A                      A                      A
 Frequencies --    429.5532               459.6148               475.4166
 Red. masses --      1.2777                 3.6433                 1.9156
 Frc consts  --      0.1389                 0.4535                 0.2551
 IR Inten    --     86.4545                 1.3970                10.9974

                     10                     11                     12
                      A                      A                      A
 Frequencies --    602.7401               698.9132               729.6280
 Red. masses --      5.3851                 3.3137                 3.9697
 Frc consts  --      1.1527                 0.9537                 1.2451
 IR Inten    --      8.0719                 1.1874                 8.6286

                     13                     14                     15
                      A                      A                      A
 Frequencies --    761.7197               793.2236               825.3205
 Red. masses --      2.3482                 2.2069                 2.0582
 Frc consts  --      0.8027                 0.8181                 0.8260
 IR Inten    --      0.8537                15.5198                 5.8235

                     16                     17                     18
                      A                      A                      A
 Frequencies --    884.5640               917.9169               944.1278
 Red. masses --      2.3459                 1.6654                 1.6208
 Frc consts  --      1.0815                 0.8268                 0.8512
 IR Inten    --      6.0870                 3.2125                 3.3008

                     19                     20                     21
                      A                      A                      A
 Frequencies --    960.8707               973.4289              1006.5661
 Red. masses --      1.6959                 2.1287                 3.2126
 Frc consts  --      0.9225                 1.1884                 1.9178
 IR Inten    --     19.7094                 4.7883                 3.4714

                     22                     23                     24
                      A                      A                      A
 Frequencies --   1017.9251              1052.3557              1062.2987
 Red. masses --      2.0865                 1.4698                 2.1508
 Frc consts  --      1.2738                 0.9590                 1.4300
 IR Inten    --     23.0960                 4.9989                 6.0482

                     25                     26                     27
                      A                      A                      A
 Frequencies --   1073.4037              1101.9923              1129.0716
 Red. masses --      1.8650                 1.6951                 2.0462
 Frc consts  --      1.2660                 1.2128                 1.5369
 IR Inten    --      9.4427                24.6242                50.9788

                     28                     29                     30
                      A                      A                      A
 Frequencies --   1145.7322              1198.4946              1214.6887
 Red. masses --      1.3411                 2.4059                 1.3802
 Frc consts  --      1.0372                 2.0361                 1.1999
 IR Inten    --     10.8867                65.6482                24.9083

                     31                     32                     33
                      A                      A                      A
 Frequencies --   1227.1573              1235.8978              1298.7744
 Red. masses --      1.3295                 1.6987                 1.8302
 Frc consts  --      1.1796                 1.5287                 1.8189
 IR Inten    --      0.3700                20.1772                36.1511

                     34                     35                     36
                      A                      A                      A
 Frequencies --   1313.5944              1323.5161              1347.6371
 Red. masses --      1.7397                 1.5482                 1.4683
 Frc consts  --      1.7687                 1.5979                 1.5711
 IR Inten    --      8.0033                18.8362                65.8002

                     37                     38                     39
                      A                      A                      A
 Frequencies --   1377.4060              1404.0974              1424.3436
 Red. masses --      1.8495                 2.0057                 1.6816
 Frc consts  --      2.0674                 2.3298                 2.0101
 IR Inten    --      6.9418                27.2979                23.4715

                     40                     41                     42
                      A                      A                      A
 Frequencies --   1480.6581              1495.9135              2981.3773
 Red. masses --      1.1048                 1.1091                 1.0837
 Frc consts  --      1.4271                 1.4624                 5.6754
 IR Inten    --      2.7610                 3.2503                50.9774

                     43                     44                     45
                      A                      A                      A
 Frequencies --   3027.5169              3054.8973              3083.5006
 Red. masses --      1.0596                 1.0633                 1.1046
 Frc consts  --      5.7221                 5.8464                 6.1881
 IR Inten    --     46.8988                36.6978                30.6030

                     46                     47                     48
                      A                      A                      A
 Frequencies --   3105.6734              3170.1356              3178.8316
 Red. masses --      1.1015                 1.0895                 1.0900
 Frc consts  --      6.2598                 6.4513                 6.4895
 IR Inten    --     12.3732                 8.1098                29.3412

                     49                     50                     51
                      A                      A                      A
 Frequencies --   3201.0167              3782.5192              3823.0888
 Red. masses --      1.0980                 1.0651                 1.0662
 Frc consts  --      6.6285                 8.9788                 9.1817
 IR Inten    --     13.8440                34.4333                25.9212

 - Thermochemistry -
 -------------------
 Temperature   298.150 Kelvin.  Pressure   1.00000 Atm.
 Atom     1 has atomic number  8 and mass  15.99491

 Molecular mass:   126.06808 amu.
 Principal axes and moments of inertia in atomic units:
                           1         2         3
     Eigenvalues --   733.69763 899.024461264.45993
           X            0.99996   0.00817  -0.00425
           Y           -0.00821   0.99993  -0.00900
           Z            0.00417   0.00904   0.99995
 This molecule is an asymmetric top.
 Rotational symmetry number  1.
 Warning -- assumption of classical behavior for rotation
           may cause significant error
 Rotational temperatures (Kelvin)      0.11805     0.09634     0.06850
 Rotational constants (GHZ):           2.45979     2.00744     1.42728
 Zero-point vibrational energy     421677.7 (Joules/Mol)
                                  100.78338 (Kcal/Mol)
 Warning -- explicit consideration of  10 degrees of freedom as
           vibrations may cause significant error
 Vibrational temperatures:    195.40   349.40   366.96   490.76   509.63
          (Kelvin)            536.46   618.03   661.28   684.02   867.21
                             1005.58  1049.77  1095.94  1141.27  1187.45
                             1272.69  1320.68  1358.39  1382.48  1400.55
                             1448.22  1464.57  1514.10  1528.41  1544.39
                             1585.52  1624.48  1648.45  1724.36  1747.66
                             1765.60  1778.18  1868.64  1889.97  1904.24
                             1938.95  1981.78  2020.18  2049.31  2130.33
                             2152.28  4289.53  4355.92  4395.31  4436.46
                             4468.37  4561.11  4573.62  4605.54  5442.19
                             5500.57

 Zero-point correction=                           0.160609 (Hartree/Particle)
 Thermal correction to Energy=                    0.168143
 Thermal correction to Enthalpy=                  0.169087
 Thermal correction to Gibbs Free Energy=         0.129221
 Sum of electronic and zero-point Energies=           -423.005213
 Sum of electronic and thermal Energies=              -422.997678
 Sum of electronic and thermal Enthalpies=            -422.996734
 Sum of electronic and thermal Free Energies=         -423.036601

                     E (Thermal)             CV                S
                      KCal/Mol        Cal/Mol-Kelvin    Cal/Mol-Kelvin
 Total                  105.511             31.278             83.906
 Electronic               0.000              0.000              0.000
 Translational            0.889              2.981             40.409
 Rotational               0.889              2.981             28.213
 Vibrational            103.734             25.317             15.284
 Vibration     1          0.614              1.918              2.862
 Vibration     2          0.659              1.775              1.782
 Vibration     3          0.665              1.754              1.695
 Vibration     4          0.721              1.593              1.207
 Vibration     5          0.730              1.567              1.147
 Vibration     6          0.744              1.528              1.068
 Vibration     7          0.791              1.406              0.860
 Vibration     8          0.818              1.340              0.767
 Vibration     9          0.832              1.305              0.723
 Vibration    10          0.961              1.026              0.445

 Normal termination of Gaussian 09 at Tue Jan 28 05:13:07 2020.
