 Gaussian 09, Revision D.01,
 Gaussian 09:  ES64L-G09RevD.01 24-Apr-2013

 -----------------------------
 # b3lyp 6-31G(2df,p) opt Freq
 -----------------------------

 -----
 titel
 -----
 Symbolic Z-matrix:
 Charge =  0 Multiplicity = 1

 SCF Done:  E(RB3LYP) =  -423.220018652     A.U. after   14 cycles
 Optimization completed.
    -- Stationary point found.
 Normal termination of Gaussian 09 at Mon Jan 27 22:00:09 2020.

 ----------------------------------------------------------------------
 #N Geom=AllCheck Guess=TCheck SCRF=Check GenChk RB3LYP/6-31G(2df,p) Fr
 eq
 ----------------------------------------------------------------------

 Structure from the checkpoint file:  "/scratch/puck/g09_5aacd46b-ef07-4f78-93ed-60257150ddf0/Gau-98342.chk"
 -----
 titel
 -----
 Charge =  0 Multiplicity = 1

                         Standard orientation:
 ---------------------------------------------------------------------
 Center     Atomic      Atomic             Coordinates (Angstroms)
 Number     Number       Type             X           Y           Z
 ---------------------------------------------------------------------
      1          6           0        1.163762    2.048481   -0.147015
      2          6           0        0.735896    0.613318   -0.405043
      3          6           0       -0.318040   -0.104125    0.534454
      4          6           0        0.574531   -1.379911    0.543899
      5          6           0        1.703783   -0.520924   -0.025374
      6          8           0        2.897486   -0.604968   -0.036857
      7          6           0       -1.698638   -0.255488   -0.077247
      8          6           0       -2.774236    0.688919    0.419682
      9          8           0       -1.909622   -1.075862   -0.943001
     10          1           0        1.450261    2.193336    0.899525
     11          1           0        2.031001    2.298176   -0.765498
     12          1           0        0.363688    2.756674   -0.384667
     13          1           0        0.426297    0.470703   -1.448556
     14          1           0       -0.358935    0.391605    1.507573
     15          1           0        0.758828   -1.887397    1.492639
     16          1           0        0.203048   -2.097289   -0.196133
     17          1           0       -2.431938    1.728228    0.355482
     18          1           0       -3.688481    0.559507   -0.160335
     19          1           0       -2.979026    0.491480    1.478698
 ---------------------------------------------------------------------

 SCF Done:  E(RB3LYP) =  -423.220018652     A.U. after    1 cycles

 The electronic state is 1-A.
 Alpha  occ. eigenvalues --  -19.13899 -19.13773 -10.27859 -10.27140 -10.21050
 Alpha  occ. eigenvalues --  -10.20992 -10.19853 -10.19617 -10.19236  -1.04912
 Alpha  occ. eigenvalues --   -1.04713  -0.86192  -0.76047  -0.74671  -0.66407
 Alpha  occ. eigenvalues --   -0.64020  -0.54295  -0.52229  -0.48671  -0.47140
 Alpha  occ. eigenvalues --   -0.46540  -0.44354  -0.43691  -0.42831  -0.42360
 Alpha  occ. eigenvalues --   -0.39834  -0.39412  -0.38572  -0.36789  -0.35643
 Alpha  occ. eigenvalues --   -0.34277  -0.32704  -0.25603  -0.24369
 Alpha virt. eigenvalues --   -0.02410  -0.01836   0.07475   0.10425   0.11364
 Alpha virt. eigenvalues --    0.11830   0.12684   0.14166   0.15235   0.15721
 Alpha virt. eigenvalues --    0.17322   0.17525   0.19557   0.21025   0.21408

 Mulliken charges:
               1
     1  C   -0.414858
     2  C   -0.091119
     3  C   -0.120816
     4  C   -0.356458
     5  C    0.385660
     6  O   -0.297711
     7  C    0.378469
     8  C   -0.484167
     9  O   -0.307773
    10  H    0.124305
    11  H    0.143560
    12  H    0.120541
    13  H    0.121078
    14  H    0.081963
    15  H    0.128589
    16  H    0.156833
    17  H    0.141353
    18  H    0.145471
    19  H    0.145080
 Sum of Mulliken charges =   0.00000

 Dipole moment (field-independent basis, Debye):
    X=             -2.1093    Y=              2.2228    Z=              1.7368  Tot=              3.5222
 Quadrupole moment (field-independent basis, Debye-Ang):
   XX=            -63.5732   YY=            -52.7716   ZZ=            -52.2824
   XY=             -1.3816   XZ=             -3.5829   YZ=             -2.3735

  Exact polarizability:  92.128  -1.108  76.938  -0.569   0.301  63.692
 Approx polarizability: 128.861   0.801 110.581   1.711   6.107 103.397

                      1                      2                      3
                      A                      A                      A
 Frequencies --     25.9678                70.8056               141.5587
 Red. masses --      3.9300                 4.5500                 1.9003
 Frc consts  --      0.0016                 0.0134                 0.0224
 IR Inten    --      1.9577                 3.6645                 1.9464

                      4                      5                      6
                      A                      A                      A
 Frequencies --    153.3771               182.5070               216.3478
 Red. masses --      1.3500                 1.0718                 3.8975
 Frc consts  --      0.0187                 0.0210                 0.1075
 IR Inten    --      0.2430                 0.7804                 4.0308

                      7                      8                      9
                      A                      A                      A
 Frequencies --    231.4914               315.1420               337.8735
 Red. masses --      2.9004                 4.0132                 3.0730
 Frc consts  --      0.0916                 0.2348                 0.2067
 IR Inten    --      6.8019                 2.7472                 2.8299

                     10                     11                     12
                      A                      A                      A
 Frequencies --    452.9396               533.7491               593.0511
 Red. masses --      2.5195                 2.6178                 3.4624
 Frc consts  --      0.3045                 0.4394                 0.7175
 IR Inten    --      3.0032                 0.7018                12.4242

                     13                     14                     15
                      A                      A                      A
 Frequencies --    612.7054               655.1777               746.1328
 Red. masses --      2.5656                 3.5362                 2.3890
 Frc consts  --      0.5675                 0.8943                 0.7836
 IR Inten    --      0.5621                10.3888                 0.8244

                     16                     17                     18
                      A                      A                      A
 Frequencies --    756.8255               860.3662               912.7221
 Red. masses --      3.0300                 2.3571                 1.7199
 Frc consts  --      1.0226                 1.0280                 0.8441
 IR Inten    --      3.7320                 4.4583                 3.5928

                     19                     20                     21
                      A                      A                      A
 Frequencies --    941.6261               978.9168              1008.0043
 Red. masses --      3.0823                 1.5203                 1.3134
 Frc consts  --      1.6102                 0.8583                 0.7863
 IR Inten    --      9.6240                 6.3168                 4.8609

                     22                     23                     24
                      A                      A                      A
 Frequencies --   1045.8378              1061.6197              1100.0828
 Red. masses --      3.0826                 2.1466                 2.5447
 Frc consts  --      1.9866                 1.4254                 1.8144
 IR Inten    --     35.5514                 5.0803                23.7527

                     25                     26                     27
                      A                      A                      A
 Frequencies --   1132.9905              1161.8113              1187.9812
 Red. masses --      2.2273                 1.7529                 2.0017
 Frc consts  --      1.6845                 1.3941                 1.6645
 IR Inten    --      3.6894                11.0691                80.5549

                     28                     29                     30
                      A                      A                      A
 Frequencies --   1213.5411              1229.0378              1241.7692
 Red. masses --      1.4421                 1.5348                 1.3169
 Frc consts  --      1.2513                 1.3659                 1.1964
 IR Inten    --      2.6391                35.2503                 2.6351

                     31                     32                     33
                      A                      A                      A
 Frequencies --   1329.2770              1361.0640              1384.6466
 Red. masses --      1.6928                 1.5078                 1.4480
 Frc consts  --      1.7623                 1.6457                 1.6357
 IR Inten    --      2.1920                18.8382                44.7040

                     34                     35                     36
                      A                      A                      A
 Frequencies --   1407.3182              1435.4286              1461.5354
 Red. masses --      1.2247                 1.1187                 1.0555
 Frc consts  --      1.4291                 1.3581                 1.3283
 IR Inten    --      2.2972                15.6380                 8.3789

                     37                     38                     39
                      A                      A                      A
 Frequencies --   1474.6884              1492.4927              1492.9645
 Red. masses --      1.0501                 1.0473                 1.0455
 Frc consts  --      1.3455                 1.3745                 1.3731
 IR Inten    --      7.2901                 5.0715                 5.9390

                     40                     41                     42
                      A                      A                      A
 Frequencies --   1802.8184              1891.2024              3032.7694
 Red. masses --     10.3850                12.5120                 1.0377
 Frc consts  --     19.8866                26.3664                 5.6236
 IR Inten    --    129.1617               295.8942                 2.1323

                     43                     44                     45
                      A                      A                      A
 Frequencies --   3034.4151              3036.9225              3057.6234
 Red. masses --      1.0811                 1.0350                 1.0599
 Frc consts  --      5.8651                 5.6242                 5.8383
 IR Inten    --      2.6084                18.9230                10.1286

                     46                     47                     48
                      A                      A                      A
 Frequencies --   3080.9606              3091.9596              3105.9122
 Red. masses --      1.0855                 1.0978                 1.1021
 Frc consts  --      6.0711                 6.1833                 6.2638
 IR Inten    --     16.5382                 6.5506                19.5367

                     49                     50                     51
                      A                      A                      A
 Frequencies --   3113.4023              3128.7569              3154.1984
 Red. masses --      1.1008                 1.1043                 1.1017
 Frc consts  --      6.2869                 6.3689                 6.4581
 IR Inten    --     13.7123                 8.5407                10.5201

 - Thermochemistry -
 -------------------
 Temperature   298.150 Kelvin.  Pressure   1.00000 Atm.
 Atom     1 has atomic number  6 and mass  12.00000

 Molecular mass:   126.06808 amu.
 Principal axes and moments of inertia in atomic units:
                           1         2         3
     Eigenvalues --   633.837911622.438261998.58395
           X            0.99990  -0.00358  -0.01350
           Y            0.00334   0.99983  -0.01813
           Z            0.01356   0.01808   0.99974
 This molecule is an asymmetric top.
 Rotational symmetry number  1.
 Warning -- assumption of classical behavior for rotation
           may cause significant error
 Rotational temperatures (Kelvin)      0.13665     0.05338     0.04334
 Rotational constants (GHZ):           2.84732     1.11236     0.90301
 Zero-point vibrational energy     409555.4 (Joules/Mol)
                                   97.88609 (Kcal/Mol)
 Warning -- explicit consideration of  13 degrees of freedom as
           vibrations may cause significant error
 Vibrational temperatures:     37.36   101.87   203.67   220.68   262.59
          (Kelvin)            311.28   333.06   453.42   486.12   651.68
                              767.94   853.27   881.55   942.65  1073.52
                             1088.90  1237.87  1313.20  1354.79  1408.44
                             1450.29  1504.73  1527.43  1582.77  1630.12
                             1671.59  1709.24  1746.01  1768.31  1786.63
                             1912.53  1958.27  1992.20  2024.81  2065.26
                             2102.82  2121.75  2147.36  2148.04  2593.85
                             2721.02  4363.47  4365.84  4369.45  4399.23
                             4432.81  4448.63  4468.71  4479.49  4501.58
                             4538.18

 Zero-point correction=                           0.155991 (Hartree/Particle)
 Thermal correction to Energy=                    0.165798
 Thermal correction to Enthalpy=                  0.166742
 Thermal correction to Gibbs Free Energy=         0.120062
 Sum of electronic and zero-point Energies=           -423.064027
 Sum of electronic and thermal Energies=              -423.054221
 Sum of electronic and thermal Enthalpies=            -423.053277
 Sum of electronic and thermal Free Energies=         -423.099956

                     E (Thermal)             CV                S
                      KCal/Mol        Cal/Mol-Kelvin    Cal/Mol-Kelvin
 Total                  104.040             34.775             98.246
 Electronic               0.000              0.000              0.000
 Translational            0.889              2.981             40.409
 Rotational               0.889              2.981             29.109
 Vibrational            102.262             28.814             28.728
 Vibration     1          0.593              1.985              6.116
 Vibration     2          0.598              1.968              4.131
 Vibration     3          0.615              1.912              2.783
 Vibration     4          0.619              1.899              2.630
 Vibration     5          0.630              1.864              2.303
 Vibration     6          0.645              1.816              1.989
 Vibration     7          0.653              1.793              1.867
 Vibration     8          0.703              1.645              1.335
 Vibration     9          0.718              1.600              1.222
 Vibration    10          0.811              1.354              0.787
 Vibration    11          0.889              1.175              0.579
 Vibration    12          0.951              1.047              0.462
 Vibration    13          0.972              1.005              0.428

 Optimization completed.
    -- Stationary point found.
 Normal termination of Gaussian 09 at Mon Jan 27 22:40:20 2020.
