 Gaussian 09, Revision D.01,
 Gaussian 09:  ES64L-G09RevD.01 24-Apr-2013

 -----------------------------
 # b3lyp 6-31G(2df,p) opt Freq
 -----------------------------

 -----
 titel
 -----
 Symbolic Z-matrix:
 Charge =  0 Multiplicity = 1

 SCF Done:  E(RB3LYP) =  -423.099620460     A.U. after   12 cycles
 Optimization completed.
    -- Stationary point found.
 Normal termination of Gaussian 09 at Tue Jan 28 02:54:30 2020.

 ----------------------------------------------------------------------
 #N Geom=AllCheck Guess=TCheck SCRF=Check GenChk RB3LYP/6-31G(2df,p) Fr
 eq
 ----------------------------------------------------------------------

 Structure from the checkpoint file:  "/scratch/puck/g09_a4cb1faa-6f58-4400-864a-baa1420bc50a/Gau-92253.chk"
 -----
 titel
 -----
 Charge =  0 Multiplicity = 1

                         Standard orientation:
 ---------------------------------------------------------------------
 Center     Atomic      Atomic             Coordinates (Angstroms)
 Number     Number       Type             X           Y           Z
 ---------------------------------------------------------------------
      1          6           0       -2.488396   -0.173138    0.296671
      2          6           0       -1.116886   -0.779919    0.115783
      3          8           0       -0.595377   -0.618485   -1.264374
      4          6           0        0.567979    0.057143   -0.754373
      5          6           0        1.855508   -0.752186   -0.433193
      6          6           0        1.426043   -0.735122    1.091267
      7          6           0        0.119380   -0.014739    0.661368
      8          8           0        0.019473    1.417135    0.804756
      9          6           0        0.480580    1.587505   -0.584686
     10          1           0       -2.862092   -0.380854    1.305155
     11          1           0       -2.455549    0.909671    0.157297
     12          1           0       -3.186333   -0.606506   -0.425882
     13          1           0       -1.116386   -1.844781    0.382800
     14          1           0        1.841545   -1.743047   -0.889998
     15          1           0        2.805557   -0.266102   -0.666671
     16          1           0        1.308368   -1.711541    1.567088
     17          1           0        2.054010   -0.104520    1.722742
     18          1           0       -0.272549    2.079351   -1.207971
     19          1           0        1.425413    2.141873   -0.624634
 ---------------------------------------------------------------------

 SCF Done:  E(RB3LYP) =  -423.099620460     A.U. after    1 cycles

 The electronic state is 1-A.
 Alpha  occ. eigenvalues --  -19.14169 -19.13700 -10.24203 -10.23815 -10.22637
 Alpha  occ. eigenvalues --  -10.22535 -10.19638 -10.19615 -10.17643  -1.06533
 Alpha  occ. eigenvalues --   -1.00753  -0.82185  -0.75996  -0.70272  -0.66657
 Alpha  occ. eigenvalues --   -0.62860  -0.59987  -0.51321  -0.50253  -0.48125
 Alpha  occ. eigenvalues --   -0.47297  -0.43401  -0.42782  -0.41703  -0.40356
 Alpha  occ. eigenvalues --   -0.38564  -0.37744  -0.37338  -0.34833  -0.33921
 Alpha  occ. eigenvalues --   -0.31537  -0.25369  -0.25097  -0.23974
 Alpha virt. eigenvalues --    0.03861   0.08483   0.09465   0.09866   0.12242
 Alpha virt. eigenvalues --    0.12402   0.13581   0.14694   0.15634   0.17135
 Alpha virt. eigenvalues --    0.17586   0.18500   0.18880   0.20219   0.21185

 Mulliken charges:
               1
     1  C   -0.400426
     2  C    0.068662
     3  O   -0.354663
     4  C    0.322440
     5  C   -0.301795
     6  C   -0.306228
     7  C    0.313371
     8  O   -0.338790
     9  C   -0.152329
    10  H    0.120889
    11  H    0.134928
    12  H    0.126441
    13  H    0.078837
    14  H    0.123077
    15  H    0.108974
    16  H    0.108780
    17  H    0.122443
    18  H    0.117604
    19  H    0.107783
 Sum of Mulliken charges =   0.00000

 Dipole moment (field-independent basis, Debye):
    X=              0.8852    Y=             -0.6481    Z=              0.3651  Tot=              1.1562
 Quadrupole moment (field-independent basis, Debye-Ang):
   XX=            -49.6814   YY=            -52.8388   ZZ=            -56.2860
   XY=              0.8356   XZ=             -1.4967   YZ=             -4.6735

  Exact polarizability:  83.504   0.965  73.329  -0.921  -4.730  64.943
 Approx polarizability: 108.570   2.670 107.419  -1.456  -3.315 104.115

                      1                      2                      3
                      A                      A                      A
 Frequencies --    117.3023               206.6906               216.0853
 Red. masses --      2.7788                 1.1479                 1.9896
 Frc consts  --      0.0225                 0.0289                 0.0547
 IR Inten    --      1.8994                 0.8248                 1.6020

                      4                      5                      6
                      A                      A                      A
 Frequencies --    239.4975               298.7779               335.4664
 Red. masses --      2.3896                 2.1134                 3.4009
 Frc consts  --      0.0808                 0.1112                 0.2255
 IR Inten    --      2.5840                 0.5861                 4.1993

                      7                      8                      9
                      A                      A                      A
 Frequencies --    398.2268               470.5528               558.0298
 Red. masses --      4.3339                 3.4422                 4.0079
 Frc consts  --      0.4049                 0.4491                 0.7353
 IR Inten    --      9.9022                 1.6436                 8.5607

                     10                     11                     12
                      A                      A                      A
 Frequencies --    679.0971               700.1818               717.3988
 Red. masses --      2.8355                 1.7092                 3.2847
 Frc consts  --      0.7705                 0.4937                 0.9960
 IR Inten    --      0.2209                 0.7095                 5.4176

                     13                     14                     15
                      A                      A                      A
 Frequencies --    744.4016               831.0110               847.1242
 Red. masses --      2.4561                 3.3427                 2.4255
 Frc consts  --      0.8019                 1.3601                 1.0255
 IR Inten    --      3.1032                25.0875                 4.6506

                     16                     17                     18
                      A                      A                      A
 Frequencies --    874.4828               887.7121               904.6196
 Red. masses --      3.1238                 3.4845                 2.2407
 Frc consts  --      1.4075                 1.6178                 1.0804
 IR Inten    --     13.2521                14.7112                16.4583

                     19                     20                     21
                      A                      A                      A
 Frequencies --    937.3490               993.2483              1021.5078
 Red. masses --      5.8474                 1.6203                 1.5842
 Frc consts  --      3.0270                 0.9418                 0.9739
 IR Inten    --     42.6179                36.6231                13.9369

                     22                     23                     24
                      A                      A                      A
 Frequencies --   1055.4381              1101.3211              1136.6358
 Red. masses --      2.1681                 2.7130                 1.3295
 Frc consts  --      1.4230                 1.9388                 1.0120
 IR Inten    --     41.2031                11.5868                 2.6296

                     25                     26                     27
                      A                      A                      A
 Frequencies --   1163.1410              1171.8247              1198.1419
 Red. masses --      2.0354                 2.4086                 1.8119
 Frc consts  --      1.6225                 1.9487                 1.5325
 IR Inten    --      1.4649                 0.8853                 4.0186

                     28                     29                     30
                      A                      A                      A
 Frequencies --   1220.5037              1235.3522              1254.8863
 Red. masses --      2.3320                 1.2606                 2.6052
 Frc consts  --      2.0467                 1.1334                 2.4171
 IR Inten    --     15.1835                 7.0584                35.7760

                     31                     32                     33
                      A                      A                      A
 Frequencies --   1261.3353              1266.7325              1306.7190
 Red. masses --      2.2080                 1.7966                 1.5628
 Frc consts  --      2.0697                 1.6985                 1.5722
 IR Inten    --      6.9410                 5.4554                 2.2347

                     34                     35                     36
                      A                      A                      A
 Frequencies --   1341.0474              1371.6820              1404.7656
 Red. masses --      1.7145                 1.4768                 1.3339
 Frc consts  --      1.8166                 1.6371                 1.5509
 IR Inten    --      1.2908                 7.2782                11.6680

                     37                     38                     39
                      A                      A                      A
 Frequencies --   1458.6409              1471.0962              1481.1864
 Red. masses --      1.0840                 1.1160                 1.0479
 Frc consts  --      1.3589                 1.4229                 1.3545
 IR Inten    --      1.3068                 3.3633                 4.0921

                     40                     41                     42
                      A                      A                      A
 Frequencies --   1489.1351              1500.1207              3017.4867
 Red. masses --      1.0585                 1.1001                 1.0846
 Frc consts  --      1.3830                 1.4586                 5.8186
 IR Inten    --      2.5970                 1.0032                46.1138

                     43                     44                     45
                      A                      A                      A
 Frequencies --   3027.5814              3041.4924              3067.8100
 Red. masses --      1.0564                 1.0366                 1.0584
 Frc consts  --      5.7052                 5.6498                 5.8687
 IR Inten    --     57.6304                16.9862                31.0292

                     46                     47                     48
                      A                      A                      A
 Frequencies --   3072.2737              3090.9133              3110.1264
 Red. masses --      1.0611                 1.1108                 1.1003
 Frc consts  --      5.9008                 6.2523                 6.2709
 IR Inten    --     32.4861                25.4715                15.6096

                     49                     50                     51
                      A                      A                      A
 Frequencies --   3124.4579              3133.5119              3140.8975
 Red. masses --      1.1081                 1.1015                 1.1074
 Frc consts  --      6.3735                 6.3726                 6.4369
 IR Inten    --      0.2811                13.5300                24.7216

 - Thermochemistry -
 -------------------
 Temperature   298.150 Kelvin.  Pressure   1.00000 Atm.
 Atom     1 has atomic number  6 and mass  12.00000

 Molecular mass:   126.06808 amu.
 Principal axes and moments of inertia in atomic units:
                           1         2         3
     Eigenvalues --   677.673181043.352861154.05836
           X            0.99985  -0.01322  -0.01074
           Y            0.01096   0.98206  -0.18824
           Z            0.01303   0.18810   0.98206
 This molecule is an asymmetric top.
 Rotational symmetry number  1.
 Warning -- assumption of classical behavior for rotation
           may cause significant error
 Rotational temperatures (Kelvin)      0.12781     0.08301     0.07505
 Rotational constants (GHZ):           2.66314     1.72975     1.56382
 Zero-point vibrational energy     416868.8 (Joules/Mol)
                                   99.63403 (Kcal/Mol)
 Warning -- explicit consideration of   9 degrees of freedom as
           vibrations may cause significant error
 Vibrational temperatures:    168.77   297.38   310.90   344.58   429.87
          (Kelvin)            482.66   572.96   677.02   802.88   977.07
                             1007.40  1032.18  1071.03  1195.64  1218.82
                             1258.18  1277.22  1301.54  1348.63  1429.06
                             1469.72  1518.54  1584.55  1635.36  1673.50
                             1685.99  1723.86  1756.03  1777.39  1805.50
                             1814.78  1822.54  1880.07  1929.47  1973.54
                             2021.14  2098.66  2116.58  2131.09  2142.53
                             2158.34  4341.48  4356.01  4376.02  4413.89
                             4420.31  4447.13  4474.77  4495.39  4508.42
                             4519.05

 Zero-point correction=                           0.158777 (Hartree/Particle)
 Thermal correction to Energy=                    0.166563
 Thermal correction to Enthalpy=                  0.167508
 Thermal correction to Gibbs Free Energy=         0.126916
 Sum of electronic and zero-point Energies=           -422.940844
 Sum of electronic and thermal Energies=              -422.933057
 Sum of electronic and thermal Enthalpies=            -422.932113
 Sum of electronic and thermal Free Energies=         -422.972704

                     E (Thermal)             CV                S
                      KCal/Mol        Cal/Mol-Kelvin    Cal/Mol-Kelvin
 Total                  104.520             30.958             85.432
 Electronic               0.000              0.000              0.000
 Translational            0.889              2.981             40.409
 Rotational               0.889              2.981             28.192
 Vibrational            102.743             24.997             16.832
 Vibration     1          0.608              1.935              3.144
 Vibration     2          0.641              1.830              2.073
 Vibration     3          0.645              1.817              1.992
 Vibration     4          0.657              1.780              1.807
 Vibration     5          0.692              1.676              1.424
 Vibration     6          0.717              1.605              1.234
 Vibration     7          0.765              1.474              0.969
 Vibration     8          0.828              1.315              0.736
 Vibration     9          0.914              1.122              0.528

 Optimization completed.
    -- Stationary point found.
 Normal termination of Gaussian 09 at Tue Jan 28 03:43:57 2020.
