 Gaussian 09, Revision D.01,
 Gaussian 09:  ES64L-G09RevD.01 24-Apr-2013

 -----------------------------
 # b3lyp 6-31G(2df,p) opt Freq
 -----------------------------

 -----
 titel
 -----
 Symbolic Z-matrix:
 Charge =  0 Multiplicity = 1

 SCF Done:  E(RB3LYP) =  -423.185822402     A.U. after   14 cycles
 Optimization completed.
    -- Stationary point found.
 Normal termination of Gaussian 09 at Mon Jan 27 13:47:13 2020.

 ----------------------------------------------------------------------
 #N Geom=AllCheck Guess=TCheck SCRF=Check GenChk RB3LYP/6-31G(2df,p) Fr
 eq
 ----------------------------------------------------------------------

 Structure from the checkpoint file:  "/scratch/puck/g09_f45d9060-e0ec-4514-a4ce-45fdd8ba266e/Gau-157617.chk"
 -----
 titel
 -----
 Charge =  0 Multiplicity = 1

                         Standard orientation:
 ---------------------------------------------------------------------
 Center     Atomic      Atomic             Coordinates (Angstroms)
 Number     Number       Type             X           Y           Z
 ---------------------------------------------------------------------
      1          8           0       -3.324673   -1.302674   -0.396461
      2          6           0       -2.814066   -0.508845    0.350158
      3          6           0       -2.114334    0.762865   -0.082965
      4          6           0       -0.691452    0.822903    0.446836
      5          6           0        0.359655    1.630355   -0.274559
      6          6           0        0.423890    0.120763   -0.288722
      7          6           0        1.517281   -0.606618    0.474215
      8          6           0        2.803261   -0.676774   -0.324651
      9          8           0        3.879760   -0.313550    0.071760
     10          1           0       -2.817976   -0.676313    1.453434
     11          1           0       -2.138166    0.815985   -1.175451
     12          1           0       -2.687969    1.614967    0.310537
     13          1           0       -0.616801    0.814612    1.531908
     14          1           0        0.073328    2.140549   -1.187959
     15          1           0        1.090146    2.164281    0.324231
     16          1           0        0.137462   -0.354100   -1.224316
     17          1           0        1.733365   -0.119788    1.429973
     18          1           0        1.197709   -1.638420    0.683273
     19          1           0        2.682796   -1.099885   -1.349893
 ---------------------------------------------------------------------

 SCF Done:  E(RB3LYP) =  -423.185822402     A.U. after    1 cycles

 The electronic state is 1-A.
 Alpha  occ. eigenvalues --  -19.14556 -19.14309 -10.27775 -10.27539 -10.21511
 Alpha  occ. eigenvalues --  -10.21341 -10.20595 -10.20448 -10.20119  -1.05236
 Alpha  occ. eigenvalues --   -1.04996  -0.88650  -0.77801  -0.74525  -0.61139
 Alpha  occ. eigenvalues --   -0.59972  -0.58571  -0.57635  -0.50069  -0.49471
 Alpha  occ. eigenvalues --   -0.47409  -0.46339  -0.44047  -0.43498  -0.43011
 Alpha  occ. eigenvalues --   -0.40930  -0.38269  -0.37916  -0.36870  -0.36144
 Alpha  occ. eigenvalues --   -0.31284  -0.30471  -0.25520  -0.24974
 Alpha virt. eigenvalues --   -0.02713  -0.02409   0.07931   0.08982   0.10922
 Alpha virt. eigenvalues --    0.11351   0.12727   0.13688   0.13832   0.14557
 Alpha virt. eigenvalues --    0.15097   0.16087   0.17631   0.22469   0.22902

 Mulliken charges:
               1
     1  O   -0.235582
     2  C    0.166649
     3  C   -0.301749
     4  C   -0.029308
     5  C   -0.297231
     6  C   -0.001485
     7  C   -0.308825
     8  C    0.169490
     9  O   -0.235674
    10  H    0.071875
    11  H    0.120320
    12  H    0.123279
    13  H    0.093594
    14  H    0.119325
    15  H    0.126458
    16  H    0.100331
    17  H    0.119853
    18  H    0.125243
    19  H    0.073434
 Sum of Mulliken charges =   0.00000

 Dipole moment (field-independent basis, Debye):
    X=             -1.1698    Y=              1.4311    Z=              0.7120  Tot=              1.9808
 Quadrupole moment (field-independent basis, Debye-Ang):
   XX=            -74.5854   YY=            -53.6586   ZZ=            -51.1063
   XY=             -7.3776   XZ=             -4.7786   YZ=             -0.9526

  Exact polarizability:  92.259   3.431  71.488   0.545   1.944  69.388
 Approx polarizability: 119.907  10.654 108.131   6.009   8.603 109.013

                      1                      2                      3
                      A                      A                      A
 Frequencies --     33.0393                49.9272                62.1031
 Red. masses --      7.8465                 5.8061                 3.4232
 Frc consts  --      0.0050                 0.0085                 0.0078
 IR Inten    --      5.9936                 3.7500                 6.1116

                      4                      5                      6
                      A                      A                      A
 Frequencies --     86.3338               131.3460               187.6055
 Red. masses --      2.5041                 2.9095                 2.5020
 Frc consts  --      0.0110                 0.0296                 0.0519
 IR Inten    --      1.1515                 3.4125                 1.1994

                      7                      8                      9
                      A                      A                      A
 Frequencies --    321.4659               352.8891               357.1820
 Red. masses --      2.3310                 3.1473                 2.6917
 Frc consts  --      0.1419                 0.2309                 0.2023
 IR Inten    --      1.1507                 0.3981                 3.9481

                     10                     11                     12
                      A                      A                      A
 Frequencies --    429.8587               507.3258               521.6754
 Red. masses --      2.4274                 2.6902                 2.8856
 Frc consts  --      0.2643                 0.4080                 0.4627
 IR Inten    --      2.5815                17.1536                 8.4451

                     13                     14                     15
                      A                      A                      A
 Frequencies --    752.0769               760.5136               854.2343
 Red. masses --      1.8658                 1.6765                 1.6308
 Frc consts  --      0.6218                 0.5713                 0.7011
 IR Inten    --      1.3334                 0.0529                 8.6530

                     16                     17                     18
                      A                      A                      A
 Frequencies --    867.7330               896.2760               899.9212
 Red. masses --      1.4829                 1.7105                 2.2483
 Frc consts  --      0.6579                 0.8096                 1.0728
 IR Inten    --      0.7385                 2.6584                12.3489

                     19                     20                     21
                      A                      A                      A
 Frequencies --    995.3261              1006.8220              1050.0072
 Red. masses --      2.4237                 1.8038                 1.6801
 Frc consts  --      1.4147                 1.0773                 1.0914
 IR Inten    --      7.8627                24.8243                 7.1813

                     22                     23                     24
                      A                      A                      A
 Frequencies --   1072.6163              1085.9352              1093.7265
 Red. masses --      1.9757                 2.1634                 1.9027
 Frc consts  --      1.3393                 1.5031                 1.3410
 IR Inten    --     18.6110                 2.2150                 0.7877

                     25                     26                     27
                      A                      A                      A
 Frequencies --   1123.4425              1162.9475              1174.2856
 Red. masses --      1.1422                 2.2384                 1.7787
 Frc consts  --      0.8493                 1.7836                 1.4451
 IR Inten    --      2.2271                 5.1186                11.3425

                     28                     29                     30
                      A                      A                      A
 Frequencies --   1213.8518              1220.2152              1256.5903
 Red. masses --      1.4649                 1.3307                 1.4838
 Frc consts  --      1.2717                 1.1674                 1.3805
 IR Inten    --      1.2327                15.4964                 3.6501

                     31                     32                     33
                      A                      A                      A
 Frequencies --   1286.9922              1293.1626              1367.8321
 Red. masses --      1.3727                 1.4221                 1.3683
 Frc consts  --      1.3396                 1.4012                 1.5084
 IR Inten    --      4.5442                 1.5530                 2.9430

                     34                     35                     36
                      A                      A                      A
 Frequencies --   1429.0156              1429.5969              1437.1809
 Red. masses --      1.2061                 1.1924                 1.4690
 Frc consts  --      1.4511                 1.4358                 1.7877
 IR Inten    --      5.7486                 4.4203                 0.1008

                     37                     38                     39
                      A                      A                      A
 Frequencies --   1459.3191              1460.9054              1497.7428
 Red. masses --      1.1213                 1.0997                 1.5071
 Frc consts  --      1.4070                 1.3829                 1.9919
 IR Inten    --      1.5542                 9.4824                 3.1639

                     40                     41                     42
                      A                      A                      A
 Frequencies --   1836.8244              1838.2095              2851.8347
 Red. masses --     10.1479                10.1493                 1.0819
 Frc consts  --     20.1726                20.2059                 5.1842
 IR Inten    --    295.3681                49.9279               102.7358

                     43                     44                     45
                      A                      A                      A
 Frequencies --   2855.8065              3007.3875              3009.3404
 Red. masses --      1.0820                 1.0653                 1.0653
 Frc consts  --      5.1994                 5.6767                 5.6841
 IR Inten    --    117.0701                16.2986                15.5903

                     46                     47                     48
                      A                      A                      A
 Frequencies --   3091.3476              3092.8363              3130.1992
 Red. masses --      1.0950                 1.0954                 1.0702
 Frc consts  --      6.1656                 6.1738                 6.1782
 IR Inten    --     12.0388                 1.8651                 9.8457

                     49                     50                     51
                      A                      A                      A
 Frequencies --   3133.6797              3138.3569              3217.7332
 Red. masses --      1.0729                 1.0866                 1.1165
 Frc consts  --      6.2077                 6.3055                 6.8112
 IR Inten    --      2.6652                22.5115                 7.1480

 - Thermochemistry -
 -------------------
 Temperature   298.150 Kelvin.  Pressure   1.00000 Atm.
 Atom     1 has atomic number  8 and mass  15.99491

 Molecular mass:   126.06808 amu.
 Principal axes and moments of inertia in atomic units:
                           1         2         3
     Eigenvalues --   472.600082702.157732990.77513
           X            0.99992  -0.01179  -0.00488
           Y            0.01170   0.99980  -0.01650
           Z            0.00507   0.01644   0.99985
 This molecule is an asymmetric top.
 Rotational symmetry number  1.
 Warning -- assumption of classical behavior for rotation
           may cause significant error
 Rotational temperatures (Kelvin)      0.18327     0.03205     0.02896
 Rotational constants (GHZ):           3.81875     0.66789     0.60344
 Zero-point vibrational energy     409078.4 (Joules/Mol)
                                   97.77210 (Kcal/Mol)
 Warning -- explicit consideration of  12 degrees of freedom as
           vibrations may cause significant error
 Vibrational temperatures:     47.54    71.83    89.35   124.21   188.98
          (Kelvin)            269.92   462.52   507.73   513.90   618.47
                              729.93   750.57  1082.07  1094.21  1229.05
                             1248.47  1289.54  1294.78  1432.05  1448.59
                             1510.72  1543.25  1562.42  1573.63  1616.38
                             1673.22  1689.53  1746.46  1755.62  1807.95
                             1851.69  1860.57  1968.00  2056.03  2056.87
                             2067.78  2099.63  2101.91  2154.92  2642.78
                             2644.77  4103.15  4108.86  4326.95  4329.76
                             4447.75  4449.90  4503.65  4508.66  4515.39
                             4629.59

 Zero-point correction=                           0.155810 (Hartree/Particle)
 Thermal correction to Energy=                    0.165767
 Thermal correction to Enthalpy=                  0.166711
 Thermal correction to Gibbs Free Energy=         0.118443
 Sum of electronic and zero-point Energies=           -423.030013
 Sum of electronic and thermal Energies=              -423.020055
 Sum of electronic and thermal Enthalpies=            -423.019111
 Sum of electronic and thermal Free Energies=         -423.067379

                     E (Thermal)             CV                S
                      KCal/Mol        Cal/Mol-Kelvin    Cal/Mol-Kelvin
 Total                  104.020             34.036            101.588
 Electronic               0.000              0.000              0.000
 Translational            0.889              2.981             40.409
 Rotational               0.889              2.981             29.725
 Vibrational            102.243             28.075             31.455
 Vibration     1          0.594              1.983              5.638
 Vibration     2          0.595              1.978              4.820
 Vibration     3          0.597              1.972              4.389
 Vibration     4          0.601              1.959              3.741
 Vibration     5          0.612              1.922              2.926
 Vibration     6          0.632              1.857              2.251
 Vibration     7          0.707              1.632              1.303
 Vibration     8          0.729              1.569              1.153
 Vibration     9          0.732              1.561              1.134
 Vibration    10          0.791              1.405              0.859
 Vibration    11          0.863              1.234              0.640
 Vibration    12          0.877              1.202              0.606

 Normal termination of Gaussian 09 at Mon Jan 27 14:21:58 2020.
