 Gaussian 09, Revision D.01,
 Gaussian 09:  ES64L-G09RevD.01 24-Apr-2013

 -----------------------------
 # b3lyp 6-31G(2df,p) opt Freq
 -----------------------------

 -----
 titel
 -----
 Symbolic Z-matrix:
 Charge =  0 Multiplicity = 1

 SCF Done:  E(RB3LYP) =  -423.182625874     A.U. after   14 cycles
 Optimization completed.
    -- Stationary point found.
 Normal termination of Gaussian 09 at Tue Jan 28 03:03:02 2020.

 ----------------------------------------------------------------------
 #N Geom=AllCheck Guess=TCheck SCRF=Check GenChk RB3LYP/6-31G(2df,p) Fr
 eq
 ----------------------------------------------------------------------

 Structure from the checkpoint file:  "/scratch/puck/g09_9970a3e9-6e35-479c-bdc4-ec944d0107b5/Gau-65435.chk"
 -----
 titel
 -----
 Charge =  0 Multiplicity = 1

                         Standard orientation:
 ---------------------------------------------------------------------
 Center     Atomic      Atomic             Coordinates (Angstroms)
 Number     Number       Type             X           Y           Z
 ---------------------------------------------------------------------
      1          8           0       -2.517456   -0.993078    0.306660
      2          6           0       -1.530805   -0.355693   -0.478130
      3          6           0       -0.111205   -1.019927   -0.444792
      4          6           0        0.719387    0.190870    0.012623
      5          6           0        0.121639    1.341949   -0.869811
      6          6           0       -1.148511    1.068182   -0.016988
      7          6           0       -0.166541    0.790461    1.157263
      8          6           0        2.194058    0.044974    0.189180
      9          8           0        2.810922   -0.978185    0.021702
     10          1           0       -2.185456   -1.076775    1.206643
     11          1           0       -1.949547   -0.339661   -1.488187
     12          1           0       -0.077726   -1.847284    0.269632
     13          1           0        0.212648   -1.405671   -1.413970
     14          1           0        0.572592    2.315032   -0.661543
     15          1           0        0.074163    1.167862   -1.948603
     16          1           0       -1.962022    1.788406    0.065600
     17          1           0        0.252076    1.705769    1.581585
     18          1           0       -0.466874    0.115631    1.965767
     19          1           0        2.714291    0.981898    0.500106
 ---------------------------------------------------------------------

 SCF Done:  E(RB3LYP) =  -423.182625874     A.U. after    1 cycles

 The electronic state is 1-A.
 Alpha  occ. eigenvalues --  -19.14190 -19.13928 -10.27098 -10.23702 -10.21249
 Alpha  occ. eigenvalues --  -10.20597 -10.20363 -10.20219 -10.18599  -1.04755
 Alpha  occ. eigenvalues --   -1.02354  -0.90165  -0.72917  -0.71987  -0.67949
 Alpha  occ. eigenvalues --   -0.62843  -0.57187  -0.54826  -0.51815  -0.49652
 Alpha  occ. eigenvalues --   -0.47162  -0.44520  -0.43867  -0.42318  -0.39196
 Alpha  occ. eigenvalues --   -0.38285  -0.37281  -0.37245  -0.34635  -0.33526
 Alpha  occ. eigenvalues --   -0.32175  -0.31394  -0.26517  -0.25095
 Alpha virt. eigenvalues --   -0.03037   0.06444   0.09503   0.10505   0.11402
 Alpha virt. eigenvalues --    0.12156   0.13800   0.15348   0.15985   0.16406
 Alpha virt. eigenvalues --    0.17290   0.19194   0.19512   0.20466   0.21831

 Mulliken charges:
               1
     1  O   -0.445128
     2  C    0.159840
     3  C   -0.305834
     4  C    0.258877
     5  C   -0.273778
     6  C   -0.051426
     7  C   -0.285290
     8  C    0.049257
     9  O   -0.247264
    10  H    0.277231
    11  H    0.090493
    12  H    0.108202
    13  H    0.114362
    14  H    0.106781
    15  H    0.105264
    16  H    0.072973
    17  H    0.109387
    18  H    0.089492
    19  H    0.066563
 Sum of Mulliken charges =   0.00000

 Dipole moment (field-independent basis, Debye):
    X=             -0.6612    Y=              2.3910    Z=              0.6874  Tot=              2.5742
 Quadrupole moment (field-independent basis, Debye-Ang):
   XX=            -66.2707   YY=            -54.1774   ZZ=            -49.1327
   XY=              3.2153   XZ=             -0.5948   YZ=             -0.9596

  Exact polarizability:  82.912  -1.064  75.497   0.303   0.995  67.959
 Approx polarizability: 115.148  -6.455 117.120  -0.971   1.385 105.482

                      1                      2                      3
                      A                      A                      A
 Frequencies --     72.2956               157.7575               174.1196
 Red. masses --      4.4337                 3.8053                 4.0594
 Frc consts  --      0.0137                 0.0558                 0.0725
 IR Inten    --      5.6255                 2.7973                 3.1797

                      4                      5                      6
                      A                      A                      A
 Frequencies --    258.6242               301.8801               365.9357
 Red. masses --      1.1278                 2.1617                 2.9994
 Frc consts  --      0.0444                 0.1161                 0.2366
 IR Inten    --     63.6923                14.2211                13.0242

                      7                      8                      9
                      A                      A                      A
 Frequencies --    432.0447               437.2202               490.9008
 Red. masses --      3.5911                 2.3936                 2.5564
 Frc consts  --      0.3949                 0.2696                 0.3630
 IR Inten    --      0.4813                 2.6527                 0.9962

                     10                     11                     12
                      A                      A                      A
 Frequencies --    515.8655               640.4043               758.4843
 Red. masses --      2.5383                 2.9566                 3.6259
 Frc consts  --      0.3980                 0.7144                 1.2290
 IR Inten    --      3.4059                15.7159                18.1014

                     13                     14                     15
                      A                      A                      A
 Frequencies --    816.8929               819.1363               834.0404
 Red. masses --      3.6894                 2.9019                 2.6850
 Frc consts  --      1.4506                 1.1472                 1.1004
 IR Inten    --      4.3100                 0.7854                 6.0261

                     16                     17                     18
                      A                      A                      A
 Frequencies --    869.4201               926.9280               957.8952
 Red. masses --      2.2116                 1.9119                 1.4906
 Frc consts  --      0.9850                 0.9678                 0.8059
 IR Inten    --      0.3425                 6.9993                 1.3880

                     19                     20                     21
                      A                      A                      A
 Frequencies --    970.7798              1009.7333              1020.5404
 Red. masses --      1.7627                 2.2832                 1.7384
 Frc consts  --      0.9787                 1.3715                 1.0667
 IR Inten    --      0.4117                 0.4040                23.2338

                     22                     23                     24
                      A                      A                      A
 Frequencies --   1045.0636              1054.3311              1089.5822
 Red. masses --      1.7075                 1.2196                 1.5856
 Frc consts  --      1.0988                 0.7988                 1.1091
 IR Inten    --      5.3161                 0.3107                28.3629

                     25                     26                     27
                      A                      A                      A
 Frequencies --   1122.7375              1136.2532              1169.5116
 Red. masses --      1.8612                 2.4782                 1.5441
 Frc consts  --      1.3823                 1.8851                 1.2443
 IR Inten    --     51.3769                41.0988                14.9295

                     28                     29                     30
                      A                      A                      A
 Frequencies --   1192.0585              1228.7517              1234.2171
 Red. masses --      1.5527                 1.4600                 1.5298
 Frc consts  --      1.3000                 1.2988                 1.3730
 IR Inten    --     10.3523                 1.7911                 2.5301

                     31                     32                     33
                      A                      A                      A
 Frequencies --   1244.0369              1284.1087              1303.0898
 Red. masses --      1.6610                 1.9710                 1.5336
 Frc consts  --      1.5145                 1.9148                 1.5343
 IR Inten    --      7.0100                10.9654                 4.4955

                     34                     35                     36
                      A                      A                      A
 Frequencies --   1317.7176              1341.9094              1426.6706
 Red. masses --      1.5109                 2.5354                 1.2412
 Frc consts  --      1.5457                 2.6899                 1.4885
 IR Inten    --      2.8203                 1.8588                 7.9833

                     37                     38                     39
                      A                      A                      A
 Frequencies --   1438.0276              1487.3452              1489.8718
 Red. masses --      1.2145                 1.0901                 1.0920
 Frc consts  --      1.4797                 1.4209                 1.4282
 IR Inten    --     64.3117                 4.8258                 3.3495

                     40                     41                     42
                      A                      A                      A
 Frequencies --   1522.9707              1817.1900              2851.4670
 Red. masses --      1.1293                10.9238                 1.0817
 Frc consts  --      1.5432                21.2532                 5.1820
 IR Inten    --      3.5960               179.6984               118.8530

                     43                     44                     45
                      A                      A                      A
 Frequencies --   3042.6443              3055.0198              3065.1406
 Red. masses --      1.0606                 1.0572                 1.0618
 Frc consts  --      5.7852                 5.8137                 5.8777
 IR Inten    --     46.4530                22.9440                16.5238

                     46                     47                     48
                      A                      A                      A
 Frequencies --   3073.2232              3110.7293              3114.5391
 Red. masses --      1.0861                 1.1047                 1.1044
 Frc consts  --      6.0438                 6.2982                 6.3118
 IR Inten    --     22.8163                 9.7438                23.3500

                     49                     50                     51
                      A                      A                      A
 Frequencies --   3118.7367              3123.8089              3810.9875
 Red. masses --      1.1068                 1.0921                 1.0656
 Frc consts  --      6.3430                 6.2790                 9.1183
 IR Inten    --     35.4204                46.9192                 9.1867

 - Thermochemistry -
 -------------------
 Temperature   298.150 Kelvin.  Pressure   1.00000 Atm.
 Atom     1 has atomic number  8 and mass  15.99491

 Molecular mass:   126.06808 amu.
 Principal axes and moments of inertia in atomic units:
                           1         2         3
     Eigenvalues --   563.406041449.445151663.32864
           X            0.99989   0.01491   0.00048
           Y           -0.01491   0.99986   0.00702
           Z           -0.00038  -0.00703   0.99998
 This molecule is an asymmetric top.
 Rotational symmetry number  1.
 Warning -- assumption of classical behavior for rotation
           may cause significant error
 Rotational temperatures (Kelvin)      0.15373     0.05976     0.05207
 Rotational constants (GHZ):           3.20327     1.24513     1.08502
 Zero-point vibrational energy     419546.2 (Joules/Mol)
                                  100.27394 (Kcal/Mol)
 Warning -- explicit consideration of  10 degrees of freedom as
           vibrations may cause significant error
 Vibrational temperatures:    104.02   226.98   250.52   372.10   434.34
          (Kelvin)            526.50   621.62   629.06   706.30   742.21
                              921.40  1091.29  1175.33  1178.55  1200.00
                             1250.90  1333.64  1378.20  1396.73  1452.78
                             1468.33  1503.61  1516.95  1567.66  1615.37
                             1634.81  1682.66  1715.10  1767.90  1775.76
                             1789.89  1847.54  1874.85  1895.90  1930.71
                             2052.66  2069.00  2139.96  2143.59  2191.21
                             2614.53  4102.62  4377.68  4395.49  4410.05
                             4421.68  4475.64  4481.12  4487.16  4494.46
                             5483.15

 Zero-point correction=                           0.159797 (Hartree/Particle)
 Thermal correction to Energy=                    0.167877
 Thermal correction to Enthalpy=                  0.168822
 Thermal correction to Gibbs Free Energy=         0.127059
 Sum of electronic and zero-point Energies=           -423.022829
 Sum of electronic and thermal Energies=              -423.014749
 Sum of electronic and thermal Enthalpies=            -423.013804
 Sum of electronic and thermal Free Energies=         -423.055567

                     E (Thermal)             CV                S
                      KCal/Mol        Cal/Mol-Kelvin    Cal/Mol-Kelvin
 Total                  105.345             31.453             87.897
 Electronic               0.000              0.000              0.000
 Translational            0.889              2.981             40.409
 Rotational               0.889              2.981             28.698
 Vibrational            103.567             25.491             18.791
 Vibration     1          0.598              1.967              4.090
 Vibration     2          0.621              1.894              2.577
 Vibration     3          0.627              1.874              2.391
 Vibration     4          0.667              1.748              1.671
 Vibration     5          0.694              1.670              1.406
 Vibration     6          0.739              1.542              1.097
 Vibration     7          0.793              1.400              0.852
 Vibration     8          0.798              1.389              0.835
 Vibration     9          0.847              1.270              0.681
 Vibration    10          0.871              1.215              0.620

 Normal termination of Gaussian 09 at Tue Jan 28 04:02:58 2020.
