 Gaussian 09, Revision D.01,
 Gaussian 09:  ES64L-G09RevD.01 24-Apr-2013

 -----------------------------
 # b3lyp 6-31G(2df,p) opt Freq
 -----------------------------

 -----
 titel
 -----
 Symbolic Z-matrix:
 Charge =  0 Multiplicity = 1

 SCF Done:  E(RB3LYP) =  -423.041664398     A.U. after   14 cycles
 Optimization completed.
    -- Stationary point found.
 Normal termination of Gaussian 09 at Mon Jan 27 16:13:37 2020.

 ----------------------------------------------------------------------
 #N Geom=AllCheck Guess=TCheck SCRF=Check GenChk RB3LYP/6-31G(2df,p) Fr
 eq
 ----------------------------------------------------------------------

 Structure from the checkpoint file:  "/scratch/puck/g09_f403f200-c871-4eca-9922-2e53bddc13ec/Gau-10780.chk"
 -----
 titel
 -----
 Charge =  0 Multiplicity = 1

                         Standard orientation:
 ---------------------------------------------------------------------
 Center     Atomic      Atomic             Coordinates (Angstroms)
 Number     Number       Type             X           Y           Z
 ---------------------------------------------------------------------
      1          6           0       -1.726792   -1.463052    0.121392
      2          6           0       -1.094190   -0.088625   -0.036832
      3          8           0       -2.043721    0.805176   -0.558674
      4          6           0       -0.240633    0.601108    1.164443
      5          6           0        0.379039    1.524952    0.100851
      6          6           0        0.419513    0.070872   -0.480174
      7          8           0        1.582978   -0.368628   -1.201945
      8          6           0        2.256104   -0.391694    0.119217
      9          6           0        0.879254   -0.451290    0.870491
     10          1           0       -2.079488   -1.818195   -0.855431
     11          1           0       -1.051725   -2.222320    0.512789
     12          1           0       -2.594608   -1.392286    0.784152
     13          1           0       -2.582338    0.337770   -1.204581
     14          1           0       -0.679439    0.892959    2.119836
     15          1           0       -0.280120    2.237173   -0.385895
     16          1           0        1.340798    1.963282    0.362654
     17          1           0        2.842636   -1.306066    0.231207
     18          1           0        2.894978    0.484855    0.246531
     19          1           0        0.641467   -1.483181    1.117358
 ---------------------------------------------------------------------

 SCF Done:  E(RB3LYP) =  -423.041664398     A.U. after    1 cycles

 The electronic state is 1-A.
 Alpha  occ. eigenvalues --  -19.14691 -19.13468 -10.26214 -10.24106 -10.24072
 Alpha  occ. eigenvalues --  -10.21484 -10.18789 -10.18258 -10.17574  -1.04266
 Alpha  occ. eigenvalues --   -1.02974  -0.89115  -0.74267  -0.70828  -0.64595
 Alpha  occ. eigenvalues --   -0.62090  -0.60117  -0.52731  -0.50514  -0.48160
 Alpha  occ. eigenvalues --   -0.46755  -0.44757  -0.43847  -0.42286  -0.39797
 Alpha  occ. eigenvalues --   -0.37626  -0.36238  -0.35336  -0.33048  -0.32446
 Alpha  occ. eigenvalues --   -0.30534  -0.28343  -0.24192  -0.23619
 Alpha virt. eigenvalues --    0.05910   0.06887   0.09002   0.11004   0.11574
 Alpha virt. eigenvalues --    0.12472   0.13701   0.14584   0.15567   0.16178
 Alpha virt. eigenvalues --    0.18441   0.18777   0.19739   0.20957   0.21760

 Mulliken charges:
               1
     1  C   -0.490048
     2  C    0.363141
     3  O   -0.464897
     4  C   -0.131298
     5  C   -0.282864
     6  C    0.337514
     7  O   -0.356676
     8  C   -0.162854
     9  C   -0.091103
    10  H    0.119271
    11  H    0.134354
    12  H    0.133152
    13  H    0.283604
    14  H    0.081451
    15  H    0.121294
    16  H    0.093874
    17  H    0.116382
    18  H    0.118886
    19  H    0.076818
 Sum of Mulliken charges =   0.00000

 Dipole moment (field-independent basis, Debye):
    X=             -1.0516    Y=             -1.0880    Z=              0.9534  Tot=              1.7884
 Quadrupole moment (field-independent basis, Debye-Ang):
   XX=            -49.5741   YY=            -53.3273   ZZ=            -54.9596
   XY=              2.9493   XZ=              5.1712   YZ=             -0.4389

  Exact polarizability:  90.853   0.040  73.891   1.398  -0.170  63.324
 Approx polarizability: 126.739  -4.870 109.321  -0.241   0.796 106.820

                      1                      2                      3
                      A                      A                      A
 Frequencies --    170.0672               198.5446               235.3663
 Red. masses --      1.3406                 2.4318                 3.2679
 Frc consts  --      0.0228                 0.0565                 0.1067
 IR Inten    --      0.7414                 5.8993                 8.5013

                      4                      5                      6
                      A                      A                      A
 Frequencies --    244.3680               287.1621               390.3403
 Red. masses --      1.0962                 2.8934                 2.9076
 Frc consts  --      0.0386                 0.1406                 0.2610
 IR Inten    --     90.8475                 2.4969                 3.8936

                      7                      8                      9
                      A                      A                      A
 Frequencies --    436.5833               454.9212               509.3297
 Red. masses --      3.6917                 3.3985                 2.5532
 Frc consts  --      0.4146                 0.4144                 0.3902
 IR Inten    --      6.8186                 1.5268                 2.4542

                     10                     11                     12
                      A                      A                      A
 Frequencies --    540.6903               584.7439               637.6603
 Red. masses --      3.5615                 3.4016                 3.3639
 Frc consts  --      0.6134                 0.6853                 0.8059
 IR Inten    --      0.5831                14.9981                 3.6279

                     13                     14                     15
                      A                      A                      A
 Frequencies --    718.0580               768.4831               788.2474
 Red. masses --      2.5174                 3.3490                 4.5907
 Frc consts  --      0.7648                 1.1653                 1.6805
 IR Inten    --      4.8950                 2.6313                25.0387

                     16                     17                     18
                      A                      A                      A
 Frequencies --    857.0064               865.6145               948.1861
 Red. masses --      3.6750                 8.3146                 1.7216
 Frc consts  --      1.5903                 3.6706                 0.9119
 IR Inten    --      6.8304                66.3241                 3.0257

                     19                     20                     21
                      A                      A                      A
 Frequencies --    958.1470               964.3969              1000.8666
 Red. masses --      2.1657                 1.9809                 2.1638
 Frc consts  --      1.1714                 1.0855                 1.2771
 IR Inten    --     33.9323                11.7535                 7.2575

                     22                     23                     24
                      A                      A                      A
 Frequencies --   1013.0410              1053.4967              1063.3943
 Red. masses --      1.3366                 1.7780                 1.6729
 Frc consts  --      0.8082                 1.1627                 1.1146
 IR Inten    --     22.9376                 8.3519                18.7779

                     25                     26                     27
                      A                      A                      A
 Frequencies --   1096.5472              1121.6585              1142.3292
 Red. masses --      1.5613                 1.7666                 1.6880
 Frc consts  --      1.1061                 1.3095                 1.2978
 IR Inten    --     40.1976                54.8521                 5.7410

                     28                     29                     30
                      A                      A                      A
 Frequencies --   1149.4262              1167.1918              1184.9155
 Red. masses --      1.3011                 1.9374                 2.0660
 Frc consts  --      1.0128                 1.5551                 1.7090
 IR Inten    --     13.2979                13.2331                33.0541

                     31                     32                     33
                      A                      A                      A
 Frequencies --   1199.4056              1211.3247              1229.2240
 Red. masses --      3.1348                 1.9745                 2.3139
 Frc consts  --      2.6570                 1.7070                 2.0599
 IR Inten    --     46.7952                29.0037                23.7849

                     34                     35                     36
                      A                      A                      A
 Frequencies --   1306.0257              1358.3546              1374.0109
 Red. masses --      1.4216                 1.4173                 1.5159
 Frc consts  --      1.4286                 1.5408                 1.6862
 IR Inten    --     12.2384                21.9921                21.9513

                     37                     38                     39
                      A                      A                      A
 Frequencies --   1413.7028              1489.3594              1495.7855
 Red. masses --      1.2611                 1.0636                 1.1145
 Frc consts  --      1.4850                 1.3900                 1.4692
 IR Inten    --     10.3445                 6.8743                 1.5259

                     40                     41                     42
                      A                      A                      A
 Frequencies --   1496.5967              1525.2384              3029.4863
 Red. masses --      1.0508                 1.1219                 1.0465
 Frc consts  --      1.3867                 1.5377                 5.6588
 IR Inten    --      5.4991                 5.2985                25.2719

                     43                     44                     45
                      A                      A                      A
 Frequencies --   3063.1615              3094.3960              3097.1694
 Red. masses --      1.0549                 1.0936                 1.0849
 Frc consts  --      5.8319                 6.1694                 6.1316
 IR Inten    --     49.5546                15.3002                45.3546

                     46                     47                     48
                      A                      A                      A
 Frequencies --   3110.4328              3120.9331              3132.2319
 Red. masses --      1.0772                 1.0873                 1.0992
 Frc consts  --      6.1400                 6.2395                 6.3538
 IR Inten    --     17.7099                14.2396                47.3328

                     49                     50                     51
                      A                      A                      A
 Frequencies --   3158.2987              3190.4006              3822.1515
 Red. masses --      1.0930                 1.1084                 1.0661
 Frc consts  --      6.4234                 6.6471                 9.1764
 IR Inten    --     25.9389                10.9653                25.7849

 - Thermochemistry -
 -------------------
 Temperature   298.150 Kelvin.  Pressure   1.00000 Atm.
 Atom     1 has atomic number  6 and mass  12.00000

 Molecular mass:   126.06808 amu.
 Principal axes and moments of inertia in atomic units:
                           1         2         3
     Eigenvalues --   588.254171201.347341319.48701
           X            0.99902   0.04122   0.01593
           Y           -0.04067   0.99861  -0.03338
           Z           -0.01728   0.03270   0.99932
 This molecule is an asymmetric top.
 Rotational symmetry number  1.
 Warning -- assumption of classical behavior for rotation
           may cause significant error
 Rotational temperatures (Kelvin)      0.14724     0.07210     0.06564
 Rotational constants (GHZ):           3.06796     1.50226     1.36776
 Zero-point vibrational energy     415513.7 (Joules/Mol)
                                   99.31017 (Kcal/Mol)
 Warning -- explicit consideration of  11 degrees of freedom as
           vibrations may cause significant error
 Vibrational temperatures:    244.69   285.66   338.64   351.59   413.16
          (Kelvin)            561.61   628.15   654.53   732.81   777.93
                              841.31   917.45  1033.12  1105.67  1134.11
                             1233.04  1245.42  1364.23  1378.56  1387.55
                             1440.02  1457.54  1515.74  1529.99  1577.68
                             1613.81  1643.55  1653.77  1679.33  1704.83
                             1725.68  1742.82  1768.58  1879.08  1954.37
                             1976.89  2034.00  2142.85  2152.10  2153.27
                             2194.48  4358.75  4407.20  4452.14  4456.13
                             4475.21  4490.32  4506.58  4544.08  4590.27
                             5499.22

 Zero-point correction=                           0.158261 (Hartree/Particle)
 Thermal correction to Energy=                    0.166170
 Thermal correction to Enthalpy=                  0.167114
 Thermal correction to Gibbs Free Energy=         0.126545
 Sum of electronic and zero-point Energies=           -422.883404
 Sum of electronic and thermal Energies=              -422.875494
 Sum of electronic and thermal Enthalpies=            -422.874550
 Sum of electronic and thermal Free Energies=         -422.915120

                     E (Thermal)             CV                S
                      KCal/Mol        Cal/Mol-Kelvin    Cal/Mol-Kelvin
 Total                  104.273             32.357             85.386
 Electronic               0.000              0.000              0.000
 Translational            0.889              2.981             40.409
 Rotational               0.889              2.981             28.324
 Vibrational            102.496             26.396             16.653
 Vibration     1          0.625              1.879              2.435
 Vibration     2          0.637              1.842              2.147
 Vibration     3          0.655              1.787              1.838
 Vibration     4          0.660              1.772              1.771
 Vibration     5          0.684              1.698              1.491
 Vibration     6          0.758              1.491              0.999
 Vibration     7          0.797              1.390              0.837
 Vibration     8          0.813              1.350              0.781
 Vibration     9          0.864              1.229              0.635
 Vibration    10          0.896              1.160              0.564
 Vibration    11          0.942              1.064              0.477

 Optimization completed.
    -- Stationary point found.
 Normal termination of Gaussian 09 at Mon Jan 27 18:18:10 2020.
