 Gaussian 09, Revision D.01,
 Gaussian 09:  ES64L-G09RevD.01 24-Apr-2013

 -----------------------------
 # b3lyp 6-31G(2df,p) opt Freq
 -----------------------------

 -----
 titel
 -----
 Symbolic Z-matrix:
 Charge =  0 Multiplicity = 1

 SCF Done:  E(RB3LYP) =  -423.197833531     A.U. after   14 cycles
 SCF Done:  E(RB3LYP) =  -423.197833771     A.U. after    6 cycles
 Optimization completed.
    -- Stationary point found.
 Normal termination of Gaussian 09 at Tue Jan 28 09:19:32 2020.

 ----------------------------------------------------------------------
 #N Geom=AllCheck Guess=TCheck SCRF=Check GenChk RB3LYP/6-31G(2df,p) Fr
 eq
 ----------------------------------------------------------------------

 Structure from the checkpoint file:  "/scratch/puck/g09_ea0d9138-c2f8-45ad-8a6a-48f189f11885/Gau-129668.chk"
 -----
 titel
 -----
 Charge =  0 Multiplicity = 1

                         Standard orientation:
 ---------------------------------------------------------------------
 Center     Atomic      Atomic             Coordinates (Angstroms)
 Number     Number       Type             X           Y           Z
 ---------------------------------------------------------------------
      1          6           0       -2.818920   -0.322156   -0.549999
      2          6           0       -1.821752   -0.609157    0.581233
      3          6           0       -0.454125   -0.084155    0.284876
      4          8           0        0.274049   -0.729978   -0.812406
      5          6           0        1.428577   -0.760753   -0.036149
      6          8           0        2.453312   -1.301108   -0.298737
      7          6           0        0.823437    0.013148    1.098758
      8          6           0        0.127132    1.266260    0.517414
      9          6           0        0.725396    2.160386   -0.544505
     10          1           0       -2.937470    0.754340   -0.708476
     11          1           0       -2.475429   -0.765895   -1.488552
     12          1           0       -3.801077   -0.740905   -0.313772
     13          1           0       -2.167209   -0.154606    1.517059
     14          1           0       -1.753740   -1.689287    0.755855
     15          1           0        1.025669   -0.120110    2.151894
     16          1           0       -0.389331    1.799047    1.315802
     17          1           0       -0.043380    2.816829   -0.965471
     18          1           0        1.513100    2.791731   -0.122440
     19          1           0        1.151502    1.576116   -1.362518
 ---------------------------------------------------------------------

 SCF Done:  E(RB3LYP) =  -423.197833771     A.U. after    1 cycles

 The electronic state is 1-A.
 Alpha  occ. eigenvalues --  -19.17247 -19.13226 -10.30751 -10.26418 -10.22340
 Alpha  occ. eigenvalues --  -10.21203 -10.20606 -10.18890 -10.18686  -1.10424
 Alpha  occ. eigenvalues --   -1.03229  -0.86542  -0.78799  -0.73252  -0.67053
 Alpha  occ. eigenvalues --   -0.63095  -0.57791  -0.54374  -0.49461  -0.49359
 Alpha  occ. eigenvalues --   -0.47297  -0.45264  -0.43142  -0.42392  -0.40903
 Alpha  occ. eigenvalues --   -0.39478  -0.38619  -0.37858  -0.36946  -0.35834
 Alpha  occ. eigenvalues --   -0.33374  -0.29516  -0.27542  -0.26907
 Alpha virt. eigenvalues --    0.00517   0.07016   0.10103   0.10874   0.11628
 Alpha virt. eigenvalues --    0.12450   0.14157   0.14298   0.15543   0.15826
 Alpha virt. eigenvalues --    0.16611   0.17143   0.18647   0.19437   0.20941

 Mulliken charges:
               1
     1  C   -0.379569
     2  C   -0.289398
     3  C    0.458258
     4  O   -0.299105
     5  C    0.459610
     6  O   -0.328286
     7  C   -0.370493
     8  C   -0.067376
     9  C   -0.424485
    10  H    0.120505
    11  H    0.142813
    12  H    0.118991
    13  H    0.109984
    14  H    0.119488
    15  H    0.123051
    16  H    0.103400
    17  H    0.124539
    18  H    0.128520
    19  H    0.149553
 Sum of Mulliken charges =   0.00000

 Dipole moment (field-independent basis, Debye):
    X=             -3.1273    Y=              2.2496    Z=              2.0899  Tot=              4.3828
 Quadrupole moment (field-independent basis, Debye-Ang):
   XX=            -58.4644   YY=            -53.4704   ZZ=            -52.1788
   XY=              4.8686   XZ=              1.0212   YZ=             -1.5824

  Exact polarizability:  87.373  -3.299  75.403   0.234   0.232  65.983
 Approx polarizability: 124.846 -11.724 109.112   0.524   4.577 101.681

                      1                      2                      3
                      A                      A                      A
 Frequencies --     79.3152               121.7715               141.6347
 Red. masses --      2.7252                 4.3116                 3.2114
 Frc consts  --      0.0101                 0.0377                 0.0380
 IR Inten    --      0.8903                 0.9789                 0.8190

                      4                      5                      6
                      A                      A                      A
 Frequencies --    190.6368               203.2727               263.9444
 Red. masses --      1.0704                 1.2436                 2.6465
 Frc consts  --      0.0229                 0.0303                 0.1086
 IR Inten    --      0.2148                 0.3722                 1.9042

                      7                      8                      9
                      A                      A                      A
 Frequencies --    292.9842               359.1213               433.4037
 Red. masses --      2.2512                 3.0297                 3.4764
 Frc consts  --      0.1139                 0.2302                 0.3847
 IR Inten    --      1.1581                 0.5605                 0.6662

                     10                     11                     12
                      A                      A                      A
 Frequencies --    485.1147               547.9499               649.8158
 Red. masses --      4.6662                 3.6427                 3.6892
 Frc consts  --      0.6470                 0.6444                 0.9178
 IR Inten    --      1.6570                 1.1895                 0.1446

                     13                     14                     15
                      A                      A                      A
 Frequencies --    699.1188               757.7073               781.9510
 Red. masses --      4.4134                 3.2985                 1.4331
 Frc consts  --      1.2709                 1.1157                 0.5163
 IR Inten    --      1.6233                 6.2004                 1.0157

                     16                     17                     18
                      A                      A                      A
 Frequencies --    825.9422               891.7446               905.3974
 Red. masses --      4.3837                 2.4607                 2.3626
 Frc consts  --      1.7619                 1.1529                 1.1411
 IR Inten    --     32.4816                32.3061                21.1695

                     19                     20                     21
                      A                      A                      A
 Frequencies --    925.2968               971.8815               991.6933
 Red. masses --      1.6900                 1.7120                 2.2111
 Frc consts  --      0.8525                 0.9528                 1.2812
 IR Inten    --     36.8332                 6.4634                 9.7171

                     22                     23                     24
                      A                      A                      A
 Frequencies --   1032.9207              1062.0023              1077.4358
 Red. masses --      2.5629                 1.6578                 1.5831
 Frc consts  --      1.6111                 1.1016                 1.0828
 IR Inten    --     58.5321                 4.7521                 9.0756

                     25                     26                     27
                      A                      A                      A
 Frequencies --   1106.7033              1139.4025              1141.2209
 Red. masses --      2.2685                 2.0553                 2.3597
 Frc consts  --      1.6370                 1.5721                 1.8107
 IR Inten    --      8.0833                34.4643                 0.6464

                     28                     29                     30
                      A                      A                      A
 Frequencies --   1210.3267              1234.7516              1299.5319
 Red. masses --      2.1172                 2.0358                 1.5047
 Frc consts  --      1.8273                 1.8287                 1.4971
 IR Inten    --      6.2534                18.8254                 9.7140

                     31                     32                     33
                      A                      A                      A
 Frequencies --   1333.8065              1367.1917              1410.4381
 Red. masses --      1.2940                 1.5044                 1.2296
 Frc consts  --      1.3563                 1.6568                 1.4412
 IR Inten    --      7.3751                 2.6828                 1.1318

                     34                     35                     36
                      A                      A                      A
 Frequencies --   1415.8685              1470.9896              1477.7590
 Red. masses --      1.2373                 1.0963                 1.7924
 Frc consts  --      1.4614                 1.3977                 2.3062
 IR Inten    --      3.0130                 3.1289                 7.0741

                     37                     38                     39
                      A                      A                      A
 Frequencies --   1491.8077              1498.1364              1505.4536
 Red. masses --      1.0562                 1.0415                 1.1159
 Frc consts  --      1.3849                 1.3773                 1.4901
 IR Inten    --      1.1878                 7.8010                 4.2851

                     40                     41                     42
                      A                      A                      A
 Frequencies --   1513.1044              1938.7781              3034.6544
 Red. masses --      1.4041                12.7226                 1.0592
 Frc consts  --      1.8940                28.1761                 5.7470
 IR Inten    --      7.4619               494.1368                15.9638

                     43                     44                     45
                      A                      A                      A
 Frequencies --   3042.3247              3043.4522              3072.9272
 Red. masses --      1.0369                 1.0354                 1.1023
 Frc consts  --      5.6547                 5.6506                 6.1325
 IR Inten    --     18.6133                27.7232                 8.1782

                     46                     47                     48
                      A                      A                      A
 Frequencies --   3103.6188              3114.3763              3116.2731
 Red. masses --      1.1008                 1.1012                 1.0882
 Frc consts  --      6.2473                 6.2931                 6.2262
 IR Inten    --     16.8051                30.4682                 5.2018

                     49                     50                     51
                      A                      A                      A
 Frequencies --   3123.3077              3137.7279              3222.8806
 Red. masses --      1.1023                 1.0984                 1.0952
 Frc consts  --      6.3355                 6.3713                 6.7026
 IR Inten    --     20.6616                14.9329                 1.7932

 - Thermochemistry -
 -------------------
 Temperature   298.150 Kelvin.  Pressure   1.00000 Atm.
 Atom     1 has atomic number  6 and mass  12.00000

 Molecular mass:   126.06808 amu.
 Principal axes and moments of inertia in atomic units:
                           1         2         3
     Eigenvalues --   734.725581332.033861661.65264
           X            0.99804   0.06219   0.00711
           Y           -0.06187   0.99732  -0.03906
           Z           -0.00952   0.03854   0.99921
 This molecule is an asymmetric top.
 Rotational symmetry number  1.
 Warning -- assumption of classical behavior for rotation
           may cause significant error
 Rotational temperatures (Kelvin)      0.11789     0.06502     0.05213
 Rotational constants (GHZ):           2.45635     1.35488     1.08611
 Zero-point vibrational energy     414260.0 (Joules/Mol)
                                   99.01052 (Kcal/Mol)
 Warning -- explicit consideration of  11 degrees of freedom as
           vibrations may cause significant error
 Vibrational temperatures:    114.12   175.20   203.78   274.28   292.46
          (Kelvin)            379.76   421.54   516.69   623.57   697.97
                              788.38   934.94  1005.87  1090.17  1125.05
                             1188.35  1283.02  1302.66  1331.29  1398.32
                             1426.82  1486.14  1527.98  1550.19  1592.30
                             1639.34  1641.96  1741.39  1776.53  1869.73
                             1919.05  1967.08  2029.30  2037.12  2116.42
                             2126.16  2146.38  2155.48  2166.01  2177.02
                             2789.47  4366.19  4377.22  4378.84  4421.25
                             4465.41  4480.89  4483.62  4493.74  4514.49
                             4637.00

 Zero-point correction=                           0.157783 (Hartree/Particle)
 Thermal correction to Energy=                    0.166818
 Thermal correction to Enthalpy=                  0.167762
 Thermal correction to Gibbs Free Energy=         0.123922
 Sum of electronic and zero-point Energies=           -423.040050
 Sum of electronic and thermal Energies=              -423.031016
 Sum of electronic and thermal Enthalpies=            -423.030072
 Sum of electronic and thermal Free Energies=         -423.073912

                     E (Thermal)             CV                S
                      KCal/Mol        Cal/Mol-Kelvin    Cal/Mol-Kelvin
 Total                  104.680             33.486             92.269
 Electronic               0.000              0.000              0.000
 Translational            0.889              2.981             40.409
 Rotational               0.889              2.981             28.877
 Vibrational            102.902             27.525             22.984
 Vibration     1          0.600              1.963              3.908
 Vibration     2          0.609              1.931              3.072
 Vibration     3          0.615              1.912              2.782
 Vibration     4          0.634              1.853              2.222
 Vibration     5          0.639              1.835              2.103
 Vibration     6          0.671              1.739              1.636
 Vibration     7          0.688              1.687              1.457
 Vibration     8          0.734              1.556              1.126
 Vibration     9          0.794              1.397              0.848
 Vibration    10          0.841              1.283              0.696
 Vibration    11          0.903              1.144              0.548

 Optimization completed.
    -- Stationary point found.
 Normal termination of Gaussian 09 at Tue Jan 28 10:03:08 2020.
