 Gaussian 09, Revision D.01,
 Gaussian 09:  ES64L-G09RevD.01 24-Apr-2013

 -----------------------------
 # b3lyp 6-31G(2df,p) opt Freq
 -----------------------------

 -----
 titel
 -----
 Symbolic Z-matrix:
 Charge =  0 Multiplicity = 1

 SCF Done:  E(RB3LYP) =  -423.137926206     A.U. after   12 cycles
 Optimization completed.
    -- Stationary point found.
 Normal termination of Gaussian 09 at Tue Jan 28 09:59:02 2020.

 ----------------------------------------------------------------------
 #N Geom=AllCheck Guess=TCheck SCRF=Check GenChk RB3LYP/6-31G(2df,p) Fr
 eq
 ----------------------------------------------------------------------

 Structure from the checkpoint file:  "/scratch/puck/g09_9086645e-ebcf-45ee-ab38-d82b584d8bd2/Gau-21628.chk"
 -----
 titel
 -----
 Charge =  0 Multiplicity = 1

                         Standard orientation:
 ---------------------------------------------------------------------
 Center     Atomic      Atomic             Coordinates (Angstroms)
 Number     Number       Type             X           Y           Z
 ---------------------------------------------------------------------
      1          8           0       -2.598347    0.185311   -0.547931
      2          6           0       -1.814184   -0.673014    0.273749
      3          6           0       -0.415693   -0.125287    0.312695
      4          6           0       -0.104878    1.341103    0.726996
      5          6           0        1.170660    1.148276   -0.106974
      6          6           0        1.828060   -0.242245    0.265600
      7          6           0        0.687287   -0.891190    1.074822
      8          8           0        1.546590   -0.755284   -1.072214
      9          6           0        0.439525    0.150724   -1.026063
     10          1           0       -3.492001   -0.167427   -0.585199
     11          1           0       -2.227536   -0.730068    1.294821
     12          1           0       -1.793854   -1.698961   -0.128678
     13          1           0       -0.781997    2.052919    0.249447
     14          1           0       -0.025040    1.558740    1.796554
     15          1           0        1.815926    1.946955   -0.467604
     16          1           0        2.864374   -0.365365    0.576991
     17          1           0        0.681628   -1.973034    0.922045
     18          1           0        0.695131   -0.666027    2.145037
     19          1           0       -0.067248    0.351839   -1.967209
 ---------------------------------------------------------------------

 SCF Done:  E(RB3LYP) =  -423.137926206     A.U. after    1 cycles

 The electronic state is 1-A.
 Alpha  occ. eigenvalues --  -19.13637 -19.12761 -10.23509 -10.22751 -10.22738
 Alpha  occ. eigenvalues --  -10.19220 -10.18734 -10.18081 -10.17855  -1.04782
 Alpha  occ. eigenvalues --   -1.01611  -0.85355  -0.72994  -0.71712  -0.64169
 Alpha  occ. eigenvalues --   -0.63769  -0.55493  -0.53250  -0.50258  -0.48993
 Alpha  occ. eigenvalues --   -0.47569  -0.45103  -0.44101  -0.42205  -0.38709
 Alpha  occ. eigenvalues --   -0.36621  -0.36247  -0.33784  -0.32449  -0.31067
 Alpha  occ. eigenvalues --   -0.29892  -0.28747  -0.26834  -0.23412
 Alpha virt. eigenvalues --    0.07246   0.09413   0.11027   0.11540   0.12934
 Alpha virt. eigenvalues --    0.13916   0.15219   0.15730   0.16372   0.16761
 Alpha virt. eigenvalues --    0.17631   0.18458   0.19735   0.21042   0.21621

 Mulliken charges:
               1
     1  O   -0.425566
     2  C   -0.213816
     3  C    0.315675
     4  C   -0.290181
     5  C   -0.082485
     6  C    0.068152
     7  C   -0.274438
     8  O   -0.297613
     9  C    0.080681
    10  H    0.288638
    11  H    0.086180
    12  H    0.091202
    13  H    0.117533
    14  H    0.089248
    15  H    0.075781
    16  H    0.078719
    17  H    0.104038
    18  H    0.094826
    19  H    0.093425
 Sum of Mulliken charges =   0.00000

 Dipole moment (field-independent basis, Debye):
    X=             -1.3851    Y=             -0.0497    Z=              1.5455  Tot=              2.0759
 Quadrupole moment (field-independent basis, Debye-Ang):
   XX=            -47.8185   YY=            -53.5508   ZZ=            -53.8751
   XY=              4.6988   XZ=              2.6791   YZ=             -1.6584

  Exact polarizability:  82.535   0.533  70.795   1.163  -2.042  69.221
 Approx polarizability: 112.975  -1.913 106.491   0.932  -0.699 108.530

                      1                      2                      3
                      A                      A                      A
 Frequencies --     99.1883               178.7566               225.6227
 Red. masses --      4.2525                 4.0874                 1.6300
 Frc consts  --      0.0247                 0.0770                 0.0489
 IR Inten    --      2.9292                 4.3144                42.4244

                      4                      5                      6
                      A                      A                      A
 Frequencies --    281.1962               380.5822               431.3166
 Red. masses --      1.3723                 2.6802                 2.4996
 Frc consts  --      0.0639                 0.2287                 0.2740
 IR Inten    --     59.4461                 1.6414                 1.5860

                      7                      8                      9
                      A                      A                      A
 Frequencies --    487.0520               534.5702               646.2813
 Red. masses --      2.0694                 4.0699                 3.3869
 Frc consts  --      0.2892                 0.6852                 0.8335
 IR Inten    --      0.9658                 6.9180                12.6765

                     10                     11                     12
                      A                      A                      A
 Frequencies --    677.6758               726.4192               804.5254
 Red. masses --      4.5169                 3.5819                 2.6394
 Frc consts  --      1.2222                 1.1136                 1.0066
 IR Inten    --      3.2174                 2.7992                 8.0721

                     13                     14                     15
                      A                      A                      A
 Frequencies --    823.9144               851.8408               875.2630
 Red. masses --      3.0363                 1.9008                 3.2802
 Frc consts  --      1.2144                 0.8126                 1.4806
 IR Inten    --      1.8976                11.1769                 7.1361

                     16                     17                     18
                      A                      A                      A
 Frequencies --    920.8137               929.4944               963.6107
 Red. masses --      2.2724                 1.9754                 2.1667
 Frc consts  --      1.1352                 1.0056                 1.1854
 IR Inten    --     15.8463                12.2736                16.7618

                     19                     20                     21
                      A                      A                      A
 Frequencies --    987.6957              1006.3717              1025.8791
 Red. masses --      1.9884                 1.8620                 2.1753
 Frc consts  --      1.1429                 1.1111                 1.3488
 IR Inten    --     15.6208                12.5790                23.9783

                     22                     23                     24
                      A                      A                      A
 Frequencies --   1036.1968              1067.9754              1079.1005
 Red. masses --      1.8684                 3.8664                 1.4087
 Frc consts  --      1.1820                 2.5982                 0.9665
 IR Inten    --      7.3954                40.0901                 7.1965

                     25                     26                     27
                      A                      A                      A
 Frequencies --   1116.0211              1136.8054              1160.3395
 Red. masses --      1.9469                 1.7104                 1.5746
 Frc consts  --      1.4287                 1.3023                 1.2490
 IR Inten    --     16.0548                 0.1784                 0.5548

                     28                     29                     30
                      A                      A                      A
 Frequencies --   1195.2266              1207.0834              1213.5445
 Red. masses --      1.5409                 1.4416                 1.4149
 Frc consts  --      1.2970                 1.2375                 1.2277
 IR Inten    --     10.2191                 4.1006                14.1731

                     31                     32                     33
                      A                      A                      A
 Frequencies --   1231.7336              1248.7826              1268.8932
 Red. masses --      1.5486                 1.3743                 1.5707
 Frc consts  --      1.3843                 1.2628                 1.4900
 IR Inten    --      1.4315                40.1412                 0.2837

                     34                     35                     36
                      A                      A                      A
 Frequencies --   1285.5502              1297.5883              1334.6320
 Red. masses --      1.4517                 1.7191                 1.6666
 Frc consts  --      1.4135                 1.7054                 1.7490
 IR Inten    --      8.2284                 7.2587                11.0138

                     37                     38                     39
                      A                      A                      A
 Frequencies --   1350.6843              1464.1393              1478.7567
 Red. masses --      2.1101                 1.6404                 1.1097
 Frc consts  --      2.2681                 2.0719                 1.4297
 IR Inten    --      6.8377                10.7135                 2.7472

                     40                     41                     42
                      A                      A                      A
 Frequencies --   1506.6218              1513.3398              2956.1599
 Red. masses --      1.1376                 1.0800                 1.0562
 Frc consts  --      1.5214                 1.4573                 5.4380
 IR Inten    --      2.0842                 2.3639                60.9280

                     43                     44                     45
                      A                      A                      A
 Frequencies --   2985.3791              3050.3535              3060.0379
 Red. masses --      1.1043                 1.0604                 1.0580
 Frc consts  --      5.7989                 5.8131                 5.8371
 IR Inten    --     50.5581                32.4446                31.4027

                     46                     47                     48
                      A                      A                      A
 Frequencies --   3114.9141              3118.7341              3129.3286
 Red. masses --      1.1061                 1.1054                 1.0904
 Frc consts  --      6.3235                 6.3346                 6.2913
 IR Inten    --     16.2470                19.7051                26.5842

                     49                     50                     51
                      A                      A                      A
 Frequencies --   3138.7396              3153.9459              3833.3735
 Red. masses --      1.0899                 1.0944                 1.0664
 Frc consts  --      6.3264                 6.4138                 9.2328
 IR Inten    --     60.0725                20.8095                21.8891

 - Thermochemistry -
 -------------------
 Temperature   298.150 Kelvin.  Pressure   1.00000 Atm.
 Atom     1 has atomic number  8 and mass  15.99491

 Molecular mass:   126.06808 amu.
 Principal axes and moments of inertia in atomic units:
                           1         2         3
     Eigenvalues --   557.118201285.101551316.45449
           X            0.99973   0.02277   0.00417
           Y           -0.02078   0.96190  -0.27262
           Z           -0.01022   0.27246   0.96211
 This molecule is an asymmetric top.
 Rotational symmetry number  1.
 Warning -- assumption of classical behavior for rotation
           may cause significant error
 Rotational temperatures (Kelvin)      0.15547     0.06740     0.06579
 Rotational constants (GHZ):           3.23942     1.40436     1.37091
 Zero-point vibrational energy     422234.2 (Joules/Mol)
                                  100.91640 (Kcal/Mol)
 Warning -- explicit consideration of   8 degrees of freedom as
           vibrations may cause significant error
 Vibrational temperatures:    142.71   257.19   324.62   404.58   547.57
          (Kelvin)            620.57   700.76   769.13   929.85   975.02
                             1045.15  1157.53  1185.43  1225.61  1259.31
                             1324.84  1337.33  1386.42  1421.07  1447.94
                             1476.01  1490.85  1536.58  1552.58  1605.70
                             1635.61  1669.47  1719.66  1736.72  1746.02
                             1772.19  1796.72  1825.65  1849.62  1866.94
                             1920.24  1943.33  2106.57  2127.60  2167.69
                             2177.36  4253.25  4295.29  4388.77  4402.71
                             4481.66  4487.16  4502.40  4515.94  4537.82
                             5515.36

 Zero-point correction=                           0.160821 (Hartree/Particle)
 Thermal correction to Energy=                    0.168179
 Thermal correction to Enthalpy=                  0.169124
 Thermal correction to Gibbs Free Energy=         0.129096
 Sum of electronic and zero-point Energies=           -422.977106
 Sum of electronic and thermal Energies=              -422.969747
 Sum of electronic and thermal Enthalpies=            -422.968803
 Sum of electronic and thermal Free Energies=         -423.008831

                     E (Thermal)             CV                S
                      KCal/Mol        Cal/Mol-Kelvin    Cal/Mol-Kelvin
 Total                  105.534             29.762             84.246
 Electronic               0.000              0.000              0.000
 Translational            0.889              2.981             40.409
 Rotational               0.889              2.981             28.335
 Vibrational            103.757             23.801             15.502
 Vibration     1          0.604              1.950              3.470
 Vibration     2          0.629              1.868              2.341
 Vibration     3          0.650              1.802              1.914
 Vibration     4          0.681              1.708              1.526
 Vibration     5          0.750              1.512              1.037
 Vibration     6          0.792              1.402              0.854
 Vibration     7          0.843              1.279              0.691
 Vibration     8          0.890              1.174              0.577

 Optimization completed.
    -- Stationary point found.
 Normal termination of Gaussian 09 at Tue Jan 28 10:45:31 2020.
