 Gaussian 09, Revision D.01,
 Gaussian 09:  ES64L-G09RevD.01 24-Apr-2013

 -----------------------------
 # b3lyp 6-31G(2df,p) opt Freq
 -----------------------------

 -----
 titel
 -----
 Symbolic Z-matrix:
 Charge =  0 Multiplicity = 1

 SCF Done:  E(RB3LYP) =  -423.184155721     A.U. after   15 cycles
 SCF Done:  E(RB3LYP) =  -423.184155765     A.U. after    6 cycles
 SCF Done:  E(RB3LYP) =  -423.184155476     A.U. after    7 cycles
 SCF Done:  E(RB3LYP) =  -423.184155793     A.U. after    7 cycles
 Optimization completed.
    -- Stationary point found.
 Normal termination of Gaussian 09 at Mon Jan 27 16:28:03 2020.

 ----------------------------------------------------------------------
 #N Geom=AllCheck Guess=TCheck SCRF=Check GenChk RB3LYP/6-31G(2df,p) Fr
 eq
 ----------------------------------------------------------------------

 Structure from the checkpoint file:  "/scratch/puck/g09_47a7ee48-913e-4fc1-a9f4-466e252c63b4/Gau-35142.chk"
 -----
 titel
 -----
 Charge =  0 Multiplicity = 1

                         Standard orientation:
 ---------------------------------------------------------------------
 Center     Atomic      Atomic             Coordinates (Angstroms)
 Number     Number       Type             X           Y           Z
 ---------------------------------------------------------------------
      1          6           0       -0.884467    1.843440    0.597691
      2          6           0       -0.334023    0.468804    0.245149
      3          6           0       -1.185977   -0.267864   -0.812861
      4          6           0       -2.518773   -0.604141   -0.331903
      5          6           0       -3.608575   -0.878724    0.094268
      6          8           0        0.977257    0.672528   -0.305945
      7          6           0        2.027373   -0.162537   -0.088626
      8          6           0        1.848355   -1.319585    0.877780
      9          8           0        3.061959    0.062152   -0.654301
     10          1           0       -0.261254    2.319756    1.358592
     11          1           0       -0.895136    2.485112   -0.288421
     12          1           0       -1.904255    1.753351    0.979542
     13          1           0       -0.279030   -0.147019    1.146584
     14          1           0       -1.247368    0.364168   -1.707146
     15          1           0       -0.660989   -1.181654   -1.116668
     16          1           0       -4.576583   -1.123011    0.456342
     17          1           0        1.650617   -0.959064    1.892355
     18          1           0        1.020832   -1.975339    0.592233
     19          1           0        2.775957   -1.890097    0.879577
 ---------------------------------------------------------------------

 SCF Done:  E(RB3LYP) =  -423.184155793     A.U. after    1 cycles

 The electronic state is 1-A.
 Alpha  occ. eigenvalues --  -19.17948 -19.11795 -10.30908 -10.26278 -10.22168
 Alpha  occ. eigenvalues --  -10.20311 -10.19393 -10.18767 -10.18346  -1.09515
 Alpha  occ. eigenvalues --   -1.01512  -0.82285  -0.76019  -0.74927  -0.70763
 Alpha  occ. eigenvalues --   -0.64160  -0.57140  -0.53900  -0.50625  -0.48830
 Alpha  occ. eigenvalues --   -0.48347  -0.45587  -0.44438  -0.43337  -0.41710
 Alpha  occ. eigenvalues --   -0.40134  -0.39185  -0.37980  -0.37113  -0.33956
 Alpha  occ. eigenvalues --   -0.30265  -0.27629  -0.27272  -0.26583
 Alpha virt. eigenvalues --    0.01218   0.03899   0.04529   0.07393   0.10695
 Alpha virt. eigenvalues --    0.11818   0.11869   0.12959   0.14672   0.15250
 Alpha virt. eigenvalues --    0.16759   0.17031   0.18362   0.19071   0.19955

 Mulliken charges:
               1
     1  C   -0.390074
     2  C    0.111388
     3  C   -0.358001
     4  C    0.297039
     5  C   -0.444302
     6  O   -0.228418
     7  C    0.405411
     8  C   -0.525260
     9  O   -0.308479
    10  H    0.127458
    11  H    0.134198
    12  H    0.137869
    13  H    0.102330
    14  H    0.146591
    15  H    0.134599
    16  H    0.202086
    17  H    0.153165
    18  H    0.146998
    19  H    0.155402
 Sum of Mulliken charges =   0.00000

 Dipole moment (field-independent basis, Debye):
    X=             -2.8835    Y=             -1.1309    Z=              2.0526  Tot=              3.7158
 Quadrupole moment (field-independent basis, Debye-Ang):
   XX=            -61.1128   YY=            -51.9418   ZZ=            -52.4157
   XY=             -2.9006   XZ=              3.7850   YZ=              0.0929

  Exact polarizability: 106.886   2.536  67.477  -8.137  -2.532  62.123
 Approx polarizability: 151.794   8.212  93.691 -21.901  -6.431  96.174

                      1                      2                      3
                      A                      A                      A
 Frequencies --     50.9885                67.8865                79.9508
 Red. masses --      3.9003                 6.4275                 2.9123
 Frc consts  --      0.0060                 0.0175                 0.0110
 IR Inten    --      1.3268                 3.5542                 0.5392

                      4                      5                      6
                      A                      A                      A
 Frequencies --    152.6836               207.4426               218.1150
 Red. masses --      3.6882                 1.4148                 1.1249
 Frc consts  --      0.0507                 0.0359                 0.0315
 IR Inten    --      0.1659                 0.6772                 0.1740

                      7                      8                      9
                      A                      A                      A
 Frequencies --    249.4178               307.3432               354.9567
 Red. masses --      1.6599                 3.3330                 2.9068
 Frc consts  --      0.0608                 0.1855                 0.2158
 IR Inten    --      0.6598                 1.8834                 3.4320

                     10                     11                     12
                      A                      A                      A
 Frequencies --    384.8211               419.3275               467.0340
 Red. masses --      4.2145                 3.1102                 4.1925
 Frc consts  --      0.3677                 0.3222                 0.5388
 IR Inten    --      3.1877                 0.4485                 6.5184

                     13                     14                     15
                      A                      A                      A
 Frequencies --    527.0908               577.2741               610.0613
 Red. masses --      3.0483                 2.5865                 4.7684
 Frc consts  --      0.4990                 0.5078                 1.0456
 IR Inten    --      2.3527                 6.0069                18.2000

                     16                     17                     18
                      A                      A                      A
 Frequencies --    631.3069               656.7213               792.9810
 Red. masses --      1.2121                 1.2377                 3.3851
 Frc consts  --      0.2846                 0.3145                 1.2541
 IR Inten    --     43.5985                41.3209                 3.2010

                     19                     20                     21
                      A                      A                      A
 Frequencies --    865.3066               903.5548               977.9615
 Red. masses --      2.3430                 1.4817                 3.0602
 Frc consts  --      1.0336                 0.7127                 1.7244
 IR Inten    --      0.4811                 0.7585                 1.0257

                     22                     23                     24
                      A                      A                      A
 Frequencies --    989.7708              1020.0075              1056.6061
 Red. masses --      2.2419                 1.9186                 1.8115
 Frc consts  --      1.2940                 1.1761                 1.1916
 IR Inten    --     16.6632                55.0755                 5.0675

                     25                     26                     27
                      A                      A                      A
 Frequencies --   1097.8585              1114.0476              1146.3000
 Red. masses --      4.1608                 1.6060                 2.1599
 Frc consts  --      2.9547                 1.1744                 1.6721
 IR Inten    --     90.6477                11.8153                51.4812

                     28                     29                     30
                      A                      A                      A
 Frequencies --   1241.9897              1263.6272              1307.2311
 Red. masses --      1.6606                 2.5821                 1.3075
 Frc consts  --      1.5092                 2.4292                 1.3164
 IR Inten    --     92.1858               312.3632                 6.4077

                     31                     32                     33
                      A                      A                      A
 Frequencies --   1368.0803              1381.4213              1394.8076
 Red. masses --      1.3428                 1.2880                 1.2782
 Frc consts  --      1.4808                 1.4482                 1.4651
 IR Inten    --      7.9198                 2.6949                47.1732

                     34                     35                     36
                      A                      A                      A
 Frequencies --   1412.6542              1468.7260              1473.1754
 Red. masses --      1.2997                 1.0870                 1.0550
 Frc consts  --      1.5282                 1.3816                 1.3490
 IR Inten    --     14.4595                 2.7437                 8.2126

                     37                     38                     39
                      A                      A                      A
 Frequencies --   1488.3000              1490.7544              1498.1405
 Red. masses --      1.0449                 1.0461                 1.0543
 Frc consts  --      1.3637                 1.3697                 1.3942
 IR Inten    --      5.2867                 9.0101                 3.5720

                     40                     41                     42
                      A                      A                      A
 Frequencies --   1844.3382              2239.4100              3030.0744
 Red. masses --     11.6241                 5.9250                 1.0586
 Frc consts  --     23.2965                17.5069                 5.7267
 IR Inten    --    355.9012                 1.2445                13.7351

                     43                     44                     45
                      A                      A                      A
 Frequencies --   3049.8451              3050.2315              3063.1217
 Red. masses --      1.0352                 1.0395                 1.0976
 Frc consts  --      5.6730                 5.6981                 6.0678
 IR Inten    --      9.6267                 3.0246                 4.8079

                     46                     47                     48
                      A                      A                      A
 Frequencies --   3084.3222              3114.3055              3126.2443
 Red. masses --      1.0866                 1.0990                 1.1018
 Frc consts  --      6.0904                 6.2804                 6.3442
 IR Inten    --     17.0946                 6.6280                20.9964

                     49                     50                     51
                      A                      A                      A
 Frequencies --   3135.7722              3166.5745              3505.3239
 Red. masses --      1.1021                 1.1006                 1.1625
 Frc consts  --      6.3849                 6.5023                 8.4159
 IR Inten    --     13.9479                 7.1737                70.9225

 - Thermochemistry -
 -------------------
 Temperature   298.150 Kelvin.  Pressure   1.00000 Atm.
 Atom     1 has atomic number  6 and mass  12.00000

 Molecular mass:   126.06808 amu.
 Principal axes and moments of inertia in atomic units:
                           1         2         3
     Eigenvalues --   562.537012143.304312382.65089
           X            0.99974  -0.02119   0.00894
           Y            0.02127   0.99974  -0.00850
           Z           -0.00876   0.00869   0.99992
 This molecule is an asymmetric top.
 Rotational symmetry number  1.
 Warning -- assumption of classical behavior for rotation
           may cause significant error
 Rotational temperatures (Kelvin)      0.15397     0.04041     0.03635
 Rotational constants (GHZ):           3.20822     0.84204     0.75745
 Zero-point vibrational energy     407479.7 (Joules/Mol)
                                   97.38999 (Kcal/Mol)
 Warning -- explicit consideration of  15 degrees of freedom as
           vibrations may cause significant error
 Vibrational temperatures:     73.36    97.67   115.03   219.68   298.46
          (Kelvin)            313.82   358.86   442.20   510.70   553.67
                              603.32   671.96   758.37   830.57   877.74
                              908.31   944.87  1140.92  1244.98  1300.01
                             1407.07  1424.06  1467.56  1520.22  1579.57
                             1602.86  1649.27  1786.94  1818.08  1880.81
                             1968.36  1987.55  2006.81  2032.49  2113.17
                             2119.57  2141.33  2144.86  2155.49  2653.59
                             3222.01  4359.60  4388.04  4388.60  4407.14
                             4437.65  4480.79  4497.96  4511.67  4555.99
                             5043.37

 Zero-point correction=                           0.155201 (Hartree/Particle)
 Thermal correction to Energy=                    0.165589
 Thermal correction to Enthalpy=                  0.166533
 Thermal correction to Gibbs Free Energy=         0.119073
 Sum of electronic and zero-point Energies=           -423.028955
 Sum of electronic and thermal Energies=              -423.018567
 Sum of electronic and thermal Enthalpies=            -423.017623
 Sum of electronic and thermal Free Energies=         -423.065083

                     E (Thermal)             CV                S
                      KCal/Mol        Cal/Mol-Kelvin    Cal/Mol-Kelvin
 Total                  103.908             37.137             99.887
 Electronic               0.000              0.000              0.000
 Translational            0.889              2.981             40.409
 Rotational               0.889              2.981             29.442
 Vibrational            102.131             31.175             30.036
 Vibration     1          0.595              1.977              4.779
 Vibration     2          0.598              1.970              4.214
 Vibration     3          0.600              1.963              3.892
 Vibration     4          0.619              1.900              2.639
 Vibration     5          0.641              1.829              2.066
 Vibration     6          0.646              1.813              1.975
 Vibration     7          0.662              1.764              1.735
 Vibration     8          0.697              1.660              1.377
 Vibration     9          0.731              1.565              1.144
 Vibration    10          0.754              1.503              1.020
 Vibration    11          0.782              1.428              0.894
 Vibration    12          0.824              1.323              0.746
 Vibration    13          0.882              1.190              0.594
 Vibration    14          0.934              1.080              0.490
 Vibration    15          0.969              1.011              0.433

 Optimization completed.
    -- Stationary point found.
 Normal termination of Gaussian 09 at Mon Jan 27 17:23:05 2020.
