 Gaussian 09, Revision D.01,
 Gaussian 09:  ES64L-G09RevD.01 24-Apr-2013

 -----------------------------
 # b3lyp 6-31G(2df,p) opt Freq
 -----------------------------

 -----
 titel
 -----
 Symbolic Z-matrix:
 Charge =  0 Multiplicity = 1

 SCF Done:  E(RB3LYP) =  -423.202762940     A.U. after   14 cycles
 Optimization completed.
    -- Stationary point found.
 Normal termination of Gaussian 09 at Tue Jan 28 12:39:26 2020.

 ----------------------------------------------------------------------
 #N Geom=AllCheck Guess=TCheck SCRF=Check GenChk RB3LYP/6-31G(2df,p) Fr
 eq
 ----------------------------------------------------------------------

 Structure from the checkpoint file:  "/scratch/puck/g09_8794a279-4ea8-4af5-a3b3-42757c11300f/Gau-29197.chk"
 -----
 titel
 -----
 Charge =  0 Multiplicity = 1

                         Standard orientation:
 ---------------------------------------------------------------------
 Center     Atomic      Atomic             Coordinates (Angstroms)
 Number     Number       Type             X           Y           Z
 ---------------------------------------------------------------------
      1          8           0       -2.966229   -1.132359    0.482586
      2          6           0       -2.592590   -0.050813   -0.368773
      3          6           0       -1.148097    0.317275   -0.217692
      4          6           0       -0.652500    1.506428    0.126221
      5          6           0        0.851979    1.506433    0.230227
      6          6           0        1.259682    0.133042   -0.389654
      7          6           0       -0.048687   -0.711149   -0.391968
      8          6           0        2.369287   -0.532707    0.386705
      9          8           0        3.450195   -0.831473   -0.049373
     10          1           0       -2.822876   -0.843763    1.390176
     11          1           0       -2.790059   -0.412620   -1.385311
     12          1           0       -3.228479    0.831946   -0.205673
     13          1           0       -1.248619    2.387604    0.340975
     14          1           0        1.327427    2.340677   -0.295965
     15          1           0        1.168071    1.590244    1.281403
     16          1           0        1.611937    0.279579   -1.413219
     17          1           0       -0.152429   -1.295890   -1.312388
     18          1           0       -0.074390   -1.438903    0.430910
     19          1           0        2.103246   -0.739275    1.452990
 ---------------------------------------------------------------------

 SCF Done:  E(RB3LYP) =  -423.202762940     A.U. after    1 cycles

 The electronic state is 1-A.
 Alpha  occ. eigenvalues --  -19.14265 -19.13813 -10.26898 -10.23735 -10.20172
 Alpha  occ. eigenvalues --  -10.20100 -10.19765 -10.19399 -10.19154  -1.04530
 Alpha  occ. eigenvalues --   -1.02199  -0.85981  -0.75896  -0.72532  -0.67586
 Alpha  occ. eigenvalues --   -0.61832  -0.57049  -0.53836  -0.51681  -0.48708
 Alpha  occ. eigenvalues --   -0.47050  -0.44210  -0.43836  -0.41336  -0.41122
 Alpha  occ. eigenvalues --   -0.40149  -0.38449  -0.36377  -0.35687  -0.34126
 Alpha  occ. eigenvalues --   -0.33293  -0.27997  -0.25354  -0.24688
 Alpha virt. eigenvalues --   -0.02062   0.00594   0.07866   0.09055   0.11746
 Alpha virt. eigenvalues --    0.12353   0.12782   0.13741   0.14891   0.16236
 Alpha virt. eigenvalues --    0.17258   0.17979   0.19922   0.20505   0.21328

 Mulliken charges:
               1
     1  O   -0.411231
     2  C   -0.174288
     3  C    0.302493
     4  C   -0.174931
     5  C   -0.286227
     6  C   -0.056542
     7  C   -0.326382
     8  C    0.155335
     9  O   -0.250260
    10  H    0.282967
    11  H    0.117057
    12  H    0.094737
    13  H    0.095260
    14  H    0.121413
    15  H    0.111012
    16  H    0.098669
    17  H    0.119042
    18  H    0.115288
    19  H    0.066588
 Sum of Mulliken charges =   0.00000

 Dipole moment (field-independent basis, Debye):
    X=             -2.0678    Y=              2.0979    Z=              0.9333  Tot=              3.0900
 Quadrupole moment (field-independent basis, Debye-Ang):
   XX=            -68.5000   YY=            -54.1232   ZZ=            -49.4288
   XY=             -0.1605   XZ=              0.0024   YZ=              0.0990

  Exact polarizability:  94.977   1.345  78.572   0.915   2.989  63.934
 Approx polarizability: 125.932   5.540 124.656  -1.431   7.673 100.516

                      1                      2                      3
                      A                      A                      A
 Frequencies --     54.7299                68.0955                86.7826
 Red. masses --      3.8945                 4.5260                 3.0510
 Frc consts  --      0.0069                 0.0124                 0.0135
 IR Inten    --      1.1370                 4.3831                 2.6465

                      4                      5                      6
                      A                      A                      A
 Frequencies --    161.4117               267.1732               311.1321
 Red. masses --      3.6929                 1.9935                 2.5529
 Frc consts  --      0.0567                 0.0838                 0.1456
 IR Inten    --      2.1822                13.0947                 4.5104

                      7                      8                      9
                      A                      A                      A
 Frequencies --    342.0099               346.7400               405.1375
 Red. masses --      1.7942                 1.6985                 1.9187
 Frc consts  --      0.1237                 0.1203                 0.1856
 IR Inten    --     36.1295                35.5076                41.9029

                     10                     11                     12
                      A                      A                      A
 Frequencies --    412.4734               508.8870               674.0237
 Red. masses --      4.1223                 3.3140                 3.4675
 Frc consts  --      0.4132                 0.5056                 0.9281
 IR Inten    --     10.7026                 6.6396                 9.7243

                     13                     14                     15
                      A                      A                      A
 Frequencies --    683.3585               834.7985               870.5118
 Red. masses --      2.8758                 1.6786                 1.8103
 Frc consts  --      0.7912                 0.6892                 0.8082
 IR Inten    --     16.9112                14.7450                 2.7449

                     16                     17                     18
                      A                      A                      A
 Frequencies --    879.6517               915.9960               929.9000
 Red. masses --      4.2049                 1.5021                 2.1988
 Frc consts  --      1.9170                 0.7426                 1.1202
 IR Inten    --      0.9654                 2.3382                 1.5427

                     19                     20                     21
                      A                      A                      A
 Frequencies --    985.5758              1000.2374              1008.8303
 Red. masses --      1.6572                 2.1031                 2.4232
 Frc consts  --      0.9485                 1.2397                 1.4530
 IR Inten    --     16.9836                 9.7909                33.9946

                     22                     23                     24
                      A                      A                      A
 Frequencies --   1053.7904              1090.5376              1099.3501
 Red. masses --      4.0283                 2.5936                 2.0960
 Frc consts  --      2.6356                 1.8173                 1.4925
 IR Inten    --     45.1873                 1.4452                36.7521

                     25                     26                     27
                      A                      A                      A
 Frequencies --   1154.3321              1192.0369              1196.5232
 Red. masses --      1.1859                 1.2022                 2.1234
 Frc consts  --      0.9310                 1.0065                 1.7911
 IR Inten    --      1.5518                13.2302                 9.6341

                     28                     29                     30
                      A                      A                      A
 Frequencies --   1212.8888              1276.8576              1288.8242
 Red. masses --      1.2971                 1.3685                 1.3476
 Frc consts  --      1.1243                 1.3145                 1.3188
 IR Inten    --      8.4217                 0.8914                 2.7574

                     31                     32                     33
                      A                      A                      A
 Frequencies --   1317.4832              1333.8449              1343.6353
 Red. masses --      1.2874                 1.7523                 1.8669
 Frc consts  --      1.3166                 1.8368                 1.9857
 IR Inten    --      1.7413                 2.2416                 1.1457

                     34                     35                     36
                      A                      A                      A
 Frequencies --   1376.7085              1415.1499              1427.5933
 Red. masses --      1.2988                 1.2340                 1.1974
 Frc consts  --      1.4504                 1.4560                 1.4378
 IR Inten    --      0.4516                64.7635                 3.7799

                     37                     38                     39
                      A                      A                      A
 Frequencies --   1483.2779              1490.4337              1498.3140
 Red. masses --      1.0800                 1.0940                 1.0895
 Frc consts  --      1.3999                 1.4318                 1.4411
 IR Inten    --      1.9726                 1.5431                 0.6501

                     40                     41                     42
                      A                      A                      A
 Frequencies --   1722.9826              1835.7494              2828.4539
 Red. masses --      7.2874                10.4235                 1.0807
 Frc consts  --     12.7462                20.6962                 5.0939
 IR Inten    --      6.7279               219.6588                97.5931

                     43                     44                     45
                      A                      A                      A
 Frequencies --   2993.2355              2994.2499              3015.6019
 Red. masses --      1.0712                 1.0650                 1.0676
 Frc consts  --      5.6547                 5.6258                 5.7202
 IR Inten    --     35.6335                56.1820                21.6382

                     46                     47                     48
                      A                      A                      A
 Frequencies --   3052.8416              3061.6015              3064.4218
 Red. masses --      1.0971                 1.0912                 1.0905
 Frc consts  --      6.0243                 6.0266                 6.0336
 IR Inten    --     21.7290                 8.6226                25.1299

                     49                     50                     51
                      A                      A                      A
 Frequencies --   3091.5887              3184.5266              3809.1984
 Red. masses --      1.0872                 1.0935                 1.0662
 Frc consts  --      6.1222                 6.5336                 9.1154
 IR Inten    --     25.8577                14.0213                15.4619

 - Thermochemistry -
 -------------------
 Temperature   298.150 Kelvin.  Pressure   1.00000 Atm.
 Atom     1 has atomic number  8 and mass  15.99491

 Molecular mass:   126.06808 amu.
 Principal axes and moments of inertia in atomic units:
                           1         2         3
     Eigenvalues --   502.783132107.051832437.85328
           X            0.99998   0.00425   0.00409
           Y           -0.00429   0.99993   0.01081
           Z           -0.00404  -0.01083   0.99993
 This molecule is an asymmetric top.
 Rotational symmetry number  1.
 Warning -- assumption of classical behavior for rotation
           may cause significant error
 Rotational temperatures (Kelvin)      0.17227     0.04111     0.03553
 Rotational constants (GHZ):           3.58950     0.85652     0.74030
 Zero-point vibrational energy     416620.4 (Joules/Mol)
                                   99.57466 (Kcal/Mol)
 Warning -- explicit consideration of  11 degrees of freedom as
           vibrations may cause significant error
 Vibrational temperatures:     78.74    97.97   124.86   232.24   384.40
          (Kelvin)            447.65   492.08   498.88   582.90   593.46
                              732.17   969.77   983.20  1201.09  1252.47
                             1265.62  1317.91  1337.92  1418.02  1439.12
                             1451.48  1516.17  1569.04  1581.72  1660.82
                             1715.07  1721.53  1745.07  1837.11  1854.33
                             1895.56  1919.10  1933.19  1980.77  2036.08
                             2053.99  2134.10  2144.40  2155.74  2478.98
                             2641.23  4069.51  4306.59  4308.05  4338.77
                             4392.35  4404.96  4409.01  4448.10  4581.82
                             5480.58

 Zero-point correction=                           0.158682 (Hartree/Particle)
 Thermal correction to Energy=                    0.167831
 Thermal correction to Enthalpy=                  0.168775
 Thermal correction to Gibbs Free Energy=         0.123636
 Sum of electronic and zero-point Energies=           -423.044081
 Sum of electronic and thermal Energies=              -423.034932
 Sum of electronic and thermal Enthalpies=            -423.033988
 Sum of electronic and thermal Free Energies=         -423.079127

                     E (Thermal)             CV                S
                      KCal/Mol        Cal/Mol-Kelvin    Cal/Mol-Kelvin
 Total                  105.316             32.986             95.004
 Electronic               0.000              0.000              0.000
 Translational            0.889              2.981             40.409
 Rotational               0.889              2.981             29.336
 Vibrational            103.538             27.024             25.259
 Vibration     1          0.596              1.976              4.639
 Vibration     2          0.598              1.969              4.208
 Vibration     3          0.601              1.958              3.731
 Vibration     4          0.622              1.890              2.533
 Vibration     5          0.672              1.733              1.614
 Vibration     6          0.700              1.652              1.356
 Vibration     7          0.721              1.592              1.203
 Vibration     8          0.725              1.582              1.181
 Vibration     9          0.770              1.459              0.944
 Vibration    10          0.776              1.443              0.918
 Vibration    11          0.864              1.230              0.636

 Optimization completed.
    -- Stationary point found.
 Normal termination of Gaussian 09 at Tue Jan 28 13:18:04 2020.
