 Gaussian 09, Revision D.01,
 Gaussian 09:  ES64L-G09RevD.01 24-Apr-2013

 -----------------------------
 # b3lyp 6-31G(2df,p) opt Freq
 -----------------------------

 -----
 titel
 -----
 Symbolic Z-matrix:
 Charge =  0 Multiplicity = 1

 SCF Done:  E(RB3LYP) =  -423.148824438     A.U. after   13 cycles
 Optimization completed.
    -- Stationary point found.
 Normal termination of Gaussian 09 at Tue Jan 28 02:55:28 2020.

 ----------------------------------------------------------------------
 #N Geom=AllCheck Guess=TCheck SCRF=Check GenChk RB3LYP/6-31G(2df,p) Fr
 eq
 ----------------------------------------------------------------------

 Structure from the checkpoint file:  "/scratch/puck/g09_897a74ba-b928-44e7-b579-60dc365a76f7/Gau-65432.chk"
 -----
 titel
 -----
 Charge =  0 Multiplicity = 1

                         Standard orientation:
 ---------------------------------------------------------------------
 Center     Atomic      Atomic             Coordinates (Angstroms)
 Number     Number       Type             X           Y           Z
 ---------------------------------------------------------------------
      1          6           0        2.407079    0.535264   -0.335082
      2          6           0        1.356730   -0.565737   -0.295538
      3          8           0        0.910006   -0.798933    1.063939
      4          6           0       -0.482110   -0.602876    0.971774
      5          6           0       -1.044690   -1.211999   -0.345248
      6          6           0       -2.107437   -0.092630   -0.416820
      7          6           0       -0.807256    0.612105    0.041360
      8          8           0       -0.569089    1.958541    0.251296
      9          6           0        0.020560   -0.244311   -0.965363
     10          1           0        1.988552    1.477052    0.027113
     11          1           0        3.262148    0.264061    0.290968
     12          1           0        2.768244    0.681198   -1.359000
     13          1           0        1.779077   -1.503543   -0.682830
     14          1           0       -0.971929   -0.751544    1.934546
     15          1           0       -1.168566   -2.267780   -0.572183
     16          1           0       -2.472119    0.167072   -1.413107
     17          1           0       -2.928862   -0.146694    0.304775
     18          1           0       -1.036440    2.234693    1.047127
     19          1           0       -0.004694   -0.010281   -2.029797
 ---------------------------------------------------------------------

 SCF Done:  E(RB3LYP) =  -423.148824438     A.U. after    1 cycles

 The electronic state is 1-A.
 Alpha  occ. eigenvalues --  -19.15086 -19.13077 -10.24431 -10.23227 -10.22540
 Alpha  occ. eigenvalues --  -10.19791 -10.19389 -10.18707 -10.16604  -1.04873
 Alpha  occ. eigenvalues --   -1.02657  -0.89330  -0.76037  -0.67742  -0.65230
 Alpha  occ. eigenvalues --   -0.62920  -0.57046  -0.55101  -0.53862  -0.48803
 Alpha  occ. eigenvalues --   -0.45596  -0.43054  -0.42006  -0.40580  -0.39455
 Alpha  occ. eigenvalues --   -0.37535  -0.36202  -0.34031  -0.33626  -0.32950
 Alpha  occ. eigenvalues --   -0.31398  -0.29790  -0.27547  -0.22734
 Alpha virt. eigenvalues --    0.07557   0.10760   0.11260   0.12756   0.13906
 Alpha virt. eigenvalues --    0.14945   0.15567   0.16400   0.16678   0.17192
 Alpha virt. eigenvalues --    0.17540   0.17853   0.19429   0.20144   0.22660

 Mulliken charges:
               1
     1  C   -0.407442
     2  C    0.107167
     3  O   -0.296626
     4  C    0.064771
     5  C   -0.103925
     6  C   -0.318458
     7  C    0.366068
     8  O   -0.472853
     9  C   -0.092167
    10  H    0.140400
    11  H    0.120616
    12  H    0.108328
    13  H    0.072810
    14  H    0.079247
    15  H    0.083447
    16  H    0.101066
    17  H    0.087495
    18  H    0.285235
    19  H    0.074822
 Sum of Mulliken charges =   0.00000

 Dipole moment (field-independent basis, Debye):
    X=             -1.4003    Y=             -0.0186    Z=             -0.2171  Tot=              1.4172
 Quadrupole moment (field-independent basis, Debye-Ang):
   XX=            -51.5643   YY=            -54.1181   ZZ=            -51.4705
   XY=             -0.7338   XZ=             -4.2467   YZ=              3.9454

  Exact polarizability:  86.008   0.918  69.528  -3.008   1.381  68.701
 Approx polarizability: 113.690  -0.389 106.482  -3.540   1.128 108.657

                      1                      2                      3
                      A                      A                      A
 Frequencies --    152.9493               195.6487               235.7172
 Red. masses --      3.5348                 1.4702                 1.2052
 Frc consts  --      0.0487                 0.0332                 0.0395
 IR Inten    --      2.9981                30.7708                 1.8159

                      4                      5                      6
                      A                      A                      A
 Frequencies --    242.5118               305.0196               372.9526
 Red. masses --      1.4784                 4.6882                 2.9745
 Frc consts  --      0.0512                 0.2570                 0.2438
 IR Inten    --     61.9632                 4.7445                 7.8244

                      7                      8                      9
                      A                      A                      A
 Frequencies --    424.5904               481.2723               501.5380
 Red. masses --      2.3150                 3.3241                 3.4875
 Frc consts  --      0.2459                 0.4536                 0.5169
 IR Inten    --      2.7981                 1.9713                 1.7600

                     10                     11                     12
                      A                      A                      A
 Frequencies --    671.0166               694.6087               741.1838
 Red. masses --      4.0472                 4.0958                 4.4512
 Frc consts  --      1.0737                 1.1643                 1.4407
 IR Inten    --      7.4587                 8.0224                10.1787

                     13                     14                     15
                      A                      A                      A
 Frequencies --    769.1607               835.9203               848.6909
 Red. masses --      3.2187                 2.8520                 2.8486
 Frc consts  --      1.1219                 1.1742                 1.2089
 IR Inten    --      3.3407                 5.7362                18.2673

                     16                     17                     18
                      A                      A                      A
 Frequencies --    897.7909               927.1790               936.3743
 Red. masses --      2.1165                 1.6057                 2.0817
 Frc consts  --      1.0051                 0.8133                 1.0754
 IR Inten    --      0.2824                 2.1752                 1.7446

                     19                     20                     21
                      A                      A                      A
 Frequencies --    996.5417              1012.0454              1028.3998
 Red. masses --      2.4586                 1.8531                 2.2722
 Frc consts  --      1.4385                 1.1183                 1.4158
 IR Inten    --     21.0205                16.2233                 1.1110

                     22                     23                     24
                      A                      A                      A
 Frequencies --   1037.6133              1049.8623              1095.7073
 Red. masses --      1.2200                 1.8353                 2.9183
 Frc consts  --      0.7739                 1.1918                 2.0643
 IR Inten    --      8.9741                14.1840                77.3544

                     25                     26                     27
                      A                      A                      A
 Frequencies --   1103.8521              1111.8383              1127.6512
 Red. masses --      1.5177                 1.6477                 1.6232
 Frc consts  --      1.0896                 1.2001                 1.2161
 IR Inten    --     27.1482                14.2796                 3.1866

                     28                     29                     30
                      A                      A                      A
 Frequencies --   1141.2384              1190.0698              1211.7689
 Red. masses --      2.1782                 1.5627                 1.8975
 Frc consts  --      1.6715                 1.3040                 1.6417
 IR Inten    --      1.3502                17.4811                13.3238

                     31                     32                     33
                      A                      A                      A
 Frequencies --   1218.2712              1276.9030              1288.6658
 Red. masses --      1.8998                 1.4710                 2.3591
 Frc consts  --      1.6613                 1.4132                 2.3082
 IR Inten    --      0.6856                 4.9196               130.1988

                     34                     35                     36
                      A                      A                      A
 Frequencies --   1315.4363              1337.0020              1387.5062
 Red. masses --      1.6132                 1.6918                 1.4280
 Frc consts  --      1.6446                 1.7818                 1.6198
 IR Inten    --     52.5100                19.8248                15.6250

                     37                     38                     39
                      A                      A                      A
 Frequencies --   1400.1279              1408.7857              1490.0125
 Red. masses --      1.9703                 1.3315                 1.0537
 Frc consts  --      2.2758                 1.5570                 1.3783
 IR Inten    --     31.2434                11.2333                 2.1560

                     40                     41                     42
                      A                      A                      A
 Frequencies --   1500.6657              1521.5917              3003.9080
 Red. masses --      1.0503                 1.1912                 1.0845
 Frc consts  --      1.3936                 1.6249                 5.7657
 IR Inten    --      2.2663                 6.6541                50.8656

                     43                     44                     45
                      A                      A                      A
 Frequencies --   3039.9432              3047.8033              3106.7613
 Red. masses --      1.0366                 1.0568                 1.0999
 Frc consts  --      5.6442                 5.7839                 6.2550
 IR Inten    --     26.3893                49.2094                16.4724

                     46                     47                     48
                      A                      A                      A
 Frequencies --   3115.2535              3120.9487              3123.8508
 Red. masses --      1.1078                 1.0882                 1.0897
 Frc consts  --      6.3345                 6.2449                 6.2651
 IR Inten    --     15.5726                72.3432                 8.1251

                     49                     50                     51
                      A                      A                      A
 Frequencies --   3135.8503              3153.5633              3807.8526
 Red. masses --      1.1018                 1.0944                 1.0658
 Frc consts  --      6.3833                 6.4124                 9.1055
 IR Inten    --     13.1444                25.6369                31.4510

 - Thermochemistry -
 -------------------
 Temperature   298.150 Kelvin.  Pressure   1.00000 Atm.
 Atom     1 has atomic number  6 and mass  12.00000

 Molecular mass:   126.06808 amu.
 Principal axes and moments of inertia in atomic units:
                           1         2         3
     Eigenvalues --   654.085821044.034951260.65591
           X            0.99905   0.03822  -0.02071
           Y           -0.03751   0.99873   0.03349
           Z            0.02196  -0.03269   0.99922
 This molecule is an asymmetric top.
 Rotational symmetry number  1.
 Warning -- assumption of classical behavior for rotation
           may cause significant error
 Rotational temperatures (Kelvin)      0.13242     0.08296     0.06871
 Rotational constants (GHZ):           2.75918     1.72862     1.43159
 Zero-point vibrational energy     419538.8 (Joules/Mol)
                                  100.27219 (Kcal/Mol)
 Warning -- explicit consideration of   9 degrees of freedom as
           vibrations may cause significant error
 Vibrational temperatures:    220.06   281.49   339.14   348.92   438.85
          (Kelvin)            536.59   610.89   692.44   721.60   965.44
                              999.39  1066.40  1106.65  1202.70  1221.08
                             1291.72  1334.00  1347.23  1433.80  1456.11
                             1479.64  1492.89  1510.52  1576.48  1588.19
                             1599.69  1622.44  1641.99  1712.24  1743.46
                             1752.82  1837.18  1854.10  1892.62  1923.65
                             1996.31  2014.47  2026.93  2143.79  2159.12
                             2189.23  4321.95  4373.79  4385.10  4469.93
                             4482.15  4490.34  4494.52  4511.78  4537.27
                             5478.64

 Zero-point correction=                           0.159794 (Hartree/Particle)
 Thermal correction to Energy=                    0.167458
 Thermal correction to Enthalpy=                  0.168402
 Thermal correction to Gibbs Free Energy=         0.128160
 Sum of electronic and zero-point Energies=           -422.989031
 Sum of electronic and thermal Energies=              -422.981366
 Sum of electronic and thermal Enthalpies=            -422.980422
 Sum of electronic and thermal Free Energies=         -423.020665

                     E (Thermal)             CV                S
                      KCal/Mol        Cal/Mol-Kelvin    Cal/Mol-Kelvin
 Total                  105.082             31.001             84.698
 Electronic               0.000              0.000              0.000
 Translational            0.889              2.981             40.409
 Rotational               0.889              2.981             28.245
 Vibrational            103.304             25.039             16.045
 Vibration     1          0.619              1.899              2.635
 Vibration     2          0.636              1.846              2.174
 Vibration     3          0.655              1.786              1.835
 Vibration     4          0.659              1.775              1.784
 Vibration     5          0.696              1.664              1.389
 Vibration     6          0.744              1.528              1.068
 Vibration     7          0.787              1.417              0.877
 Vibration     8          0.838              1.292              0.707
 Vibration     9          0.857              1.247              0.654

 Optimization completed.
    -- Stationary point found.
 Normal termination of Gaussian 09 at Tue Jan 28 03:51:02 2020.
