 Gaussian 09, Revision D.01,
 Gaussian 09:  ES64L-G09RevD.01 24-Apr-2013

 -----------------------------
 # b3lyp 6-31G(2df,p) opt Freq
 -----------------------------

 -----
 titel
 -----
 Symbolic Z-matrix:
 Charge =  0 Multiplicity = 1

 SCF Done:  E(RB3LYP) =  -423.209810303     A.U. after   14 cycles
 SCF Done:  E(RB3LYP) =  -423.209811348     A.U. after    7 cycles
 SCF Done:  E(RB3LYP) =  -423.209811105     A.U. after    8 cycles
 SCF Done:  E(RB3LYP) =  -423.209812521     A.U. after    8 cycles
 SCF Done:  E(RB3LYP) =  -423.209812975     A.U. after    7 cycles
 SCF Done:  E(RB3LYP) =  -423.209813231     A.U. after    7 cycles
 Optimization completed.
    -- Stationary point found.
 Normal termination of Gaussian 09 at Mon Jan 27 17:35:24 2020.

 ----------------------------------------------------------------------
 #N Geom=AllCheck Guess=TCheck SCRF=Check GenChk RB3LYP/6-31G(2df,p) Fr
 eq
 ----------------------------------------------------------------------

 Structure from the checkpoint file:  "/scratch/puck/g09_ac4987a1-bfa8-4ef3-a117-89eeed28ef5b/Gau-86310.chk"
 -----
 titel
 -----
 Charge =  0 Multiplicity = 1

                         Standard orientation:
 ---------------------------------------------------------------------
 Center     Atomic      Atomic             Coordinates (Angstroms)
 Number     Number       Type             X           Y           Z
 ---------------------------------------------------------------------
      1          8           0       -2.590042    0.040630   -0.144298
      2          6           0       -1.192205    0.017414   -0.022218
      3          6           0       -0.491796   -0.941070   -1.006556
      4          6           0        0.582486   -1.156698    0.109385
      5          6           0       -0.533339   -0.790761    1.135926
      6          6           0        1.585761   -0.028815    0.004631
      7          8           0        2.771948   -0.199267   -0.142578
      8          6           0        0.969515    1.373845    0.113550
      9          6           0       -0.561937    1.414372   -0.118540
     10          1           0       -2.938325    0.732535    0.428630
     11          1           0       -1.085394   -1.846155   -1.152118
     12          1           0       -0.171167   -0.548824   -1.975638
     13          1           0        1.084308   -2.120702    0.177121
     14          1           0       -1.136790   -1.667637    1.380855
     15          1           0       -0.249736   -0.269005    2.054710
     16          1           0        1.208544    1.717537    1.127508
     17          1           0        1.512999    2.040383   -0.559897
     18          1           0       -1.033986    2.073516    0.621813
     19          1           0       -0.796599    1.827729   -1.105047
 ---------------------------------------------------------------------

 SCF Done:  E(RB3LYP) =  -423.209813231     A.U. after    1 cycles

 The electronic state is 1-A.
 Alpha  occ. eigenvalues --  -19.14589 -19.12303 -10.26473 -10.24777 -10.19845
 Alpha  occ. eigenvalues --  -10.19671 -10.19534 -10.19260 -10.19129  -1.03546
 Alpha  occ. eigenvalues --   -1.03172  -0.87374  -0.77229  -0.70468  -0.67472
 Alpha  occ. eigenvalues --   -0.63062  -0.57867  -0.53491  -0.50829  -0.47715
 Alpha  occ. eigenvalues --   -0.45668  -0.44604  -0.43478  -0.41597  -0.39986
 Alpha  occ. eigenvalues --   -0.39318  -0.38628  -0.36154  -0.34731  -0.34173
 Alpha  occ. eigenvalues --   -0.32174  -0.30740  -0.26804  -0.23673
 Alpha virt. eigenvalues --   -0.00889   0.06372   0.08223   0.10497   0.11298
 Alpha virt. eigenvalues --    0.13263   0.14091   0.15378   0.16818   0.17598
 Alpha virt. eigenvalues --    0.18582   0.19123   0.20012   0.20628   0.21878

 Mulliken charges:
               1
     1  O   -0.485482
     2  C    0.426870
     3  C   -0.264036
     4  C   -0.123567
     5  C   -0.302524
     6  C    0.415050
     7  O   -0.330512
     8  C   -0.324765
     9  C   -0.282507
    10  H    0.275938
    11  H    0.118619
    12  H    0.104564
    13  H    0.087642
    14  H    0.114723
    15  H    0.094496
    16  H    0.136814
    17  H    0.132894
    18  H    0.089851
    19  H    0.115933
 Sum of Mulliken charges =   0.00000

 Dipole moment (field-independent basis, Debye):
    X=             -2.3664    Y=              1.3260    Z=              1.1190  Tot=              2.9344
 Quadrupole moment (field-independent basis, Debye-Ang):
   XX=            -65.4193   YY=            -49.5121   ZZ=            -51.2403
   XY=             -1.1660   XZ=             -2.0181   YZ=              0.7581

  Exact polarizability:  84.150  -0.834  74.609  -1.532   0.905  65.185
 Approx polarizability: 124.899  -2.681 105.368  -2.698   2.441 100.917

                      1                      2                      3
                      A                      A                      A
 Frequencies --     76.5596               172.0995               254.6999
 Red. masses --      3.4001                 2.3493                 1.1133
 Frc consts  --      0.0117                 0.0410                 0.0426
 IR Inten    --      4.0045                 1.1544                68.4302

                      4                      5                      6
                      A                      A                      A
 Frequencies --    307.3588               331.9074               408.7159
 Red. masses --      3.3981                 2.3547                 6.6017
 Frc consts  --      0.1891                 0.1528                 0.6498
 IR Inten    --     27.2967                 1.1290                 0.1408

                      7                      8                      9
                      A                      A                      A
 Frequencies --    419.5642               436.6214               468.8659
 Red. masses --      2.7264                 3.2279                 3.1719
 Frc consts  --      0.2828                 0.3626                 0.4108
 IR Inten    --      4.5807                16.8000                 4.1998

                     10                     11                     12
                      A                      A                      A
 Frequencies --    537.6455               601.5469               671.1316
 Red. masses --      2.2302                 3.4035                 3.7718
 Frc consts  --      0.3798                 0.7256                 1.0010
 IR Inten    --      1.8896                 1.1537                 2.8410

                     13                     14                     15
                      A                      A                      A
 Frequencies --    725.1727               800.5123               866.7011
 Red. masses --      3.3409                 1.7677                 1.7904
 Frc consts  --      1.0351                 0.6674                 0.7924
 IR Inten    --      6.3468                 1.1602                 0.2144

                     16                     17                     18
                      A                      A                      A
 Frequencies --    890.3193               913.7832               942.2544
 Red. masses --      3.1763                 1.7283                 2.1239
 Frc consts  --      1.4834                 0.8503                 1.1110
 IR Inten    --      5.4282                 0.7468                10.7816

                     19                     20                     21
                      A                      A                      A
 Frequencies --    952.2556               972.8921              1019.2689
 Red. masses --      2.7521                 2.1175                 2.2867
 Frc consts  --      1.4704                 1.1809                 1.3997
 IR Inten    --      7.6483                19.4970                13.7017

                     22                     23                     24
                      A                      A                      A
 Frequencies --   1041.3859              1049.4289              1083.7392
 Red. masses --      1.8366                 1.1408                 1.9418
 Frc consts  --      1.1735                 0.7402                 1.3437
 IR Inten    --     14.7154                 3.3514                10.8727

                     25                     26                     27
                      A                      A                      A
 Frequencies --   1148.7184              1173.1271              1202.1826
 Red. masses --      1.6465                 1.5664                 1.4584
 Frc consts  --      1.2801                 1.2701                 1.2418
 IR Inten    --     88.1080                13.6815                 7.2590

                     28                     29                     30
                      A                      A                      A
 Frequencies --   1207.7490              1240.9471              1248.5156
 Red. masses --      2.1520                 1.4424                 1.3767
 Frc consts  --      1.8495                 1.3087                 1.2644
 IR Inten    --     24.1926                 9.9342                16.5101

                     31                     32                     33
                      A                      A                      A
 Frequencies --   1259.1195              1273.8518              1310.9452
 Red. masses --      1.6225                 1.8413                 1.4956
 Frc consts  --      1.5155                 1.7604                 1.5144
 IR Inten    --      1.5525                38.0358                20.5891

                     34                     35                     36
                      A                      A                      A
 Frequencies --   1321.3225              1359.0300              1393.6567
 Red. masses --      1.8561                 1.7622                 1.7252
 Frc consts  --      1.9092                 1.9176                 1.9742
 IR Inten    --      8.6547                27.9165                14.6729

                     37                     38                     39
                      A                      A                      A
 Frequencies --   1455.0459              1478.0584              1492.7595
 Red. masses --      1.0789                 1.0881                 1.0934
 Frc consts  --      1.3458                 1.4006                 1.4356
 IR Inten    --      6.4596                 4.6904                 4.5890

                     40                     41                     42
                      A                      A                      A
 Frequencies --   1515.1220              1821.9291              3016.7358
 Red. masses --      1.1366                11.9831                 1.0656
 Frc consts  --      1.5373                23.4359                 5.7138
 IR Inten    --      1.9751               223.0889                44.5631

                     43                     44                     45
                      A                      A                      A
 Frequencies --   3042.8276              3053.6262              3060.0234
 Red. masses --      1.0683                 1.0586                 1.0597
 Frc consts  --      5.8279                 5.8160                 5.8464
 IR Inten    --      5.5926                46.5209                 7.7556

                     46                     47                     48
                      A                      A                      A
 Frequencies --   3071.5993              3108.0495              3117.6654
 Red. masses --      1.0962                 1.0949                 1.1067
 Frc consts  --      6.0933                 6.2319                 6.3378
 IR Inten    --     20.9297                11.7121                14.3128

                     49                     50                     51
                      A                      A                      A
 Frequencies --   3121.3946              3129.0169              3802.0184
 Red. masses --      1.1064                 1.0912                 1.0658
 Frc consts  --      6.3515                 6.2944                 9.0771
 IR Inten    --     13.3022                25.8902                15.3412

 - Thermochemistry -
 -------------------
 Temperature   298.150 Kelvin.  Pressure   1.00000 Atm.
 Atom     1 has atomic number  8 and mass  15.99491

 Molecular mass:   126.06808 amu.
 Principal axes and moments of inertia in atomic units:
                           1         2         3
     Eigenvalues --   541.668291301.300131531.26408
           X            0.99998   0.00521  -0.00297
           Y           -0.00520   0.99997   0.00570
           Z            0.00300  -0.00568   0.99998
 This molecule is an asymmetric top.
 Rotational symmetry number  1.
 Warning -- assumption of classical behavior for rotation
           may cause significant error
 Rotational temperatures (Kelvin)      0.15990     0.06656     0.05656
 Rotational constants (GHZ):           3.33182     1.38688     1.17860
 Zero-point vibrational energy     420902.9 (Joules/Mol)
                                  100.59820 (Kcal/Mol)
 Warning -- explicit consideration of  11 degrees of freedom as
           vibrations may cause significant error
 Vibrational temperatures:    110.15   247.61   366.46   442.22   477.54
          (Kelvin)            588.05   603.66   628.20   674.59   773.55
                              865.49   965.61  1043.36  1151.76  1246.99
                             1280.97  1314.73  1355.69  1370.08  1399.77
                             1466.50  1498.32  1509.89  1559.26  1652.75
                             1687.87  1729.67  1737.68  1785.44  1796.33
                             1811.59  1832.79  1886.16  1901.09  1955.34
                             2005.16  2093.48  2126.59  2147.75  2179.92
                             2621.35  4340.40  4377.94  4393.48  4402.69
                             4419.34  4471.78  4485.62  4490.98  4501.95
                             5470.25

 Zero-point correction=                           0.160313 (Hartree/Particle)
 Thermal correction to Energy=                    0.168191
 Thermal correction to Enthalpy=                  0.169135
 Thermal correction to Gibbs Free Energy=         0.128095
 Sum of electronic and zero-point Energies=           -423.049500
 Sum of electronic and thermal Energies=              -423.041622
 Sum of electronic and thermal Enthalpies=            -423.040678
 Sum of electronic and thermal Free Energies=         -423.081718

                     E (Thermal)             CV                S
                      KCal/Mol        Cal/Mol-Kelvin    Cal/Mol-Kelvin
 Total                  105.541             31.473             86.375
 Electronic               0.000              0.000              0.000
 Translational            0.889              2.981             40.409
 Rotational               0.889              2.981             28.469
 Vibrational            103.764             25.511             17.497
 Vibration     1          0.599              1.965              3.977
 Vibration     2          0.626              1.877              2.412
 Vibration     3          0.665              1.755              1.698
 Vibration     4          0.697              1.660              1.377
 Vibration     5          0.714              1.612              1.251
 Vibration     6          0.773              1.451              0.931
 Vibration     7          0.782              1.428              0.893
 Vibration     8          0.797              1.390              0.837
 Vibration     9          0.826              1.319              0.741
 Vibration    10          0.893              1.167              0.570
 Vibration    11          0.960              1.029              0.447

 Optimization completed.
    -- Stationary point found.
 Normal termination of Gaussian 09 at Mon Jan 27 18:24:17 2020.
