 Gaussian 09, Revision D.01,
 Gaussian 09:  ES64L-G09RevD.01 24-Apr-2013

 -----------------------------
 # b3lyp 6-31G(2df,p) opt Freq
 -----------------------------

 -----
 titel
 -----
 Symbolic Z-matrix:
 Charge =  0 Multiplicity = 1

 SCF Done:  E(RB3LYP) =  -423.255958500     A.U. after   14 cycles
 Optimization completed.
    -- Stationary point found.
 Normal termination of Gaussian 09 at Tue Jan 28 12:09:16 2020.

 ----------------------------------------------------------------------
 #N Geom=AllCheck Guess=TCheck SCRF=Check GenChk RB3LYP/6-31G(2df,p) Fr
 eq
 ----------------------------------------------------------------------

 Structure from the checkpoint file:  "/scratch/puck/g09_6d9f63b4-6126-4bd6-b00a-56100a7ffb7f/Gau-128753.chk"
 -----
 titel
 -----
 Charge =  0 Multiplicity = 1

                         Standard orientation:
 ---------------------------------------------------------------------
 Center     Atomic      Atomic             Coordinates (Angstroms)
 Number     Number       Type             X           Y           Z
 ---------------------------------------------------------------------
      1          6           0        2.505193    0.837227    0.624888
      2          6           0        1.510379    0.896125   -0.548478
      3          6           0        0.213208    0.215502   -0.239739
      4          6           0       -1.019198    0.701287   -0.035947
      5          6           0       -1.517701    2.107497   -0.057239
      6          6           0       -1.944981   -0.453496    0.243977
      7          8           0       -1.138496   -1.624022    0.181081
      8          6           0        0.154241   -1.263776   -0.107932
      9          8           0        1.036098   -2.070469   -0.223601
     10          1           0        3.450398    1.315023    0.350822
     11          1           0        2.106847    1.350721    1.505749
     12          1           0        2.710974   -0.201191    0.895121
     13          1           0        1.328988    1.936915   -0.836278
     14          1           0        1.961396    0.398339   -1.415149
     15          1           0       -1.942420    2.387423    0.914795
     16          1           0       -0.723663    2.817685   -0.296640
     17          1           0       -2.319307    2.228882   -0.796155
     18          1           0       -2.408751   -0.387964    1.237339
     19          1           0       -2.752124   -0.532100   -0.496622
 ---------------------------------------------------------------------

 SCF Done:  E(RB3LYP) =  -423.255958500     A.U. after    1 cycles

 The electronic state is 1-A.
 Alpha  occ. eigenvalues --  -19.17506 -19.11411 -10.29368 -10.25268 -10.21775
 Alpha  occ. eigenvalues --  -10.20646 -10.19992 -10.19471 -10.17669  -1.09386
 Alpha  occ. eigenvalues --   -1.01381  -0.83984  -0.77630  -0.72153  -0.71329
 Alpha  occ. eigenvalues --   -0.63228  -0.56783  -0.55110  -0.49791  -0.48773
 Alpha  occ. eigenvalues --   -0.46225  -0.43766  -0.43214  -0.43024  -0.41223
 Alpha  occ. eigenvalues --   -0.40119  -0.39386  -0.37663  -0.35749  -0.35044
 Alpha  occ. eigenvalues --   -0.34268  -0.29332  -0.26262  -0.26138
 Alpha virt. eigenvalues --   -0.03094   0.07285   0.08212   0.10218   0.11925
 Alpha virt. eigenvalues --    0.13239   0.14493   0.14935   0.15736   0.16102
 Alpha virt. eigenvalues --    0.17105   0.18166   0.18628   0.20633   0.22512

 Mulliken charges:
               1
     1  C   -0.379711
     2  C   -0.296287
     3  C    0.057866
     4  C    0.172581
     5  C   -0.499654
     6  C   -0.166504
     7  O   -0.231244
     8  C    0.413800
     9  O   -0.357356
    10  H    0.115121
    11  H    0.112524
    12  H    0.151525
    13  H    0.099944
    14  H    0.126980
    15  H    0.140960
    16  H    0.141077
    17  H    0.140066
    18  H    0.129123
    19  H    0.129188
 Sum of Mulliken charges =   0.00000

 Dipole moment (field-independent basis, Debye):
    X=             -2.2708    Y=              4.3168    Z=              0.1450  Tot=              4.8798
 Quadrupole moment (field-independent basis, Debye-Ang):
   XX=            -49.4189   YY=            -60.1207   ZZ=            -52.2573
   XY=              1.3826   XZ=             -0.2900   YZ=             -0.4874

  Exact polarizability: 101.479  -8.872  80.837  -4.036   0.420  56.917
 Approx polarizability: 152.360 -24.354 119.997 -10.318   2.390  86.917

                      1                      2                      3
                      A                      A                      A
 Frequencies --     58.9087               119.9375               131.4561
 Red. masses --      2.3700                 4.2823                 1.0557
 Frc consts  --      0.0048                 0.0363                 0.0107
 IR Inten    --      1.3750                 1.1409                 0.1217

                      4                      5                      6
                      A                      A                      A
 Frequencies --    179.2958               207.1081               238.3234
 Red. masses --      3.2960                 1.3525                 2.8684
 Frc consts  --      0.0624                 0.0342                 0.0960
 IR Inten    --      0.8634                 1.0619                 1.9039

                      7                      8                      9
                      A                      A                      A
 Frequencies --    278.9960               301.1223               377.2760
 Red. masses --      1.9565                 2.3367                 2.7680
 Frc consts  --      0.0897                 0.1248                 0.2321
 IR Inten    --      0.3841                 3.2727                 1.8541

                     10                     11                     12
                      A                      A                      A
 Frequencies --    517.3498               541.5623               577.9523
 Red. masses --      4.3203                 4.1147                 4.0897
 Frc consts  --      0.6813                 0.7110                 0.8049
 IR Inten    --      3.2748                 1.3707                 4.2804

                     13                     14                     15
                      A                      A                      A
 Frequencies --    663.2289               751.7870               775.6098
 Red. masses --      4.9593                 4.5404                 1.8129
 Frc consts  --      1.2853                 1.5119                 0.6426
 IR Inten    --      1.3464                 1.8321                 6.7649

                     16                     17                     18
                      A                      A                      A
 Frequencies --    801.4925               918.9390               951.4547
 Red. masses --      3.1470                 2.1208                 2.1764
 Frc consts  --      1.1911                 1.0552                 1.1608
 IR Inten    --      7.3920                11.3990                18.1054

                     19                     20                     21
                      A                      A                      A
 Frequencies --    961.7134               998.3308              1067.8960
 Red. masses --      1.4109                 2.0590                 5.0831
 Frc consts  --      0.7689                 1.2091                 3.4153
 IR Inten    --      2.3852                 3.3411                97.2641

                     22                     23                     24
                      A                      A                      A
 Frequencies --   1082.6021              1088.3459              1102.6596
 Red. masses --      1.9409                 2.1723                 2.7043
 Frc consts  --      1.3403                 1.5160                 1.9372
 IR Inten    --      6.5788                 8.1713                52.3305

                     25                     26                     27
                      A                      A                      A
 Frequencies --   1146.6566              1198.8481              1205.5872
 Red. masses --      2.1852                 2.8401                 1.1009
 Frc consts  --      1.6928                 2.4050                 0.9427
 IR Inten    --      0.8709                12.5422                 0.1146

                     28                     29                     30
                      A                      A                      A
 Frequencies --   1290.7866              1339.0345              1355.0118
 Red. masses --      1.3341                 1.8666                 1.8126
 Frc consts  --      1.3096                 1.9719                 1.9609
 IR Inten    --      5.9954                11.4293                27.1852

                     31                     32                     33
                      A                      A                      A
 Frequencies --   1378.0758              1405.2538              1416.9058
 Red. masses --      1.7542                 1.2190                 1.3968
 Frc consts  --      1.9628                 1.4183                 1.6522
 IR Inten    --      5.7064                 2.5212                 7.9050

                     34                     35                     36
                      A                      A                      A
 Frequencies --   1473.9291              1479.8868              1486.7275
 Red. masses --      1.0786                 1.0435                 1.0624
 Frc consts  --      1.3806                 1.3465                 1.3836
 IR Inten    --      1.3802                 7.0697                 5.1474

                     37                     38                     39
                      A                      A                      A
 Frequencies --   1496.6741              1497.3742              1511.7489
 Red. masses --      1.0834                 1.0522                 1.0596
 Frc consts  --      1.4299                 1.3900                 1.4268
 IR Inten    --      5.2627                 5.5035                 4.3908

                     40                     41                     42
                      A                      A                      A
 Frequencies --   1734.0852              1855.9281              3014.2162
 Red. masses --      8.5643                12.7743                 1.0555
 Frc consts  --     15.1734                25.9245                 5.6503
 IR Inten    --     26.7571               385.9262                28.1218

                     43                     44                     45
                      A                      A                      A
 Frequencies --   3026.1152              3035.9522              3041.8470
 Red. masses --      1.0404                 1.0590                 1.0362
 Frc consts  --      5.6131                 5.7507                 5.6488
 IR Inten    --     31.3248                16.1946                28.7388

                     46                     47                     48
                      A                      A                      A
 Frequencies --   3045.6799              3072.7398              3075.6562
 Red. masses --      1.1058                 1.0985                 1.1010
 Frc consts  --      6.0435                 6.1106                 6.1366
 IR Inten    --     16.3816                13.2893                12.1428

                     49                     50                     51
                      A                      A                      A
 Frequencies --   3110.2021              3127.2345              3132.2441
 Red. masses --      1.1022                 1.0980                 1.1017
 Frc consts  --      6.2817                 6.3264                 6.3682
 IR Inten    --     32.7180                10.5938                17.7527

 - Thermochemistry -
 -------------------
 Temperature   298.150 Kelvin.  Pressure   1.00000 Atm.
 Atom     1 has atomic number  6 and mass  12.00000

 Molecular mass:   126.06808 amu.
 Principal axes and moments of inertia in atomic units:
                           1         2         3
     Eigenvalues --   915.742461072.045611841.36457
           X            0.99979   0.01980   0.00613
           Y           -0.01979   0.99980  -0.00189
           Z           -0.00616   0.00177   0.99998
 This molecule is an asymmetric top.
 Rotational symmetry number  1.
 Warning -- assumption of classical behavior for rotation
           may cause significant error
 Rotational temperatures (Kelvin)      0.09458     0.08079     0.04704
 Rotational constants (GHZ):           1.97080     1.68346     0.98011
 Zero-point vibrational energy     416586.1 (Joules/Mol)
                                   99.56646 (Kcal/Mol)
 Warning -- explicit consideration of  12 degrees of freedom as
           vibrations may cause significant error
 Vibrational temperatures:     84.76   172.56   189.14   257.97   297.98
          (Kelvin)            342.89   401.41   433.25   542.82   744.35
                              779.19   831.54   954.24  1081.65  1115.93
                             1153.17  1322.15  1368.93  1383.69  1436.37
                             1536.46  1557.62  1565.89  1586.48  1649.78
                             1724.87  1734.57  1857.15  1926.57  1949.56
                             1982.74  2021.84  2038.61  2120.65  2129.22
                             2139.07  2153.38  2154.38  2175.07  2494.96
                             2670.26  4336.78  4353.90  4368.05  4376.53
                             4382.05  4420.98  4425.18  4474.88  4499.39
                             4506.60

 Zero-point correction=                           0.158669 (Hartree/Particle)
 Thermal correction to Energy=                    0.167921
 Thermal correction to Enthalpy=                  0.168865
 Thermal correction to Gibbs Free Energy=         0.124256
 Sum of electronic and zero-point Energies=           -423.097289
 Sum of electronic and thermal Energies=              -423.088037
 Sum of electronic and thermal Enthalpies=            -423.087093
 Sum of electronic and thermal Free Energies=         -423.131702

                     E (Thermal)             CV                S
                      KCal/Mol        Cal/Mol-Kelvin    Cal/Mol-Kelvin
 Total                  105.372             33.367             93.888
 Electronic               0.000              0.000              0.000
 Translational            0.889              2.981             40.409
 Rotational               0.889              2.981             28.982
 Vibrational            103.595             27.405             24.497
 Vibration     1          0.596              1.974              4.493
 Vibration     2          0.609              1.933              3.101
 Vibration     3          0.612              1.922              2.925
 Vibration     4          0.629              1.868              2.336
 Vibration     5          0.641              1.830              2.069
 Vibration     6          0.656              1.782              1.815
 Vibration     7          0.679              1.712              1.540
 Vibration     8          0.693              1.672              1.411
 Vibration     9          0.748              1.519              1.050
 Vibration    10          0.872              1.212              0.616
 Vibration    11          0.897              1.158              0.562
 Vibration    12          0.934              1.079              0.489

 Optimization completed.
    -- Stationary point found.
 Normal termination of Gaussian 09 at Tue Jan 28 12:59:24 2020.
