 Gaussian 09, Revision D.01,
 Gaussian 09:  ES64L-G09RevD.01 24-Apr-2013

 -----------------------------
 # b3lyp 6-31G(2df,p) opt Freq
 -----------------------------

 -----
 titel
 -----
 Symbolic Z-matrix:
 Charge =  0 Multiplicity = 1

 SCF Done:  E(RB3LYP) =  -423.200688088     A.U. after   14 cycles
 Optimization completed.
    -- Stationary point found.
 Normal termination of Gaussian 09 at Mon Jan 27 13:08:14 2020.

 ----------------------------------------------------------------------
 #N Geom=AllCheck Guess=TCheck SCRF=Check GenChk RB3LYP/6-31G(2df,p) Fr
 eq
 ----------------------------------------------------------------------

 Structure from the checkpoint file:  "/scratch/puck/g09_fe2f698b-009f-41d9-b56a-6c142dc41c7d/Gau-74487.chk"
 -----
 titel
 -----
 Charge =  0 Multiplicity = 1

                         Standard orientation:
 ---------------------------------------------------------------------
 Center     Atomic      Atomic             Coordinates (Angstroms)
 Number     Number       Type             X           Y           Z
 ---------------------------------------------------------------------
      1          8           0        0.835786    2.047849   -0.262805
      2          6           0        0.144140    1.071387   -0.070990
      3          6           0       -1.328948    1.186463    0.304439
      4          6           0       -2.157404   -0.024258   -0.143951
      5          8           0       -1.548598   -1.235429    0.264395
      6          6           0       -0.313307   -1.427551   -0.397017
      7          6           0        0.692748   -0.327191   -0.090196
      8          6           0        1.796108   -0.580211    0.936110
      9          6           0        2.126148   -0.505661   -0.521721
     10          1           0       -1.363539    1.245509    1.400587
     11          1           0       -1.724106    2.127444   -0.088061
     12          1           0       -3.152818   -0.003126    0.307538
     13          1           0       -2.284549   -0.014711   -1.239694
     14          1           0        0.069958   -2.400737   -0.075418
     15          1           0       -0.481544   -1.477071   -1.487050
     16          1           0        2.087230    0.254212    1.564160
     17          1           0        1.793846   -1.547684    1.427510
     18          1           0        2.627615    0.384975   -0.881512
     19          1           0        2.373492   -1.426032   -1.040824
 ---------------------------------------------------------------------

 SCF Done:  E(RB3LYP) =  -423.200688088     A.U. after    1 cycles

 The electronic state is 1-A.
 Alpha  occ. eigenvalues --  -19.14885 -19.12613 -10.26866 -10.23922 -10.23915
 Alpha  occ. eigenvalues --  -10.20487 -10.20112 -10.19413 -10.19305  -1.04675
 Alpha  occ. eigenvalues --   -1.03593  -0.87266  -0.77992  -0.72658  -0.63214
 Alpha  occ. eigenvalues --   -0.62573  -0.60792  -0.52726  -0.50561  -0.48474
 Alpha  occ. eigenvalues --   -0.48236  -0.47037  -0.43148  -0.42207  -0.41726
 Alpha  occ. eigenvalues --   -0.40255  -0.38383  -0.37606  -0.34967  -0.33007
 Alpha  occ. eigenvalues --   -0.31166  -0.28624  -0.26412  -0.24315
 Alpha virt. eigenvalues --   -0.01848   0.09124   0.09394   0.10516   0.11855
 Alpha virt. eigenvalues --    0.13311   0.14524   0.15273   0.15710   0.16332
 Alpha virt. eigenvalues --    0.17149   0.17943   0.20435   0.21751   0.22439

 Mulliken charges:
               1
     1  O   -0.326556
     2  C    0.309467
     3  C   -0.306782
     4  C   -0.095183
     5  O   -0.234566
     6  C   -0.175971
     7  C    0.230757
     8  C   -0.284157
     9  C   -0.301847
    10  H    0.137411
    11  H    0.123424
    12  H    0.114857
    13  H    0.095565
    14  H    0.108645
    15  H    0.093847
    16  H    0.133429
    17  H    0.120689
    18  H    0.141964
    19  H    0.115007
 Sum of Mulliken charges =   0.00000

 Dipole moment (field-independent basis, Debye):
    X=             -0.7133    Y=             -1.4365    Z=             -0.0582  Tot=              1.6049
 Quadrupole moment (field-independent basis, Debye-Ang):
   XX=            -52.1442   YY=            -58.3602   ZZ=            -51.8099
   XY=             -6.7449   XZ=              1.3118   YZ=              2.2547

  Exact polarizability:  86.319  -4.656  77.182  -0.130   0.212  64.091
 Approx polarizability: 115.293  -0.615 116.552  -2.030  -4.365 100.750

                      1                      2                      3
                      A                      A                      A
 Frequencies --     69.1357               135.1041               235.4806
 Red. masses --      3.7167                 2.5494                 2.8183
 Frc consts  --      0.0105                 0.0274                 0.0921
 IR Inten    --      3.3542                 2.8638                 0.2451

                      4                      5                      6
                      A                      A                      A
 Frequencies --    271.6274               290.3489               379.6754
 Red. masses --      3.0128                 2.7000                 4.0155
 Frc consts  --      0.1310                 0.1341                 0.3410
 IR Inten    --      1.9071                 2.7074                 4.7919

                      7                      8                      9
                      A                      A                      A
 Frequencies --    399.3425               443.7102               509.1760
 Red. masses --      2.5002                 3.1791                 2.6840
 Frc consts  --      0.2349                 0.3688                 0.4100
 IR Inten    --      6.8272                 1.7717                 6.7500

                     10                     11                     12
                      A                      A                      A
 Frequencies --    576.0097               658.7732               707.7619
 Red. masses --      3.4406                 3.5377                 3.1820
 Frc consts  --      0.6726                 0.9046                 0.9391
 IR Inten    --      2.6959                 2.7903                15.9047

                     13                     14                     15
                      A                      A                      A
 Frequencies --    792.1692               829.4022               847.5579
 Red. masses --      1.0635                 3.0656                 2.2571
 Frc consts  --      0.3932                 1.2425                 0.9553
 IR Inten    --      0.4635                16.1027                 2.1240

                     16                     17                     18
                      A                      A                      A
 Frequencies --    897.3869               943.0833               960.6606
 Red. masses --      3.0744                 1.6475                 1.4037
 Frc consts  --      1.4587                 0.8633                 0.7633
 IR Inten    --     10.5759                 3.9719                 5.6366

                     19                     20                     21
                      A                      A                      A
 Frequencies --    978.6681              1007.6944              1049.0405
 Red. masses --      2.7879                 2.9645                 1.5556
 Frc consts  --      1.5732                 1.7736                 1.0087
 IR Inten    --     17.4166                16.3568                 0.7276

                     22                     23                     24
                      A                      A                      A
 Frequencies --   1062.1341              1086.8566              1102.8644
 Red. masses --      1.3986                 1.5050                 2.3431
 Frc consts  --      0.9296                 1.0474                 1.6791
 IR Inten    --      1.2611                 5.9062                 1.3463

                     25                     26                     27
                      A                      A                      A
 Frequencies --   1110.4656              1168.1508              1199.7170
 Red. masses --      3.1937                 3.3048                 1.2875
 Frc consts  --      2.3204                 2.6570                 1.0919
 IR Inten    --      6.8515               140.2743                 0.0525

                     28                     29                     30
                      A                      A                      A
 Frequencies --   1226.2991              1250.2146              1299.2627
 Red. masses --      1.2948                 1.3904                 1.9432
 Frc consts  --      1.1472                 1.2805                 1.9327
 IR Inten    --     14.2683                49.7133                 8.4570

                     31                     32                     33
                      A                      A                      A
 Frequencies --   1318.7828              1339.7846              1345.8773
 Red. masses --      2.5294                 1.7039                 1.2347
 Frc consts  --      2.5919                 1.8021                 1.3177
 IR Inten    --      6.5699                27.7859                 3.5454

                     34                     35                     36
                      A                      A                      A
 Frequencies --   1399.9694              1422.9080              1444.1823
 Red. masses --      1.4637                 1.3791                 1.0865
 Frc consts  --      1.6902                 1.6451                 1.3351
 IR Inten    --     59.2543                27.0094                 5.2809

                     37                     38                     39
                      A                      A                      A
 Frequencies --   1455.4875              1484.7836              1497.2908
 Red. masses --      1.0923                 1.2811                 1.1094
 Frc consts  --      1.3634                 1.6641                 1.4654
 IR Inten    --      4.2845                 4.4706                 0.7099

                     40                     41                     42
                      A                      A                      A
 Frequencies --   1509.0177              1794.7356              2952.2685
 Red. masses --      1.1059                11.8560                 1.0710
 Frc consts  --      1.4838                22.5003                 5.4996
 IR Inten    --      2.5601               153.6709                44.6074

                     43                     44                     45
                      A                      A                      A
 Frequencies --   2966.9282              3030.6646              3076.4402
 Red. masses --      1.0711                 1.0648                 1.0917
 Frc consts  --      5.5552                 5.7621                 6.0878
 IR Inten    --     69.9770                 8.0128                27.3733

                     46                     47                     48
                      A                      A                      A
 Frequencies --   3091.0761              3102.8776              3131.9452
 Red. masses --      1.0925                 1.0968                 1.0521
 Frc consts  --      6.1501                 6.2216                 6.0803
 IR Inten    --     32.8224                13.0445                12.3157

                     49                     50                     51
                      A                      A                      A
 Frequencies --   3135.8194              3219.6218              3234.6604
 Red. masses --      1.0564                 1.1179                 1.1158
 Frc consts  --      6.1204                 6.8272                 6.8787
 IR Inten    --     12.1209                 1.4494                 3.8195

 - Thermochemistry -
 -------------------
 Temperature   298.150 Kelvin.  Pressure   1.00000 Atm.
 Atom     1 has atomic number  8 and mass  15.99491

 Molecular mass:   126.06808 amu.
 Principal axes and moments of inertia in atomic units:
                           1         2         3
     Eigenvalues --   730.269501070.961061575.63205
           X            0.99512  -0.09842   0.00690
           Y            0.09824   0.99491   0.02245
           Z           -0.00908  -0.02167   0.99972
 This molecule is an asymmetric top.
 Rotational symmetry number  1.
 Warning -- assumption of classical behavior for rotation
           may cause significant error
 Rotational temperatures (Kelvin)      0.11861     0.08087     0.05497
 Rotational constants (GHZ):           2.47134     1.68516     1.14541
 Zero-point vibrational energy     421342.1 (Joules/Mol)
                                  100.70317 (Kcal/Mol)
 Warning -- explicit consideration of  10 degrees of freedom as
           vibrations may cause significant error
 Vibrational temperatures:     99.47   194.38   338.80   390.81   417.75
          (Kelvin)            546.27   574.56   638.40   732.59   828.75
                              947.83  1018.31  1139.75  1193.32  1219.45
                             1291.14  1356.88  1382.17  1408.08  1449.85
                             1509.33  1528.17  1563.74  1586.77  1597.71
                             1680.71  1726.12  1764.37  1798.78  1869.35
                             1897.43  1927.65  1936.41  2014.24  2047.24
                             2077.85  2094.12  2136.27  2154.26  2171.14
                             2582.22  4247.65  4268.74  4360.44  4426.31
                             4447.36  4464.34  4506.16  4511.74  4632.31
                             4653.95

 Zero-point correction=                           0.160481 (Hartree/Particle)
 Thermal correction to Energy=                    0.168432
 Thermal correction to Enthalpy=                  0.169376
 Thermal correction to Gibbs Free Energy=         0.127856
 Sum of electronic and zero-point Energies=           -423.040207
 Sum of electronic and thermal Energies=              -423.032256
 Sum of electronic and thermal Enthalpies=            -423.031312
 Sum of electronic and thermal Free Energies=         -423.072832

                     E (Thermal)             CV                S
                      KCal/Mol        Cal/Mol-Kelvin    Cal/Mol-Kelvin
 Total                  105.693             30.888             87.387
 Electronic               0.000              0.000              0.000
 Translational            0.889              2.981             40.409
 Rotational               0.889              2.981             28.601
 Vibrational            103.915             24.926             18.377
 Vibration     1          0.598              1.969              4.178
 Vibration     2          0.613              1.918              2.872
 Vibration     3          0.655              1.786              1.837
 Vibration     4          0.675              1.726              1.586
 Vibration     5          0.686              1.692              1.472
 Vibration     6          0.750              1.513              1.040
 Vibration     7          0.765              1.472              0.965
 Vibration     8          0.803              1.375              0.815
 Vibration     9          0.864              1.230              0.636
 Vibration    10          0.932              1.083              0.493

 Optimization completed.
    -- Stationary point found.
 Normal termination of Gaussian 09 at Mon Jan 27 13:52:38 2020.
