 Gaussian 09, Revision D.01,
 Gaussian 09:  ES64L-G09RevD.01 24-Apr-2013

 -----------------------------
 # b3lyp 6-31G(2df,p) opt Freq
 -----------------------------

 -----
 titel
 -----
 Symbolic Z-matrix:
 Charge =  0 Multiplicity = 1

 SCF Done:  E(RB3LYP) =  -423.216077723     A.U. after   14 cycles
 Optimization completed.
    -- Stationary point found.
 Normal termination of Gaussian 09 at Mon Jan 27 13:07:46 2020.

 ----------------------------------------------------------------------
 #N Geom=AllCheck Guess=TCheck SCRF=Check GenChk RB3LYP/6-31G(2df,p) Fr
 eq
 ----------------------------------------------------------------------

 Structure from the checkpoint file:  "/scratch/puck/g09_d05baf5e-962f-4437-9d71-a25165713f7f/Gau-47927.chk"
 -----
 titel
 -----
 Charge =  0 Multiplicity = 1

                         Standard orientation:
 ---------------------------------------------------------------------
 Center     Atomic      Atomic             Coordinates (Angstroms)
 Number     Number       Type             X           Y           Z
 ---------------------------------------------------------------------
      1          8           0       -2.635292   -0.257132    0.284687
      2          6           0       -1.482167   -0.128017   -0.027188
      3          6           0       -0.891494    1.233247   -0.388535
      4          6           0        0.436052    1.687867    0.248430
      5          6           0        1.570835    0.658929    0.189334
      6          6           0        1.297296   -0.578258    1.092936
      7          6           0        0.698027   -1.293873   -0.140605
      8          6           0        1.476479   -0.295716   -1.038462
      9          8           0       -0.731446   -1.253402   -0.184369
     10          1           0       -0.782359    1.228851   -1.480113
     11          1           0       -1.678325    1.953714   -0.159274
     12          1           0        0.741551    2.604234   -0.269257
     13          1           0        0.265398    1.968108    1.295057
     14          1           0        2.531828    1.155861    0.343036
     15          1           0        2.218999   -1.062527    1.425286
     16          1           0        0.632204   -0.452009    1.952095
     17          1           0        0.923187   -2.352387   -0.272844
     18          1           0        2.450923   -0.719279   -1.295952
     19          1           0        1.000329    0.054636   -1.956036
 ---------------------------------------------------------------------

 SCF Done:  E(RB3LYP) =  -423.216077723     A.U. after    1 cycles

 The electronic state is 1-A.
 Alpha  occ. eigenvalues --  -19.17127 -19.11392 -10.30134 -10.25132 -10.20289
 Alpha  occ. eigenvalues --  -10.20023 -10.19946 -10.19499 -10.19221  -1.08746
 Alpha  occ. eigenvalues --   -1.00867  -0.86188  -0.78750  -0.69273  -0.67792
 Alpha  occ. eigenvalues --   -0.66553  -0.56298  -0.53015  -0.51214  -0.49875
 Alpha  occ. eigenvalues --   -0.47324  -0.44906  -0.43183  -0.42975  -0.40958
 Alpha  occ. eigenvalues --   -0.39355  -0.37589  -0.37119  -0.35008  -0.32975
 Alpha  occ. eigenvalues --   -0.31749  -0.30200  -0.27931  -0.25807
 Alpha virt. eigenvalues --    0.00847   0.06693   0.09043   0.10557   0.12183
 Alpha virt. eigenvalues --    0.12965   0.13328   0.14695   0.15632   0.16726
 Alpha virt. eigenvalues --    0.17978   0.19292   0.19403   0.20278   0.21260

 Mulliken charges:
               1
     1  O   -0.310494
     2  C    0.387655
     3  C   -0.328312
     4  C   -0.223692
     5  C   -0.008224
     6  C   -0.244502
     7  C    0.133872
     8  C   -0.258463
     9  O   -0.239459
    10  H    0.132916
    11  H    0.133381
    12  H    0.106961
    13  H    0.112729
    14  H    0.072305
    15  H    0.108088
    16  H    0.112308
    17  H    0.096210
    18  H    0.109205
    19  H    0.107517
 Sum of Mulliken charges =   0.00000

 Dipole moment (field-independent basis, Debye):
    X=              4.1528    Y=              1.4097    Z=             -0.5972  Tot=              4.4261
 Quadrupole moment (field-independent basis, Debye-Ang):
   XX=            -61.3494   YY=            -52.0021   ZZ=            -51.5716
   XY=             -4.1785   XZ=              1.5959   YZ=             -0.2351

  Exact polarizability:  85.074  -3.449  73.972  -1.950  -0.387  64.849
 Approx polarizability: 124.149  -3.514 105.084  -6.173   0.010  99.302

                      1                      2                      3
                      A                      A                      A
 Frequencies --     82.0028               170.5389               311.9644
 Red. masses --      5.6284                 2.4940                 2.8695
 Frc consts  --      0.0223                 0.0427                 0.1645
 IR Inten    --      1.3720                 2.8475                 0.5785

                      4                      5                      6
                      A                      A                      A
 Frequencies --    313.7736               342.8518               421.5684
 Red. masses --      2.9545                 3.2878                 2.5124
 Frc consts  --      0.1714                 0.2277                 0.2631
 IR Inten    --      1.1056                 0.4890                 1.2143

                      7                      8                      9
                      A                      A                      A
 Frequencies --    463.4897               503.2877               557.8932
 Red. masses --      3.0971                 2.2487                 3.2320
 Frc consts  --      0.3920                 0.3356                 0.5927
 IR Inten    --      3.9150                 1.7631                 6.7467

                     10                     11                     12
                      A                      A                      A
 Frequencies --    670.8130               752.8692               782.6307
 Red. masses --      4.4148                 2.5456                 1.8133
 Frc consts  --      1.1705                 0.8501                 0.6544
 IR Inten    --      2.6831                 8.0249                 0.2061

                     13                     14                     15
                      A                      A                      A
 Frequencies --    805.2186               829.7124               874.3697
 Red. masses --      2.7498                 2.2213                 3.1820
 Frc consts  --      1.0505                 0.9010                 1.4333
 IR Inten    --      8.4938                 8.6352                 4.2080

                     16                     17                     18
                      A                      A                      A
 Frequencies --    911.5836               922.4575               959.7761
 Red. masses --      2.9151                 2.5494                 2.0098
 Frc consts  --      1.4273                 1.2782                 1.0908
 IR Inten    --      3.7605                 5.5406                 8.3925

                     19                     20                     21
                      A                      A                      A
 Frequencies --    967.9054              1046.3181              1055.9208
 Red. masses --      1.7806                 1.6833                 2.3723
 Frc consts  --      0.9828                 1.0858                 1.5584
 IR Inten    --      8.8452                 4.1068                44.4001

                     22                     23                     24
                      A                      A                      A
 Frequencies --   1076.7057              1097.9868              1121.1936
 Red. masses --      2.2523                 1.3900                 1.8705
 Frc consts  --      1.5384                 0.9873                 1.3854
 IR Inten    --     14.6462                 1.4035                19.9551

                     25                     26                     27
                      A                      A                      A
 Frequencies --   1161.9544              1186.1265              1209.2430
 Red. masses --      1.3125                 2.7766                 1.5860
 Frc consts  --      1.0441                 2.3016                 1.3664
 IR Inten    --      3.6961               178.5226                25.4343

                     28                     29                     30
                      A                      A                      A
 Frequencies --   1226.9318              1259.4216              1272.8111
 Red. masses --      1.4211                 1.3522                 1.5632
 Frc consts  --      1.2604                 1.2637                 1.4920
 IR Inten    --     28.7320                 2.9849                41.6422

                     31                     32                     33
                      A                      A                      A
 Frequencies --   1281.6978              1296.5390              1345.9999
 Red. masses --      1.5601                 1.6070                 1.3968
 Frc consts  --      1.5100                 1.5916                 1.4910
 IR Inten    --      6.7013                 0.6937                 1.7958

                     34                     35                     36
                      A                      A                      A
 Frequencies --   1370.9106              1384.2001              1410.6529
 Red. masses --      1.5059                 1.3997                 1.3367
 Frc consts  --      1.6674                 1.5801                 1.5672
 IR Inten    --      0.0180                15.8075                35.1219

                     37                     38                     39
                      A                      A                      A
 Frequencies --   1459.9225              1478.6341              1489.5214
 Red. masses --      1.0864                 1.0944                 1.0859
 Frc consts  --      1.3642                 1.4097                 1.4195
 IR Inten    --      4.4340                11.6356                 5.0219

                     40                     41                     42
                      A                      A                      A
 Frequencies --   1501.9484              1830.5844              3028.0290
 Red. masses --      1.1045                12.0415                 1.0608
 Frc consts  --      1.4680                23.7744                 5.7306
 IR Inten    --      1.8303               318.9223                25.1544

                     43                     44                     45
                      A                      A                      A
 Frequencies --   3037.9825              3056.6739              3065.1578
 Red. masses --      1.0701                 1.0607                 1.0742
 Frc consts  --      5.8191                 5.8391                 5.9463
 IR Inten    --      2.8944                16.1251                42.4369

                     46                     47                     48
                      A                      A                      A
 Frequencies --   3067.6092              3078.2665              3106.3418
 Red. masses --      1.0888                 1.0827                 1.0937
 Frc consts  --      6.0365                 6.0449                 6.2181
 IR Inten    --     10.4845                45.6260                22.8881

                     49                     50                     51
                      A                      A                      A
 Frequencies --   3115.9703              3118.8769              3123.3793
 Red. masses --      1.1036                 1.0961                 1.1027
 Frc consts  --      6.3130                 6.2821                 6.3381
 IR Inten    --     23.1241                32.2732                15.2363

 - Thermochemistry -
 -------------------
 Temperature   298.150 Kelvin.  Pressure   1.00000 Atm.
 Atom     1 has atomic number  8 and mass  15.99491

 Molecular mass:   126.06808 amu.
 Principal axes and moments of inertia in atomic units:
                           1         2         3
     Eigenvalues --   648.841761110.890631417.25892
           X            0.99922  -0.03896   0.00678
           Y            0.03902   0.99919  -0.00997
           Z           -0.00639   0.01022   0.99993
 This molecule is an asymmetric top.
 Rotational symmetry number  1.
 Warning -- assumption of classical behavior for rotation
           may cause significant error
 Rotational temperatures (Kelvin)      0.13349     0.07797     0.06111
 Rotational constants (GHZ):           2.78148     1.62459     1.27340
 Zero-point vibrational energy     424723.5 (Joules/Mol)
                                  101.51134 (Kcal/Mol)
 Warning -- explicit consideration of   9 degrees of freedom as
           vibrations may cause significant error
 Vibrational temperatures:    117.98   245.37   448.85   451.45   493.29
          (Kelvin)            606.54   666.86   724.12   802.68   965.15
                             1083.21  1126.03  1158.53  1193.77  1258.02
                             1311.56  1327.21  1380.90  1392.60  1505.42
                             1519.23  1549.14  1579.76  1613.15  1671.79
                             1706.57  1739.83  1765.28  1812.02  1831.29
                             1844.07  1865.43  1936.59  1972.43  1991.55
                             2029.61  2100.50  2127.42  2143.09  2160.97
                             2633.80  4356.65  4370.97  4397.87  4410.07
                             4413.60  4428.93  4469.33  4483.18  4487.36
                             4493.84

 Zero-point correction=                           0.161769 (Hartree/Particle)
 Thermal correction to Energy=                    0.169108
 Thermal correction to Enthalpy=                  0.170052
 Thermal correction to Gibbs Free Energy=         0.129948
 Sum of electronic and zero-point Energies=           -423.054309
 Sum of electronic and thermal Energies=              -423.046970
 Sum of electronic and thermal Enthalpies=            -423.046026
 Sum of electronic and thermal Free Energies=         -423.086129

                     E (Thermal)             CV                S
                      KCal/Mol        Cal/Mol-Kelvin    Cal/Mol-Kelvin
 Total                  106.117             29.444             84.405
 Electronic               0.000              0.000              0.000
 Translational            0.889              2.981             40.409
 Rotational               0.889              2.981             28.415
 Vibrational            104.339             23.482             15.582
 Vibration     1          0.600              1.961              3.842
 Vibration     2          0.626              1.879              2.430
 Vibration     3          0.700              1.651              1.352
 Vibration     4          0.702              1.647              1.342
 Vibration     5          0.722              1.590              1.199
 Vibration     6          0.784              1.423              0.887
 Vibration     7          0.821              1.331              0.756
 Vibration     8          0.859              1.243              0.650
 Vibration     9          0.913              1.122              0.528

 Optimization completed.
    -- Stationary point found.
 Normal termination of Gaussian 09 at Mon Jan 27 13:54:22 2020.
