 Gaussian 09, Revision D.01,
 Gaussian 09:  ES64L-G09RevD.01 24-Apr-2013

 -----------------------------
 # b3lyp 6-31G(2df,p) opt Freq
 -----------------------------

 -----
 titel
 -----
 Symbolic Z-matrix:
 Charge =  0 Multiplicity = 1

 SCF Done:  E(RB3LYP) =  -423.161842938     A.U. after   14 cycles
 Optimization completed.
    -- Stationary point found.
 Normal termination of Gaussian 09 at Mon Jan 27 12:04:43 2020.

 ----------------------------------------------------------------------
 #N Geom=AllCheck Guess=TCheck SCRF=Check GenChk RB3LYP/6-31G(2df,p) Fr
 eq
 ----------------------------------------------------------------------

 Structure from the checkpoint file:  "/scratch/puck/g09_5d1aeae9-2ac0-4558-ad9c-0020458dde58/Gau-48314.chk"
 -----
 titel
 -----
 Charge =  0 Multiplicity = 1

                         Standard orientation:
 ---------------------------------------------------------------------
 Center     Atomic      Atomic             Coordinates (Angstroms)
 Number     Number       Type             X           Y           Z
 ---------------------------------------------------------------------
      1          6           0        2.196486   -0.730360    0.395121
      2          8           0        2.109884    0.135083   -0.741522
      3          6           0        0.940551   -0.050312    0.072028
      4          6           0        0.411287    1.179718    0.800040
      5          6           0       -0.744292    1.656923   -0.105096
      6          6           0       -1.350993    0.363352   -0.646942
      7          8           0       -2.125292   -0.349825    0.351113
      8          6           0       -1.214409   -1.467432    0.328859
      9          6           0       -0.239195   -0.724133   -0.607126
     10          1           0        2.316959   -1.789605    0.168358
     11          1           0        2.813032   -0.364287    1.215709
     12          1           0        0.023350    0.893356    1.783667
     13          1           0        1.196429    1.924225    0.945891
     14          1           0       -1.488654    2.263502    0.417349
     15          1           0       -0.352431    2.244622   -0.943673
     16          1           0       -1.919251    0.490166   -1.574242
     17          1           0       -0.840767   -1.719737    1.329285
     18          1           0       -1.674839   -2.359579   -0.114475
     19          1           0        0.052823   -1.231262   -1.525898
 ---------------------------------------------------------------------

 SCF Done:  E(RB3LYP) =  -423.161842938     A.U. after    1 cycles

 The electronic state is 1-A.
 Alpha  occ. eigenvalues --  -19.14863 -19.13199 -10.24209 -10.23389 -10.23363
 Alpha  occ. eigenvalues --  -10.23304 -10.19363 -10.18640 -10.18399  -1.06906
 Alpha  occ. eigenvalues --   -1.03790  -0.81875  -0.74216  -0.69777  -0.66251
 Alpha  occ. eigenvalues --   -0.64065  -0.57212  -0.53901  -0.51582  -0.48953
 Alpha  occ. eigenvalues --   -0.48243  -0.45514  -0.43191  -0.42778  -0.40954
 Alpha  occ. eigenvalues --   -0.39413  -0.36234  -0.35135  -0.34743  -0.32087
 Alpha  occ. eigenvalues --   -0.30650  -0.29256  -0.26362  -0.24976
 Alpha virt. eigenvalues --    0.07092   0.08703   0.09607   0.10797   0.11734
 Alpha virt. eigenvalues --    0.12801   0.14118   0.15619   0.16090   0.16302
 Alpha virt. eigenvalues --    0.17422   0.18046   0.19378   0.20413   0.21454

 Mulliken charges:
               1
     1  C   -0.264260
     2  O   -0.284696
     3  C    0.444447
     4  C   -0.295645
     5  C   -0.232733
     6  C    0.126815
     7  O   -0.297024
     8  C   -0.086597
     9  C   -0.149242
    10  H    0.110410
    11  H    0.112610
    12  H    0.117304
    13  H    0.112266
    14  H    0.111280
    15  H    0.110290
    16  H    0.074068
    17  H    0.100486
    18  H    0.101030
    19  H    0.089193
 Sum of Mulliken charges =   0.00000

 Dipole moment (field-independent basis, Debye):
    X=              0.4373    Y=             -0.6882    Z=              0.5351  Tot=              0.9753
 Quadrupole moment (field-independent basis, Debye-Ang):
   XX=            -59.9697   YY=            -49.2163   ZZ=            -52.6671
   XY=             -2.0064   XZ=              5.5679   YZ=              0.3129

  Exact polarizability:  79.446  -2.854  77.509   4.292  -1.051  65.239
 Approx polarizability: 109.617  -3.475 107.983   0.424  -4.456 102.650

                      1                      2                      3
                      A                      A                      A
 Frequencies --     94.2197               160.2346               217.9808
 Red. masses --      3.7562                 2.9736                 2.5248
 Frc consts  --      0.0196                 0.0450                 0.0707
 IR Inten    --      4.1766                 3.9932                 1.3586

                      4                      5                      6
                      A                      A                      A
 Frequencies --    302.5429               356.2085               371.0438
 Red. masses --      2.5856                 3.6287                 2.3765
 Frc consts  --      0.1394                 0.2713                 0.1928
 IR Inten    --      1.3166                 1.7520                 7.0932

                      7                      8                      9
                      A                      A                      A
 Frequencies --    427.0728               552.1130               634.0655
 Red. masses --      2.9158                 3.5685                 2.7076
 Frc consts  --      0.3133                 0.6409                 0.6414
 IR Inten    --      1.2439                 8.4641                 0.1167

                     10                     11                     12
                      A                      A                      A
 Frequencies --    721.9437               803.0437               827.9912
 Red. masses --      3.1325                 2.2069                 2.9618
 Frc consts  --      0.9619                 0.8385                 1.1964
 IR Inten    --      5.6630                 7.4891                 4.8574

                     13                     14                     15
                      A                      A                      A
 Frequencies --    845.5789               873.6837               892.1582
 Red. masses --      2.3681                 2.0898                 3.9172
 Frc consts  --      0.9976                 0.9398                 1.8370
 IR Inten    --      0.6138                16.5020                 3.9864

                     16                     17                     18
                      A                      A                      A
 Frequencies --    922.8468               945.3877               972.6927
 Red. masses --      1.6468                 2.4054                 3.7044
 Frc consts  --      0.8263                 1.2666                 2.0650
 IR Inten    --      9.2863                14.5716                13.7373

                     19                     20                     21
                      A                      A                      A
 Frequencies --   1001.4652              1015.4863              1035.8598
 Red. masses --      1.7619                 3.1300                 2.5197
 Frc consts  --      1.0411                 1.9017                 1.5929
 IR Inten    --      5.7303                41.0703                60.0847

                     22                     23                     24
                      A                      A                      A
 Frequencies --   1053.3453              1098.9447              1125.2975
 Red. masses --      1.9676                 2.5634                 1.2781
 Frc consts  --      1.2863                 1.8240                 0.9535
 IR Inten    --      4.5945                 0.2851                 2.1233

                     25                     26                     27
                      A                      A                      A
 Frequencies --   1152.3807              1162.2188              1173.3451
 Red. masses --      1.3249                 1.2318                 1.3453
 Frc consts  --      1.0367                 0.9803                 1.0913
 IR Inten    --      0.2576                 2.5222                12.2947

                     28                     29                     30
                      A                      A                      A
 Frequencies --   1191.2575              1214.6150              1242.8492
 Red. masses --      1.5627                 1.7011                 1.8747
 Frc consts  --      1.3066                 1.4786                 1.7062
 IR Inten    --      7.1360                 3.2160                 3.5986

                     31                     32                     33
                      A                      A                      A
 Frequencies --   1277.4082              1288.4445              1317.8708
 Red. masses --      1.4350                 1.5155                 1.4931
 Frc consts  --      1.3796                 1.4823                 1.5278
 IR Inten    --      0.6155                 3.7242                 2.5007

                     34                     35                     36
                      A                      A                      A
 Frequencies --   1326.3667              1354.2666              1364.8545
 Red. masses --      1.6598                 1.4961                 1.3789
 Frc consts  --      1.7204                 1.6167                 1.5134
 IR Inten    --      3.5076                 4.6825                 5.8456

                     37                     38                     39
                      A                      A                      A
 Frequencies --   1432.9121              1466.3571              1478.7936
 Red. masses --      2.3510                 1.0884                 1.1164
 Frc consts  --      2.8441                 1.3789                 1.4385
 IR Inten    --     11.8174                 3.3482                 6.1934

                     40                     41                     42
                      A                      A                      A
 Frequencies --   1524.9411              1532.9934              3008.0997
 Red. masses --      1.1013                 1.4591                 1.0550
 Frc consts  --      1.5089                 2.0203                 5.6247
 IR Inten    --      0.4555                 3.9332                75.6538

                     43                     44                     45
                      A                      A                      A
 Frequencies --   3040.1020              3049.9694              3052.4085
 Red. masses --      1.0687                 1.1004                 1.0744
 Frc consts  --      5.8194                 6.0312                 5.8981
 IR Inten    --     11.0820                19.3260                26.0552

                     46                     47                     48
                      A                      A                      A
 Frequencies --   3057.2524              3074.8003              3103.7797
 Red. masses --      1.0824                 1.0505                 1.0989
 Frc consts  --      5.9609                 5.8519                 6.2372
 IR Inten    --     69.2625                29.5414                16.2414

                     49                     50                     51
                      A                      A                      A
 Frequencies --   3117.5519              3123.8952              3158.0155
 Red. masses --      1.1010                 1.0892                 1.1190
 Frc consts  --      6.3046                 6.2624                 6.5754
 IR Inten    --     16.6354                15.3567                23.2863

 - Thermochemistry -
 -------------------
 Temperature   298.150 Kelvin.  Pressure   1.00000 Atm.
 Atom     1 has atomic number  6 and mass  12.00000

 Molecular mass:   126.06808 amu.
 Principal axes and moments of inertia in atomic units:
                           1         2         3
     Eigenvalues --   588.841541178.370531450.19291
           X            0.99949  -0.01597   0.02750
           Y            0.01579   0.99985   0.00676
           Z           -0.02760  -0.00632   0.99960
 This molecule is an asymmetric top.
 Rotational symmetry number  1.
 Warning -- assumption of classical behavior for rotation
           may cause significant error
 Rotational temperatures (Kelvin)      0.14709     0.07350     0.05973
 Rotational constants (GHZ):           3.06490     1.53156     1.24448
 Zero-point vibrational energy     421916.7 (Joules/Mol)
                                  100.84050 (Kcal/Mol)
 Warning -- explicit consideration of   8 degrees of freedom as
           vibrations may cause significant error
 Vibrational temperatures:    135.56   230.54   313.63   435.29   512.50
          (Kelvin)            533.85   614.46   794.37   912.28  1038.71
                             1155.40  1191.29  1216.60  1257.03  1283.62
                             1327.77  1360.20  1399.49  1440.88  1461.06
                             1490.37  1515.53  1581.13  1619.05  1658.02
                             1672.17  1688.18  1713.95  1747.56  1788.18
                             1837.90  1853.78  1896.12  1908.34  1948.49
                             1963.72  2061.64  2109.76  2127.65  2194.05
                             2205.63  4327.98  4374.02  4388.22  4391.73
                             4398.70  4423.95  4465.64  4485.46  4494.58
                             4543.67

 Zero-point correction=                           0.160700 (Hartree/Particle)
 Thermal correction to Energy=                    0.168106
 Thermal correction to Enthalpy=                  0.169050
 Thermal correction to Gibbs Free Energy=         0.128785
 Sum of electronic and zero-point Energies=           -423.001143
 Sum of electronic and thermal Energies=              -422.993737
 Sum of electronic and thermal Enthalpies=            -422.992793
 Sum of electronic and thermal Free Energies=         -423.033058

                     E (Thermal)             CV                S
                      KCal/Mol        Cal/Mol-Kelvin    Cal/Mol-Kelvin
 Total                  105.488             29.316             84.745
 Electronic               0.000              0.000              0.000
 Translational            0.889              2.981             40.409
 Rotational               0.889              2.981             28.400
 Vibrational            103.711             23.354             15.937
 Vibration     1          0.603              1.953              3.571
 Vibration     2          0.622              1.891              2.547
 Vibration     3          0.646              1.814              1.976
 Vibration     4          0.694              1.669              1.403
 Vibration     5          0.732              1.563              1.139
 Vibration     6          0.743              1.532              1.075
 Vibration     7          0.789              1.411              0.868
 Vibration     8          0.907              1.135              0.540

 Optimization completed.
    -- Stationary point found.
 Normal termination of Gaussian 09 at Mon Jan 27 12:47:50 2020.
