 Gaussian 09, Revision D.01,
 Gaussian 09:  ES64L-G09RevD.01 24-Apr-2013

 ------------------------------------------------------
 # b3lyp 6-31G(2df,p) opt=(MaxCycles=250, CalcAll) Freq
 ------------------------------------------------------

 -----
 titel
 -----
 Symbolic Z-matrix:
 Charge =  0 Multiplicity = 1

 SCF Done:  E(RB3LYP) =  -423.179629133     A.U. after   14 cycles
 SCF Done:  E(RB3LYP) =  -423.179633079     A.U. after   10 cycles
 SCF Done:  E(RB3LYP) =  -423.179615919     A.U. after   12 cycles
 SCF Done:  E(RB3LYP) =  -423.179634363     A.U. after   10 cycles
 SCF Done:  E(RB3LYP) =  -423.179636292     A.U. after    9 cycles
 SCF Done:  E(RB3LYP) =  -423.179636248     A.U. after   10 cycles
 SCF Done:  E(RB3LYP) =  -423.179636422     A.U. after   10 cycles
 SCF Done:  E(RB3LYP) =  -423.179636558     A.U. after    6 cycles
 Optimization completed on the basis of negligible forces.
    -- Stationary point found.
 Normal termination of Gaussian 09 at Thu Jan 30 19:51:21 2020.

 ----------------------------------------------------------------------
 #N Geom=AllCheck Guess=TCheck SCRF=Check GenChk RB3LYP/6-31G(2df,p) Fr
 eq
 ----------------------------------------------------------------------

 Structure from the checkpoint file:  "/scratch/puck/g09_0f81b9eb-4dc7-4fab-80f5-64997392d846/Gau-178830.chk"
 -----
 titel
 -----
 Charge =  0 Multiplicity = 1

                         Standard orientation:
 ---------------------------------------------------------------------
 Center     Atomic      Atomic             Coordinates (Angstroms)
 Number     Number       Type             X           Y           Z
 ---------------------------------------------------------------------
      1          6           0        4.260555   -0.018443   -0.225875
      2          6           0        2.849382   -0.229182    0.062388
      3          6           0        1.682756   -0.395466    0.306624
      4          6           0        0.266977   -0.597218    0.580875
      5          6           0       -0.642804    0.268417   -0.333501
      6          8           0       -0.398025    1.628700   -0.134849
      7          6           0       -2.125836   -0.034863   -0.087276
      8          6           0       -2.631397   -1.442627   -0.300902
      9          8           0       -2.853521    0.868144    0.269034
     10          1           0        4.697477   -0.879258   -0.744230
     11          1           0        4.406494    0.861191   -0.862496
     12          1           0        4.834765    0.140804    0.693563
     13          1           0        0.012828   -1.656804    0.450267
     14          1           0        0.040597   -0.337484    1.623017
     15          1           0       -0.424005   -0.009586   -1.378532
     16          1           0       -1.251470    1.999693    0.144957
     17          1           0       -2.166806   -1.909279   -1.174368
     18          1           0       -2.378655   -2.058569    0.570317
     19          1           0       -3.716660   -1.429157   -0.409973
 ---------------------------------------------------------------------

 SCF Done:  E(RB3LYP) =  -423.179636558     A.U. after    1 cycles

 The electronic state is 1-A.
 Alpha  occ. eigenvalues --  -19.15201 -19.12852 -10.28445 -10.24600 -10.21317
 Alpha  occ. eigenvalues --  -10.20449 -10.19996 -10.16996 -10.16579  -1.06768
 Alpha  occ. eigenvalues --   -1.01315  -0.80287  -0.76984  -0.74857  -0.68948
 Alpha  occ. eigenvalues --   -0.64456  -0.56112  -0.51042  -0.49788  -0.47521
 Alpha  occ. eigenvalues --   -0.45590  -0.44366  -0.43135  -0.42780  -0.42273
 Alpha  occ. eigenvalues --   -0.42098  -0.41416  -0.39384  -0.36782  -0.34065
 Alpha  occ. eigenvalues --   -0.27858  -0.26834  -0.24601  -0.24221
 Alpha virt. eigenvalues --   -0.03094   0.05513   0.06235   0.08851   0.11396
 Alpha virt. eigenvalues --    0.12289   0.12408   0.15001   0.15162   0.15593
 Alpha virt. eigenvalues --    0.16836   0.18325   0.19893   0.20416   0.21805

 Mulliken charges:
               1
     1  C   -0.497626
     2  C    0.111350
     3  C    0.046797
     4  C   -0.380705
     5  C    0.046529
     6  O   -0.428224
     7  C    0.360907
     8  C   -0.483814
     9  O   -0.315103
    10  H    0.144114
    11  H    0.151279
    12  H    0.147674
    13  H    0.121090
    14  H    0.134506
    15  H    0.096606
    16  H    0.292313
    17  H    0.142893
    18  H    0.157696
    19  H    0.151717
 Sum of Mulliken charges =   0.00000

 Dipole moment (field-independent basis, Debye):
    X=              0.2198    Y=             -2.7203    Z=             -0.4873  Tot=              2.7723
 Quadrupole moment (field-independent basis, Debye-Ang):
   XX=            -49.3722   YY=            -53.8414   ZZ=            -52.0288
   XY=              4.9030   XZ=              0.4764   YZ=              0.3866

  Exact polarizability: 118.269   3.399  70.322  -5.784   1.455  57.923
 Approx polarizability: 157.573   0.875 105.337 -14.210   3.551  88.770

                      1                      2                      3
                      A                      A                      A
 Frequencies --     26.7220                46.0891                69.2867
 Red. masses --      1.0268                 3.7927                 5.4465
 Frc consts  --      0.0004                 0.0047                 0.0154
 IR Inten    --      0.0796                 0.6733                 0.3634

                      4                      5                      6
                      A                      A                      A
 Frequencies --     86.6322               118.8458               196.2946
 Red. masses --      3.5188                 1.1261                 3.3281
 Frc consts  --      0.0156                 0.0094                 0.0756
 IR Inten    --      0.8082                 0.4489                 2.2429

                      7                      8                      9
                      A                      A                      A
 Frequencies --    213.3158               268.2834               322.9655
 Red. masses --      2.8281                 3.9891                 3.8258
 Frc consts  --      0.0758                 0.1692                 0.2351
 IR Inten    --      7.4379                 2.8705                 7.0603

                     10                     11                     12
                      A                      A                      A
 Frequencies --    381.8247               383.9059               419.3561
 Red. masses --      3.7514                 3.9431                 3.6680
 Frc consts  --      0.3222                 0.3424                 0.3801
 IR Inten    --     16.0452                 0.1743                13.8856

                     13                     14                     15
                      A                      A                      A
 Frequencies --    456.3018               486.9291               582.1126
 Red. masses --      1.2360                 3.9163                 2.5160
 Frc consts  --      0.1516                 0.5471                 0.5023
 IR Inten    --     44.0833                10.6013                 9.1287

                     16                     17                     18
                      A                      A                      A
 Frequencies --    633.3930               761.1428               827.2197
 Red. masses --      3.3205                 3.8039                 2.8454
 Frc consts  --      0.7849                 1.2984                 1.1472
 IR Inten    --      9.9648                 1.7470                 5.9657

                     19                     20                     21
                      A                      A                      A
 Frequencies --    885.4965               973.4969               991.4621
 Red. masses --      2.0589                 2.0118                 2.4338
 Frc consts  --      0.9512                 1.1233                 1.4096
 IR Inten    --      0.8860                25.8667                 6.1713

                     22                     23                     24
                      A                      A                      A
 Frequencies --   1050.1579              1053.7512              1064.3959
 Red. masses --      1.4975                 1.4140                 2.0501
 Frc consts  --      0.9730                 0.9250                 1.3684
 IR Inten    --      1.9673                 0.1393                 1.1089

                     25                     26                     27
                      A                      A                      A
 Frequencies --   1138.6485              1175.4243              1197.7973
 Red. masses --      3.4722                 3.3953                 1.7911
 Frc consts  --      2.6524                 2.7638                 1.5141
 IR Inten    --    107.8237                 0.4747                38.6563

                     28                     29                     30
                      A                      A                      A
 Frequencies --   1245.0176              1262.4935              1328.2141
 Red. masses --      1.2847                 1.4476                 1.4769
 Frc consts  --      1.1733                 1.3595                 1.5351
 IR Inten    --      3.2394                50.9630                51.6665

                     31                     32                     33
                      A                      A                      A
 Frequencies --   1364.9892              1387.6436              1414.7919
 Red. masses --      1.2785                 1.3170                 1.2535
 Frc consts  --      1.4035                 1.4942                 1.4783
 IR Inten    --      2.2897                40.2994                 7.0535

                     34                     35                     36
                      A                      A                      A
 Frequencies --   1441.7436              1459.3484              1464.2538
 Red. masses --      1.3167                 1.0961                 1.0647
 Frc consts  --      1.6125                 1.3754                 1.3449
 IR Inten    --     84.0589                 3.5937                 9.3780

                     37                     38                     39
                      A                      A                      A
 Frequencies --   1477.0156              1478.6048              1478.8640
 Red. masses --      1.0573                 1.0397                 1.0398
 Frc consts  --      1.3590                 1.3393                 1.3399
 IR Inten    --      7.9419                 5.6080                 4.8756

                     40                     41                     42
                      A                      A                      A
 Frequencies --   1794.8991              2377.8445              2964.6982
 Red. masses --     10.6703                11.8178                 1.0807
 Frc consts  --     20.2537                39.3691                 5.5964
 IR Inten    --    144.7073                 2.2746                26.9949

                     43                     44                     45
                      A                      A                      A
 Frequencies --   3017.4447              3026.5789              3040.6462
 Red. masses --      1.0577                 1.0348                 1.0397
 Frc consts  --      5.6743                 5.5848                 5.6635
 IR Inten    --     26.7013                34.6119                 0.9148

                     46                     47                     48
                      A                      A                      A
 Frequencies --   3056.6675              3086.2660              3088.2553
 Red. masses --      1.1005                 1.1002                 1.1001
 Frc consts  --      6.0583                 6.1742                 6.1816
 IR Inten    --     17.7167                11.4732                10.0763

                     49                     50                     51
                      A                      A                      A
 Frequencies --   3105.6335              3152.1522              3665.4262
 Red. masses --      1.0958                 1.1028                 1.0642
 Frc consts  --      6.2271                 6.4561                 8.4242
 IR Inten    --      5.7940                 8.1135                96.7859

 - Thermochemistry -
 -------------------
 Temperature   298.150 Kelvin.  Pressure   1.00000 Atm.
 Atom     1 has atomic number  6 and mass  12.00000

 Molecular mass:   126.06808 amu.
 Principal axes and moments of inertia in atomic units:
                           1         2         3
     Eigenvalues --   440.686392624.693302934.98627
           X            0.99981   0.01944  -0.00099
           Y           -0.01943   0.99978   0.00804
           Z            0.00115  -0.00802   0.99997
 This molecule is an asymmetric top.
 Rotational symmetry number  1.
 Warning -- assumption of classical behavior for rotation
           may cause significant error
 Rotational temperatures (Kelvin)      0.19654     0.03300     0.02951
 Rotational constants (GHZ):           4.09530     0.68760     0.61491
 Zero-point vibrational energy     406675.0 (Joules/Mol)
                                   97.19765 (Kcal/Mol)
 Warning -- explicit consideration of  15 degrees of freedom as
           vibrations may cause significant error
 Vibrational temperatures:     38.45    66.31    99.69   124.64   170.99
          (Kelvin)            282.42   306.91   386.00   464.67   549.36
                              552.35   603.36   656.52   700.58   837.53
                              911.31  1095.11  1190.18  1274.03  1400.64
                             1426.49  1510.94  1516.11  1531.43  1638.26
                             1691.17  1723.36  1791.30  1816.44  1911.00
                             1963.91  1996.51  2035.57  2074.34  2099.67
                             2106.73  2125.09  2127.38  2127.75  2582.46
                             3421.18  4265.53  4341.42  4354.57  4374.81
                             4397.86  4440.44  4443.31  4468.31  4535.24
                             5273.72

 Zero-point correction=                           0.154894 (Hartree/Particle)
 Thermal correction to Energy=                    0.165957
 Thermal correction to Enthalpy=                  0.166901
 Thermal correction to Gibbs Free Energy=         0.116616
 Sum of electronic and zero-point Energies=           -423.024742
 Sum of electronic and thermal Energies=              -423.013679
 Sum of electronic and thermal Enthalpies=            -423.012735
 Sum of electronic and thermal Free Energies=         -423.063021

                     E (Thermal)             CV                S
                      KCal/Mol        Cal/Mol-Kelvin    Cal/Mol-Kelvin
 Total                  104.140             37.531            105.835
 Electronic               0.000              0.000              0.000
 Translational            0.889              2.981             40.409
 Rotational               0.889              2.981             29.608
 Vibrational            102.362             31.569             35.818
 Vibration     1          0.593              1.984              6.059
 Vibration     2          0.595              1.979              4.979
 Vibration     3          0.598              1.969              4.174
 Vibration     4          0.601              1.959              3.735
 Vibration     5          0.609              1.934              3.119
 Vibration     6          0.636              1.845              2.168
 Vibration     7          0.644              1.821              2.015
 Vibration     8          0.673              1.731              1.607
 Vibration     9          0.708              1.629              1.295
 Vibration    10          0.751              1.509              1.032
 Vibration    11          0.753              1.505              1.024
 Vibration    12          0.782              1.428              0.894
 Vibration    13          0.815              1.347              0.777
 Vibration    14          0.843              1.279              0.692
 Vibration    15          0.939              1.070              0.481

 Optimization completed on the basis of negligible forces.
    -- Stationary point found.
 Normal termination of Gaussian 09 at Thu Jan 30 20:26:05 2020.
 Normal termination of Gaussian 09 at Thu Jan 30 15:28:10 2020.
