 Gaussian 09, Revision D.01,
 Gaussian 09:  ES64L-G09RevD.01 24-Apr-2013

 -----------------------------
 # b3lyp 6-31G(2df,p) opt Freq
 -----------------------------

 -----
 titel
 -----
 Symbolic Z-matrix:
 Charge =  0 Multiplicity = 1

 SCF Done:  E(RB3LYP) =  -423.209156304     A.U. after   15 cycles
 Optimization completed.
    -- Stationary point found.
 Normal termination of Gaussian 09 at Tue Jan 28 11:48:41 2020.

 ----------------------------------------------------------------------
 #N Geom=AllCheck Guess=TCheck SCRF=Check GenChk RB3LYP/6-31G(2df,p) Fr
 eq
 ----------------------------------------------------------------------

 Structure from the checkpoint file:  "/scratch/puck/g09_07e4ad0d-90de-4a62-84f9-21e6eec6bdce/Gau-138365.chk"
 -----
 titel
 -----
 Charge =  0 Multiplicity = 1

                         Standard orientation:
 ---------------------------------------------------------------------
 Center     Atomic      Atomic             Coordinates (Angstroms)
 Number     Number       Type             X           Y           Z
 ---------------------------------------------------------------------
      1          8           0       -3.288327    0.018562   -0.531614
      2          6           0       -2.069063   -0.700584   -0.494105
      3          6           0       -1.124025   -0.214679    0.626133
      4          6           0       -0.697958    1.270671    0.459191
      5          6           0        0.728994    1.236565   -0.148389
      6          6           0        1.193089   -0.172775    0.144651
      7          6           0        2.567739   -0.638026   -0.056186
      8          8           0        3.466597    0.055403   -0.479468
      9          6           0        0.191297   -0.949359    0.583849
     10          1           0       -3.763996   -0.156515    0.287013
     11          1           0       -2.242144   -1.783577   -0.393099
     12          1           0       -1.597017   -0.536171   -1.468723
     13          1           0       -1.642514   -0.381975    1.581243
     14          1           0       -1.417148    1.821986   -0.150143
     15          1           0       -0.667427    1.753815    1.440116
     16          1           0        0.732267    1.419411   -1.229962
     17          1           0        1.396757    1.986412    0.285041
     18          1           0        2.741668   -1.703778    0.215515
     19          1           0        0.292961   -2.002210    0.830792
 ---------------------------------------------------------------------

 SCF Done:  E(RB3LYP) =  -423.209156304     A.U. after    1 cycles

 The electronic state is 1-A.
 Alpha  occ. eigenvalues --  -19.14577 -19.13186 -10.26460 -10.23771 -10.20828
 Alpha  occ. eigenvalues --  -10.20308 -10.19775 -10.18882 -10.18641  -1.03674
 Alpha  occ. eigenvalues --   -1.02682  -0.86219  -0.75530  -0.72891  -0.66415
 Alpha  occ. eigenvalues --   -0.62376  -0.57611  -0.53737  -0.50318  -0.49842
 Alpha  occ. eigenvalues --   -0.47984  -0.45426  -0.42977  -0.41715  -0.39168
 Alpha  occ. eigenvalues --   -0.38783  -0.37328  -0.36215  -0.35059  -0.34580
 Alpha  occ. eigenvalues --   -0.32889  -0.28764  -0.25698  -0.24910
 Alpha virt. eigenvalues --   -0.05738   0.06277   0.06428   0.09463   0.11328
 Alpha virt. eigenvalues --    0.11768   0.13885   0.15093   0.15220   0.16788
 Alpha virt. eigenvalues --    0.16954   0.17953   0.19968   0.21773   0.22716

 Mulliken charges:
               1
     1  O   -0.410240
     2  C   -0.063213
     3  C   -0.062650
     4  C   -0.236206
     5  C   -0.313212
     6  C    0.249619
     7  C    0.068632
     8  O   -0.268339
     9  C   -0.171472
    10  H    0.283651
    11  H    0.089412
    12  H    0.118701
    13  H    0.072029
    14  H    0.121131
    15  H    0.104603
    16  H    0.121572
    17  H    0.123765
    18  H    0.065373
    19  H    0.106844
 Sum of Mulliken charges =   0.00000

 Dipole moment (field-independent basis, Debye):
    X=             -2.7776    Y=             -1.5700    Z=              2.0565  Tot=              3.7960
 Quadrupole moment (field-independent basis, Debye-Ang):
   XX=            -65.6863   YY=            -50.4367   ZZ=            -52.9439
   XY=              0.1027   XZ=             -2.5153   YZ=             -0.2033

  Exact polarizability: 108.575   4.406  76.275  -8.488  -4.728  59.407
 Approx polarizability: 158.824  19.769 116.050 -20.963 -13.613  96.155

                      1                      2                      3
                      A                      A                      A
 Frequencies --     64.1351               105.2393               127.2868
 Red. masses --      6.2573                 3.1925                 2.0491
 Frc consts  --      0.0152                 0.0208                 0.0196
 IR Inten    --      2.2913                 1.4664                 1.4338

                      4                      5                      6
                      A                      A                      A
 Frequencies --    173.0688               204.9111               275.1796
 Red. masses --      3.7056                 3.9889                 2.7605
 Frc consts  --      0.0654                 0.0987                 0.1232
 IR Inten    --      6.1170                 8.5652                 9.8376

                      7                      8                      9
                      A                      A                      A
 Frequencies --    319.9417               371.0739               419.1567
 Red. masses --      1.1561                 3.1448                 2.7783
 Frc consts  --      0.0697                 0.2551                 0.2876
 IR Inten    --     97.4132                 1.7909                27.2094

                     10                     11                     12
                      A                      A                      A
 Frequencies --    469.8948               537.6929               695.3997
 Red. masses --      2.0702                 4.0041                 3.4652
 Frc consts  --      0.2693                 0.6821                 0.9873
 IR Inten    --      1.0264                 5.5212                12.7327

                     13                     14                     15
                      A                      A                      A
 Frequencies --    737.7594               776.9317               850.8687
 Red. masses --      3.1240                 2.0260                 3.4630
 Frc consts  --      1.0018                 0.7205                 1.4772
 IR Inten    --     11.2411                 8.3425                 1.2200

                     16                     17                     18
                      A                      A                      A
 Frequencies --    876.8987               905.6461               944.3026
 Red. masses --      1.4581                 2.2868                 1.6208
 Frc consts  --      0.6606                 1.1051                 0.8515
 IR Inten    --     12.7499                 1.9745                 3.4110

                     19                     20                     21
                      A                      A                      A
 Frequencies --    979.9516               990.4669              1033.6351
 Red. masses --      2.3940                 1.8341                 1.6630
 Frc consts  --      1.3545                 1.0601                 1.0468
 IR Inten    --      1.1146                31.1686                 3.3637

                     22                     23                     24
                      A                      A                      A
 Frequencies --   1059.4831              1078.1464              1098.6876
 Red. masses --      2.5811                 2.4527                 2.4093
 Frc consts  --      1.7071                 1.6798                 1.7135
 IR Inten    --     71.1342                45.3872                24.2162

                     25                     26                     27
                      A                      A                      A
 Frequencies --   1149.9910              1175.1676              1215.1313
 Red. masses --      1.1163                 1.6632                 1.3359
 Frc consts  --      0.8698                 1.3533                 1.1622
 IR Inten    --     10.2250                16.4927                20.0276

                     28                     29                     30
                      A                      A                      A
 Frequencies --   1251.8646              1272.9667              1286.0405
 Red. masses --      1.3937                 1.3433                 1.5799
 Frc consts  --      1.2868                 1.2825                 1.5396
 IR Inten    --      1.3210                 9.2770                 8.1327

                     31                     32                     33
                      A                      A                      A
 Frequencies --   1325.8255              1349.0477              1372.2506
 Red. masses --      1.5388                 1.3358                 2.5337
 Frc consts  --      1.5937                 1.4323                 2.8111
 IR Inten    --     11.2518                 2.2861                24.4812

                     34                     35                     36
                      A                      A                      A
 Frequencies --   1388.4295              1413.5856              1421.8443
 Red. masses --      1.2974                 1.2273                 1.2279
 Frc consts  --      1.4736                 1.4450                 1.4626
 IR Inten    --      1.5373                46.6385                 5.4746

                     37                     38                     39
                      A                      A                      A
 Frequencies --   1485.2943              1499.4313              1507.6674
 Red. masses --      1.0799                 1.0882                 1.0935
 Frc consts  --      1.4037                 1.4415                 1.4645
 IR Inten    --      1.3512                 1.8955                 2.8007

                     40                     41                     42
                      A                      A                      A
 Frequencies --   1679.0923              1784.0719              2874.6369
 Red. masses --      6.9608                10.3221                 1.0825
 Frc consts  --     11.5627                19.3573                 5.2703
 IR Inten    --     33.2548               256.2944               119.9086

                     43                     44                     45
                      A                      A                      A
 Frequencies --   2980.3984              2997.0318              3038.2670
 Red. masses --      1.0701                 1.0814                 1.0685
 Frc consts  --      5.6005                 5.7231                 5.8115
 IR Inten    --     58.2946                36.4324                14.2742

                     46                     47                     48
                      A                      A                      A
 Frequencies --   3061.1002              3075.3698              3086.9067
 Red. masses --      1.0674                 1.0943                 1.0911
 Frc consts  --      5.8930                 6.0977                 6.1260
 IR Inten    --     22.8955                27.9143                17.3061

                     49                     50                     51
                      A                      A                      A
 Frequencies --   3116.1494              3178.5965              3812.2509
 Red. masses --      1.1012                 1.0927                 1.0661
 Frc consts  --      6.3001                 6.5049                 9.1288
 IR Inten    --     16.4771                 9.8431                23.4024

 - Thermochemistry -
 -------------------
 Temperature   298.150 Kelvin.  Pressure   1.00000 Atm.
 Atom     1 has atomic number  8 and mass  15.99491

 Molecular mass:   126.06808 amu.
 Principal axes and moments of inertia in atomic units:
                           1         2         3
     Eigenvalues --   413.340212178.106852360.16218
           X            1.00000   0.00171  -0.00170
           Y           -0.00172   1.00000  -0.00225
           Z            0.00170   0.00225   1.00000
 This molecule is an asymmetric top.
 Rotational symmetry number  1.
 Rotational temperatures (Kelvin)      0.20955     0.03977     0.03670
 Rotational constants (GHZ):           4.36624     0.82858     0.76467
 Zero-point vibrational energy     418060.0 (Joules/Mol)
                                   99.91873 (Kcal/Mol)
 Warning -- explicit consideration of  11 degrees of freedom as
           vibrations may cause significant error
 Vibrational temperatures:     92.28   151.42   183.14   249.01   294.82
          (Kelvin)            395.92   460.32   533.89   603.07   676.07
                              773.62  1000.52  1061.47  1117.83  1224.21
                             1261.66  1303.02  1358.64  1409.93  1425.06
                             1487.17  1524.36  1551.21  1580.76  1654.58
                             1690.80  1748.30  1801.15  1831.51  1850.32
                             1907.56  1940.98  1974.36  1997.64  2033.83
                             2045.71  2137.00  2157.34  2169.19  2415.84
                             2566.88  4135.96  4288.12  4312.05  4371.38
                             4404.23  4424.77  4441.36  4483.44  4573.29
                             5484.97

 Zero-point correction=                           0.159231 (Hartree/Particle)
 Thermal correction to Energy=                    0.168230
 Thermal correction to Enthalpy=                  0.169174
 Thermal correction to Gibbs Free Energy=         0.124931
 Sum of electronic and zero-point Energies=           -423.049926
 Sum of electronic and thermal Energies=              -423.040926
 Sum of electronic and thermal Enthalpies=            -423.039982
 Sum of electronic and thermal Free Energies=         -423.084225

                     E (Thermal)             CV                S
                      KCal/Mol        Cal/Mol-Kelvin    Cal/Mol-Kelvin
 Total                  105.566             32.790             93.117
 Electronic               0.000              0.000              0.000
 Translational            0.889              2.981             40.409
 Rotational               0.889              2.981             29.142
 Vibrational            103.789             26.828             23.566
 Vibration     1          0.597              1.971              4.326
 Vibration     2          0.605              1.945              3.355
 Vibration     3          0.611              1.926              2.987
 Vibration     4          0.627              1.876              2.402
 Vibration     5          0.640              1.833              2.089
 Vibration     6          0.677              1.719              1.563
 Vibration     7          0.706              1.635              1.310
 Vibration     8          0.743              1.532              1.075
 Vibration     9          0.782              1.429              0.895
 Vibration    10          0.827              1.317              0.738
 Vibration    11          0.893              1.167              0.570

 Optimization completed.
    -- Stationary point found.
 Normal termination of Gaussian 09 at Tue Jan 28 12:28:06 2020.
