 Gaussian 09, Revision D.01,
 Gaussian 09:  ES64L-G09RevD.01 24-Apr-2013

 -----------------------------
 # b3lyp 6-31G(2df,p) opt Freq
 -----------------------------

 -----
 titel
 -----
 Symbolic Z-matrix:
 Charge =  0 Multiplicity = 1

 SCF Done:  E(RB3LYP) =  -423.125802753     A.U. after   13 cycles
 Optimization completed.
    -- Stationary point found.
 Normal termination of Gaussian 09 at Mon Jan 27 12:17:09 2020.

 ----------------------------------------------------------------------
 #N Geom=AllCheck Guess=TCheck SCRF=Check GenChk RB3LYP/6-31G(2df,p) Fr
 eq
 ----------------------------------------------------------------------

 Structure from the checkpoint file:  "/scratch/puck/g09_98ef9f24-97f1-4e25-a6c8-027b142f6d12/Gau-35227.chk"
 -----
 titel
 -----
 Charge =  0 Multiplicity = 1

                         Standard orientation:
 ---------------------------------------------------------------------
 Center     Atomic      Atomic             Coordinates (Angstroms)
 Number     Number       Type             X           Y           Z
 ---------------------------------------------------------------------
      1          6           0        2.010156   -0.238457   -0.589612
      2          8           0        1.822985    0.685109    0.544887
      3          6           0        0.392003    0.406008    0.478551
      4          6           0       -0.347802    1.349515   -0.506943
      5          6           0       -1.737539    0.667659   -0.658522
      6          6           0       -1.502120   -0.608156    0.154707
      7          6           0       -0.738821   -0.033821    1.421770
      8          8           0       -0.533632   -1.402674   -0.632974
      9          6           0        0.699797   -0.932549   -0.114251
     10          1           0        1.978334    0.288483   -1.547498
     11          1           0        2.936289   -0.808483   -0.493215
     12          1           0       -0.410605    2.347032   -0.062950
     13          1           0        0.174780    1.450305   -1.459113
     14          1           0       -2.546873    1.269971   -0.234653
     15          1           0       -1.989277    0.429581   -1.693582
     16          1           0       -2.368272   -1.237600    0.354746
     17          1           0       -1.333665    0.748239    1.900338
     18          1           0       -0.446426   -0.788102    2.152903
     19          1           0        1.036855   -1.620101    0.673522
 ---------------------------------------------------------------------

 SCF Done:  E(RB3LYP) =  -423.125802753     A.U. after    1 cycles

 The electronic state is 1-A.
 Alpha  occ. eigenvalues --  -19.14541 -19.14208 -10.24317 -10.24002 -10.23431
 Alpha  occ. eigenvalues --  -10.22758 -10.19562 -10.18476 -10.18365  -1.05396
 Alpha  occ. eigenvalues --   -1.01963  -0.83044  -0.74242  -0.71698  -0.68913
 Alpha  occ. eigenvalues --   -0.61719  -0.58559  -0.53484  -0.50552  -0.49171
 Alpha  occ. eigenvalues --   -0.48309  -0.45651  -0.43540  -0.39401  -0.39207
 Alpha  occ. eigenvalues --   -0.37385  -0.37022  -0.36326  -0.35089  -0.33946
 Alpha  occ. eigenvalues --   -0.33349  -0.27217  -0.26164  -0.24024
 Alpha virt. eigenvalues --    0.05537   0.08696   0.10056   0.10541   0.11500
 Alpha virt. eigenvalues --    0.13728   0.14489   0.15434   0.16024   0.16494
 Alpha virt. eigenvalues --    0.17676   0.18786   0.20300   0.20910   0.21564

 Mulliken charges:
               1
     1  C   -0.192203
     2  O   -0.364451
     3  C    0.425057
     4  C   -0.260092
     5  C   -0.206290
     6  C    0.104828
     7  C   -0.354051
     8  O   -0.317268
     9  C    0.121963
    10  H    0.116594
    11  H    0.116865
    12  H    0.108138
    13  H    0.105783
    14  H    0.097878
    15  H    0.110639
    16  H    0.084555
    17  H    0.103418
    18  H    0.114346
    19  H    0.084290
 Sum of Mulliken charges =   0.00000

 Dipole moment (field-independent basis, Debye):
    X=             -1.0481    Y=              0.2223    Z=              0.0574  Tot=              1.0729
 Quadrupole moment (field-independent basis, Debye-Ang):
   XX=            -51.9438   YY=            -55.4027   ZZ=            -52.9474
   XY=             -3.8845   XZ=             -3.9541   YZ=             -2.7054

  Exact polarizability:  85.754  -3.625  67.720  -4.283  -2.944  67.621
 Approx polarizability: 120.082  -1.442 103.744  -4.116   0.950 103.856

                      1                      2                      3
                      A                      A                      A
 Frequencies --    202.7855               310.0187               354.2926
 Red. masses --      2.2111                 2.6756                 3.5110
 Frc consts  --      0.0536                 0.1515                 0.2597
 IR Inten    --      1.8183                 3.7266                 2.9427

                      4                      5                      6
                      A                      A                      A
 Frequencies --    401.5073               415.0954               478.8698
 Red. masses --      3.8827                 2.7175                 2.1732
 Frc consts  --      0.3688                 0.2759                 0.2936
 IR Inten    --      6.8612                 6.7187                 2.2685

                      7                      8                      9
                      A                      A                      A
 Frequencies --    528.9600               561.2986               713.2241
 Red. masses --      5.0299                 2.8619                 5.0125
 Frc consts  --      0.8292                 0.5312                 1.5023
 IR Inten    --      2.0266                 0.3405                 0.3874

                     10                     11                     12
                      A                      A                      A
 Frequencies --    723.3442               770.7854               814.5859
 Red. masses --      3.9974                 3.1671                 1.8852
 Frc consts  --      1.2323                 1.1086                 0.7370
 IR Inten    --      1.0373                20.5147                 2.0458

                     13                     14                     15
                      A                      A                      A
 Frequencies --    836.8169               850.1580               897.4605
 Red. masses --      2.7293                 2.9313                 2.7860
 Frc consts  --      1.1261                 1.2483                 1.3221
 IR Inten    --     38.6634                 3.1733                33.9724

                     16                     17                     18
                      A                      A                      A
 Frequencies --    914.3334               943.4099               966.2024
 Red. masses --      2.5704                 2.2553                 2.5525
 Frc consts  --      1.2661                 1.1827                 1.4040
 IR Inten    --     19.5820                39.6584                 2.1607

                     19                     20                     21
                      A                      A                      A
 Frequencies --    991.6049              1014.8742              1040.5291
 Red. masses --      1.5814                 1.9762                 2.3208
 Frc consts  --      0.9161                 1.1992                 1.4805
 IR Inten    --      2.3538                 1.3010                 3.5470

                     22                     23                     24
                      A                      A                      A
 Frequencies --   1076.4985              1080.6168              1104.5177
 Red. masses --      1.7474                 2.1381                 1.9750
 Frc consts  --      1.1930                 1.4710                 1.4196
 IR Inten    --      3.7749                 6.8187                16.0629

                     25                     26                     27
                      A                      A                      A
 Frequencies --   1141.4901              1159.0246              1184.8564
 Red. masses --      1.2638                 1.6240                 2.3402
 Frc consts  --      0.9702                 1.2853                 1.9357
 IR Inten    --      3.4926                11.7493                17.6944

                     28                     29                     30
                      A                      A                      A
 Frequencies --   1204.7235              1232.0083              1250.2011
 Red. masses --      2.1204                 1.3630                 1.4193
 Frc consts  --      1.8131                 1.2189                 1.3070
 IR Inten    --     70.3058                 6.2832                 1.6834

                     31                     32                     33
                      A                      A                      A
 Frequencies --   1268.7263              1286.2764              1312.2002
 Red. masses --      1.4763                 1.3580                 1.5289
 Frc consts  --      1.4001                 1.3238                 1.5510
 IR Inten    --      8.0603                 1.4103                 5.0395

                     34                     35                     36
                      A                      A                      A
 Frequencies --   1326.5170              1330.0841              1356.2814
 Red. masses --      1.5184                 1.5593                 2.2722
 Frc consts  --      1.5742                 1.6253                 2.4626
 IR Inten    --      2.1710                 6.3636                 5.1932

                     37                     38                     39
                      A                      A                      A
 Frequencies --   1439.7358              1478.0469              1490.2143
 Red. masses --      1.1507                 1.0840                 1.1013
 Frc consts  --      1.4053                 1.3953                 1.4410
 IR Inten    --      9.1144                 0.1961                 4.9647

                     40                     41                     42
                      A                      A                      A
 Frequencies --   1508.3932              1519.1380              2996.2394
 Red. masses --      1.1118                 1.1025                 1.0833
 Frc consts  --      1.4904                 1.4990                 5.7299
 IR Inten    --      2.3456                 2.5028                43.1509

                     43                     44                     45
                      A                      A                      A
 Frequencies --   3054.1659              3055.6103              3068.9472
 Red. masses --      1.0605                 1.0593                 1.0632
 Frc consts  --      5.8285                 5.8274                 5.9000
 IR Inten    --     16.6805                49.6648                28.9701

                     46                     47                     48
                      A                      A                      A
 Frequencies --   3074.0727              3109.3541              3122.3403
 Red. masses --      1.0612                 1.1006                 1.1090
 Frc consts  --      5.9082                 6.2695                 6.3701
 IR Inten    --     21.6668                 5.6203                35.0056

                     49                     50                     51
                      A                      A                      A
 Frequencies --   3128.7647              3129.4481              3140.3478
 Red. masses --      1.1023                 1.0922                 1.1066
 Frc consts  --      6.3575                 6.3020                 6.4298
 IR Inten    --     39.4606                29.1913                23.6711

 - Thermochemistry -
 -------------------
 Temperature   298.150 Kelvin.  Pressure   1.00000 Atm.
 Atom     1 has atomic number  6 and mass  12.00000

 Molecular mass:   126.06808 amu.
 Principal axes and moments of inertia in atomic units:
                           1         2         3
     Eigenvalues --   594.828421016.061871133.55414
           X            0.99818  -0.05586  -0.02262
           Y            0.05181   0.98715  -0.15113
           Z            0.03077   0.14969   0.98825
 This molecule is an asymmetric top.
 Rotational symmetry number  1.
 Warning -- assumption of classical behavior for rotation
           may cause significant error
 Rotational temperatures (Kelvin)      0.14561     0.08524     0.07641
 Rotational constants (GHZ):           3.03405     1.77621     1.59211
 Zero-point vibrational energy     426821.6 (Joules/Mol)
                                  102.01281 (Kcal/Mol)
 Warning -- explicit consideration of   8 degrees of freedom as
           vibrations may cause significant error
 Vibrational temperatures:    291.76   446.05   509.75   577.68   597.23
          (Kelvin)            688.99   761.05   807.58  1026.17  1040.73
                             1108.99  1172.01  1203.99  1223.19  1291.24
                             1315.52  1357.35  1390.15  1426.70  1460.18
                             1497.09  1548.84  1554.76  1589.15  1642.35
                             1667.58  1704.74  1733.33  1772.58  1798.76
                             1825.41  1850.66  1887.96  1908.56  1913.69
                             1951.38  2071.46  2126.58  2144.08  2170.24
                             2185.70  4310.91  4394.26  4396.34  4415.52
                             4422.90  4473.66  4492.35  4501.59  4502.57
                             4518.25

 Zero-point correction=                           0.162568 (Hartree/Particle)
 Thermal correction to Energy=                    0.169027
 Thermal correction to Enthalpy=                  0.169971
 Thermal correction to Gibbs Free Energy=         0.132191
 Sum of electronic and zero-point Energies=           -422.963235
 Sum of electronic and thermal Energies=              -422.956776
 Sum of electronic and thermal Enthalpies=            -422.955832
 Sum of electronic and thermal Free Energies=         -422.993612

                     E (Thermal)             CV                S
                      KCal/Mol        Cal/Mol-Kelvin    Cal/Mol-Kelvin
 Total                  106.066             27.905             79.515
 Electronic               0.000              0.000              0.000
 Translational            0.889              2.981             40.409
 Rotational               0.889              2.981             28.018
 Vibrational            104.288             21.943             11.089
 Vibration     1          0.639              1.836              2.108
 Vibration     2          0.699              1.655              1.362
 Vibration     3          0.730              1.566              1.147
 Vibration     4          0.767              1.467              0.957
 Vibration     5          0.778              1.437              0.909
 Vibration     6          0.835              1.297              0.713
 Vibration     7          0.884              1.186              0.590
 Vibration     8          0.917              1.115              0.521

 Optimization completed.
    -- Stationary point found.
 Normal termination of Gaussian 09 at Mon Jan 27 13:06:41 2020.
