 Gaussian 09, Revision D.01,
 Gaussian 09:  ES64L-G09RevD.01 24-Apr-2013

 -----------------------------
 # b3lyp 6-31G(2df,p) opt Freq
 -----------------------------

 -----
 titel
 -----
 Symbolic Z-matrix:
 Charge =  0 Multiplicity = 1

 SCF Done:  E(RB3LYP) =  -423.129022111     A.U. after   13 cycles
 Optimization completed.
    -- Stationary point found.
 Normal termination of Gaussian 09 at Tue Jan 28 09:14:22 2020.

 ----------------------------------------------------------------------
 #N Geom=AllCheck Guess=TCheck SCRF=Check GenChk RB3LYP/6-31G(2df,p) Fr
 eq
 ----------------------------------------------------------------------

 Structure from the checkpoint file:  "/scratch/puck/g09_c29314aa-0f6e-4cf8-b6b1-e7186c2074f6/Gau-130870.chk"
 -----
 titel
 -----
 Charge =  0 Multiplicity = 1

                         Standard orientation:
 ---------------------------------------------------------------------
 Center     Atomic      Atomic             Coordinates (Angstroms)
 Number     Number       Type             X           Y           Z
 ---------------------------------------------------------------------
      1          8           0        2.443385    0.336584    0.329230
      2          6           0        1.759427   -0.539687   -0.572584
      3          6           0        0.328468   -0.529235   -0.188657
      4          6           0       -0.898061   -1.329795   -0.546334
      5          6           0       -1.686723   -0.076900   -0.937475
      6          6           0       -0.692008    0.689679   -0.037306
      7          8           0       -0.437609    2.014163   -0.337199
      8          6           0       -1.006417    0.191761    1.402375
      9          6           0       -0.470503   -1.157940    0.924718
     10          1           0        3.351340    0.428281    0.023864
     11          1           0        1.880007   -0.189870   -1.610405
     12          1           0        2.164410   -1.563269   -0.521602
     13          1           0       -0.938123   -2.310225   -1.004009
     14          1           0       -1.534493    0.178381   -1.989524
     15          1           0       -2.751228   -0.014499   -0.685299
     16          1           0        0.337623    2.279643    0.171527
     17          1           0       -0.327495    0.642438    2.132877
     18          1           0       -2.042383    0.269662    1.752341
     19          1           0       -0.190957   -2.013805    1.525558
 ---------------------------------------------------------------------

 SCF Done:  E(RB3LYP) =  -423.129022111     A.U. after    1 cycles

 The electronic state is 1-A.
 Alpha  occ. eigenvalues --  -19.13908 -19.13804 -10.23481 -10.23448 -10.19043
 Alpha  occ. eigenvalues --  -10.18674 -10.18282 -10.17612 -10.17405  -1.02668
 Alpha  occ. eigenvalues --   -1.01630  -0.91976  -0.72527  -0.71462  -0.68516
 Alpha  occ. eigenvalues --   -0.60021  -0.54741  -0.53690  -0.51331  -0.49330
 Alpha  occ. eigenvalues --   -0.46117  -0.44658  -0.43540  -0.41456  -0.39376
 Alpha  occ. eigenvalues --   -0.37061  -0.36743  -0.35528  -0.34127  -0.28928
 Alpha  occ. eigenvalues --   -0.28006  -0.27450  -0.24453  -0.23913
 Alpha virt. eigenvalues --    0.06000   0.09714   0.11518   0.12585   0.13193
 Alpha virt. eigenvalues --    0.13450   0.15026   0.15160   0.16343   0.17273
 Alpha virt. eigenvalues --    0.17984   0.18971   0.19833   0.21117   0.22571

 Mulliken charges:
               1
     1  O   -0.428895
     2  C   -0.257771
     3  C    0.321063
     4  C   -0.148484
     5  C   -0.267482
     6  C    0.356039
     7  O   -0.477653
     8  C   -0.293226
     9  C   -0.113279
    10  H    0.287670
    11  H    0.095328
    12  H    0.092845
    13  H    0.084842
    14  H    0.102747
    15  H    0.089295
    16  H    0.286857
    17  H    0.098546
    18  H    0.087024
    19  H    0.084534
 Sum of Mulliken charges =   0.00000

 Dipole moment (field-independent basis, Debye):
    X=              1.8874    Y=             -1.0979    Z=             -0.3165  Tot=              2.2063
 Quadrupole moment (field-independent basis, Debye-Ang):
   XX=            -47.2637   YY=            -53.4057   ZZ=            -53.3054
   XY=              2.0329   XZ=             -2.4848   YZ=              2.1407

  Exact polarizability:  82.363   1.455  72.764  -0.363   1.588  71.421
 Approx polarizability: 113.981   3.951 109.380   0.316   1.121 107.410

                      1                      2                      3
                      A                      A                      A
 Frequencies --     41.2176               116.7345               192.7706
 Red. masses --      4.2840                 3.6996                 2.2346
 Frc consts  --      0.0043                 0.0297                 0.0489
 IR Inten    --      7.3064                 1.9927                 9.2509

                      4                      5                      6
                      A                      A                      A
 Frequencies --    277.2274               305.0707               334.3433
 Red. masses --      1.1248                 1.6992                 2.7186
 Frc consts  --      0.0509                 0.0932                 0.1791
 IR Inten    --     91.5333                33.8072                35.2266

                      7                      8                      9
                      A                      A                      A
 Frequencies --    379.9159               419.1097               465.6935
 Red. masses --      1.8331                 3.0452                 2.3831
 Frc consts  --      0.1559                 0.3152                 0.3045
 IR Inten    --     38.2181                11.4871                 4.5223

                     10                     11                     12
                      A                      A                      A
 Frequencies --    495.4933               611.9359               676.2191
 Red. masses --      2.5089                 5.0066                 3.1692
 Frc consts  --      0.3629                 1.1046                 0.8538
 IR Inten    --      2.0323                11.8676                 3.7148

                     13                     14                     15
                      A                      A                      A
 Frequencies --    715.4857               773.6860               843.4976
 Red. masses --      3.6131                 3.3968                 1.9167
 Frc consts  --      1.0898                 1.1980                 0.8035
 IR Inten    --      0.4277                 0.8943                 3.0307

                     16                     17                     18
                      A                      A                      A
 Frequencies --    905.4182               908.3711               923.9019
 Red. masses --      1.7913                 2.3509                 2.1988
 Frc consts  --      0.8652                 1.1429                 1.1058
 IR Inten    --      3.7589                11.2466                10.3682

                     19                     20                     21
                      A                      A                      A
 Frequencies --    968.6683               988.0833              1009.6415
 Red. masses --      1.6724                 1.7024                 1.8116
 Frc consts  --      0.9246                 0.9792                 1.0881
 IR Inten    --      6.1985                 8.0170                 0.4136

                     22                     23                     24
                      A                      A                      A
 Frequencies --   1013.8260              1036.3038              1075.0391
 Red. masses --      1.6214                 4.6907                 1.9257
 Frc consts  --      0.9819                 2.9680                 1.3113
 IR Inten    --     15.7114                45.8742                 9.3893

                     25                     26                     27
                      A                      A                      A
 Frequencies --   1092.9198              1112.4965              1136.3197
 Red. masses --      1.9413                 1.4355                 1.6320
 Frc consts  --      1.3662                 1.0468                 1.2416
 IR Inten    --      6.6432                 4.7242                 6.4568

                     28                     29                     30
                      A                      A                      A
 Frequencies --   1140.8546              1206.8713              1233.4019
 Red. masses --      1.5952                 1.7068                 1.4161
 Frc consts  --      1.2233                 1.4647                 1.2693
 IR Inten    --     16.3212                20.0075                50.5565

                     31                     32                     33
                      A                      A                      A
 Frequencies --   1240.2438              1256.5891              1264.9250
 Red. masses --      1.6062                 1.2389                 1.7137
 Frc consts  --      1.4557                 1.1526                 1.6155
 IR Inten    --     14.0378                19.8519                22.0633

                     34                     35                     36
                      A                      A                      A
 Frequencies --   1279.5821              1337.5697              1393.8954
 Red. masses --      1.5461                 2.3937                 2.0451
 Frc consts  --      1.4915                 2.5232                 2.3411
 IR Inten    --      4.7607               186.3438                 3.5716

                     37                     38                     39
                      A                      A                      A
 Frequencies --   1420.1854              1486.4946              1493.6000
 Red. masses --      1.5878                 1.1480                 2.7696
 Frc consts  --      1.8868                 1.4946                 3.6403
 IR Inten    --     12.5184                 1.7954                26.8702

                     40                     41                     42
                      A                      A                      A
 Frequencies --   1510.0583              1511.1965              2963.4047
 Red. masses --      1.1835                 1.1452                 1.0546
 Frc consts  --      1.5900                 1.5409                 5.4565
 IR Inten    --      1.7415                 3.5378                68.9445

                     43                     44                     45
                      A                      A                      A
 Frequencies --   2990.4574              3028.5172              3038.6919
 Red. masses --      1.1062                 1.0588                 1.0597
 Frc consts  --      5.8284                 5.7215                 5.7652
 IR Inten    --     49.3311                43.1450                69.0246

                     46                     47                     48
                      A                      A                      A
 Frequencies --   3092.4963              3104.3198              3189.8715
 Red. masses --      1.1056                 1.1046                 1.0914
 Frc consts  --      6.2294                 6.2717                 6.5433
 IR Inten    --     26.1581                27.3100                 8.5693

                     49                     50                     51
                      A                      A                      A
 Frequencies --   3200.0519              3794.0383              3820.4658
 Red. masses --      1.0947                 1.0655                 1.0662
 Frc consts  --      6.6049                 9.0364                 9.1691
 IR Inten    --     24.6651                29.0826                14.3216

 - Thermochemistry -
 -------------------
 Temperature   298.150 Kelvin.  Pressure   1.00000 Atm.
 Atom     1 has atomic number  8 and mass  15.99491

 Molecular mass:   126.06808 amu.
 Principal axes and moments of inertia in atomic units:
                           1         2         3
     Eigenvalues --   747.254241109.119431326.33376
           X            0.99986   0.00119  -0.01652
           Y           -0.00058   0.99931   0.03701
           Z            0.01655  -0.03700   0.99918
 This molecule is an asymmetric top.
 Rotational symmetry number  1.
 Warning -- assumption of classical behavior for rotation
           may cause significant error
 Rotational temperatures (Kelvin)      0.11591     0.07809     0.06530
 Rotational constants (GHZ):           2.41516     1.62718     1.36070
 Zero-point vibrational energy     417599.4 (Joules/Mol)
                                   99.80866 (Kcal/Mol)
 Warning -- explicit consideration of  11 degrees of freedom as
           vibrations may cause significant error
 Vibrational temperatures:     59.30   167.95   277.35   398.87   438.93
          (Kelvin)            481.04   546.61   603.00   670.03   712.90
                              880.44   972.93  1029.42  1113.16  1213.60
                             1302.69  1306.94  1329.29  1393.70  1421.63
                             1452.65  1458.67  1491.01  1546.74  1572.47
                             1600.63  1634.91  1641.43  1736.42  1774.59
                             1784.43  1807.95  1819.94  1841.03  1924.46
                             2005.50  2043.33  2138.73  2148.95  2172.63
                             2174.27  4263.67  4302.60  4357.36  4371.99
                             4449.41  4466.42  4589.51  4604.16  5458.77
                             5496.79

 Zero-point correction=                           0.159055 (Hartree/Particle)
 Thermal correction to Energy=                    0.167477
 Thermal correction to Enthalpy=                  0.168422
 Thermal correction to Gibbs Free Energy=         0.125701
 Sum of electronic and zero-point Energies=           -422.969967
 Sum of electronic and thermal Energies=              -422.961545
 Sum of electronic and thermal Enthalpies=            -422.960601
 Sum of electronic and thermal Free Energies=         -423.003321

                     E (Thermal)             CV                S
                      KCal/Mol        Cal/Mol-Kelvin    Cal/Mol-Kelvin
 Total                  105.094             32.575             89.913
 Electronic               0.000              0.000              0.000
 Translational            0.889              2.981             40.409
 Rotational               0.889              2.981             28.488
 Vibrational            103.316             26.613             21.016
 Vibration     1          0.594              1.981              5.200
 Vibration     2          0.608              1.935              3.154
 Vibration     3          0.635              1.850              2.201
 Vibration     4          0.678              1.716              1.551
 Vibration     5          0.696              1.664              1.389
 Vibration     6          0.716              1.607              1.239
 Vibration     7          0.750              1.513              1.040
 Vibration     8          0.782              1.429              0.895
 Vibration     9          0.823              1.326              0.750
 Vibration    10          0.851              1.260              0.669
 Vibration    11          0.971              1.007              0.430

 Optimization completed.
    -- Stationary point found.
 Normal termination of Gaussian 09 at Tue Jan 28 09:59:03 2020.
