 Gaussian 09, Revision D.01,
 Gaussian 09:  ES64L-G09RevD.01 24-Apr-2013

 -----------------------------
 # b3lyp 6-31G(2df,p) opt Freq
 -----------------------------

 -----
 titel
 -----
 Symbolic Z-matrix:
 Charge =  0 Multiplicity = 1

 SCF Done:  E(RB3LYP) =  -423.164698926     A.U. after   13 cycles
 Optimization completed.
    -- Stationary point found.
 Normal termination of Gaussian 09 at Mon Jan 27 17:29:08 2020.

 ----------------------------------------------------------------------
 #N Geom=AllCheck Guess=TCheck SCRF=Check GenChk RB3LYP/6-31G(2df,p) Fr
 eq
 ----------------------------------------------------------------------

 Structure from the checkpoint file:  "/scratch/puck/g09_2605e1ff-efb9-4a48-892f-f6fce0ec05f9/Gau-1886.chk"
 -----
 titel
 -----
 Charge =  0 Multiplicity = 1

                         Standard orientation:
 ---------------------------------------------------------------------
 Center     Atomic      Atomic             Coordinates (Angstroms)
 Number     Number       Type             X           Y           Z
 ---------------------------------------------------------------------
      1          6           0       -2.657714   -0.339166   -0.470670
      2          6           0       -1.255627   -0.003799   -0.041050
      3          6           0       -0.626579    1.337407   -0.433661
      4          6           0        0.889161    1.124858   -0.407847
      5          6           0        1.591617    0.757558    0.888050
      6          6           0        1.177666   -0.319164   -0.080936
      7          8           0        2.109229   -1.045044   -0.821494
      8          6           0       -0.168534   -0.974636    0.179220
      9          8           0       -0.892365   -0.425896    1.290335
     10          1           0       -3.374210    0.376664   -0.052207
     11          1           0       -2.750104   -0.307270   -1.561304
     12          1           0       -2.935165   -1.337389   -0.123059
     13          1           0       -0.946744    1.601528   -1.447890
     14          1           0       -0.962441    2.139992    0.232557
     15          1           0        1.491166    1.627064   -1.156263
     16          1           0        2.652296    0.984483    0.922385
     17          1           0        1.058819    0.837596    1.827532
     18          1           0        2.600626   -1.607321   -0.212597
     19          1           0       -0.269094   -2.046175    0.021482
 ---------------------------------------------------------------------

 SCF Done:  E(RB3LYP) =  -423.164698926     A.U. after    1 cycles

 The electronic state is 1-A.
 Alpha  occ. eigenvalues --  -19.14632 -19.14387 -10.23672 -10.23563 -10.22857
 Alpha  occ. eigenvalues --  -10.18759 -10.18672 -10.18220 -10.17942  -1.06710
 Alpha  occ. eigenvalues --   -1.03005  -0.85678  -0.76283  -0.70391  -0.67900
 Alpha  occ. eigenvalues --   -0.59083  -0.56351  -0.56140  -0.53002  -0.47069
 Alpha  occ. eigenvalues --   -0.45074  -0.44785  -0.42935  -0.41980  -0.39891
 Alpha  occ. eigenvalues --   -0.39376  -0.37656  -0.36109  -0.34823  -0.32147
 Alpha  occ. eigenvalues --   -0.30098  -0.27885  -0.25056  -0.24665
 Alpha virt. eigenvalues --    0.07876   0.08424   0.09293   0.11518   0.12354
 Alpha virt. eigenvalues --    0.14086   0.15118   0.15941   0.16944   0.17234
 Alpha virt. eigenvalues --    0.18093   0.18567   0.19109   0.21505   0.22763

 Mulliken charges:
               1
     1  C   -0.480156
     2  C    0.418737
     3  C   -0.300701
     4  C   -0.091729
     5  C   -0.349014
     6  C    0.376149
     7  O   -0.467794
     8  C   -0.120338
     9  O   -0.293970
    10  H    0.127078
    11  H    0.123116
    12  H    0.129925
    13  H    0.105758
    14  H    0.112470
    15  H    0.095973
    16  H    0.107260
    17  H    0.132709
    18  H    0.284836
    19  H    0.089690
 Sum of Mulliken charges =   0.00000

 Dipole moment (field-independent basis, Debye):
    X=              0.0732    Y=             -0.1360    Z=             -0.4856  Tot=              0.5095
 Quadrupole moment (field-independent basis, Debye-Ang):
   XX=            -49.3672   YY=            -49.8766   ZZ=            -56.9685
   XY=             -2.0350   XZ=              4.9146   YZ=             -1.3060

  Exact polarizability:  85.885  -2.060  72.691   4.220  -1.168  63.969
 Approx polarizability: 110.592  -7.380 108.481   2.789  -2.030 105.050

                      1                      2                      3
                      A                      A                      A
 Frequencies --    159.2752               192.6022               208.5310
 Red. masses --      2.5635                 1.1734                 2.6528
 Frc consts  --      0.0383                 0.0256                 0.0680
 IR Inten    --      1.9585                 0.4436                 7.9106

                      4                      5                      6
                      A                      A                      A
 Frequencies --    288.9085               303.5963               355.8181
 Red. masses --      2.7681                 1.1510                 2.9469
 Frc consts  --      0.1361                 0.0625                 0.2198
 IR Inten    --      7.6673                65.7807                 8.7933

                      7                      8                      9
                      A                      A                      A
 Frequencies --    370.7929               402.3319               428.5402
 Red. masses --      3.9956                 2.9582                 2.0390
 Frc consts  --      0.3237                 0.2821                 0.2206
 IR Inten    --     15.8754                13.9554                 6.3186

                     10                     11                     12
                      A                      A                      A
 Frequencies --    527.1394               575.7715               619.5055
 Red. masses --      4.8732                 3.7215                 3.4661
 Frc consts  --      0.7978                 0.7269                 0.7838
 IR Inten    --      4.2161                 1.2475                 2.5735

                     13                     14                     15
                      A                      A                      A
 Frequencies --    718.7481               759.1804               835.3118
 Red. masses --      4.6772                 4.4049                 2.1633
 Frc consts  --      1.4236                 1.4958                 0.8893
 IR Inten    --      1.0865                 5.6376                17.6985

                     16                     17                     18
                      A                      A                      A
 Frequencies --    845.7855               874.0702               899.0767
 Red. masses --      2.2757                 2.0016                 2.7836
 Frc consts  --      0.9591                 0.9010                 1.3257
 IR Inten    --     12.2594                 1.0628                24.0812

                     19                     20                     21
                      A                      A                      A
 Frequencies --    923.6836               954.0216               999.0258
 Red. masses --      2.0787                 1.7806                 1.7299
 Frc consts  --      1.0449                 0.9549                 1.0173
 IR Inten    --      4.5429                11.3866                 0.1678

                     22                     23                     24
                      A                      A                      A
 Frequencies --   1019.9358              1058.3887              1068.4117
 Red. masses --      1.8746                 1.4664                 1.3796
 Frc consts  --      1.1489                 0.9678                 0.9279
 IR Inten    --      5.9949                 3.3406                 4.9326

                     25                     26                     27
                      A                      A                      A
 Frequencies --   1084.8016              1096.4070              1117.3013
 Red. masses --      1.6874                 1.9115                 1.7968
 Frc consts  --      1.1700                 1.3538                 1.3216
 IR Inten    --      4.8814                13.3087                 3.1506

                     28                     29                     30
                      A                      A                      A
 Frequencies --   1217.6294              1223.8445              1229.1853
 Red. masses --      1.6316                 1.4503                 1.9347
 Frc consts  --      1.4252                 1.2798                 1.7222
 IR Inten    --     58.7392                13.9650                19.5001

                     31                     32                     33
                      A                      A                      A
 Frequencies --   1257.1554              1289.9830              1323.2466
 Red. masses --      1.4817                 3.1729                 1.6305
 Frc consts  --      1.3797                 3.1108                 1.6821
 IR Inten    --     35.0378                 7.3376                41.2723

                     34                     35                     36
                      A                      A                      A
 Frequencies --   1347.5345              1394.2279              1409.9757
 Red. masses --      1.6889                 1.8774                 1.3236
 Frc consts  --      1.8069                 2.1501                 1.5504
 IR Inten    --      7.1375                 3.5266                 3.6075

                     37                     38                     39
                      A                      A                      A
 Frequencies --   1437.4697              1474.3181              1481.4887
 Red. masses --      2.1681                 1.2380                 1.2604
 Frc consts  --      2.6395                 1.5855                 1.6299
 IR Inten    --     18.1025                 2.6573                12.7201

                     40                     41                     42
                      A                      A                      A
 Frequencies --   1487.0526              1496.5321              3033.0807
 Red. masses --      1.2558                 1.1626                 1.0392
 Frc consts  --      1.6362                 1.5341                 5.6326
 IR Inten    --      3.7444                 1.3261                10.9300

                     43                     44                     45
                      A                      A                      A
 Frequencies --   3040.0445              3077.1980              3096.2474
 Red. masses --      1.0563                 1.1038                 1.1000
 Frc consts  --      5.7518                 6.1582                 6.2133
 IR Inten    --     42.8786                12.4843                19.9488

                     46                     47                     48
                      A                      A                      A
 Frequencies --   3122.8963              3135.1137              3141.5178
 Red. masses --      1.1011                 1.0544                 1.0907
 Frc consts  --      6.3270                 6.1058                 6.3424
 IR Inten    --     13.6289                13.8347                22.8558

                     49                     50                     51
                      A                      A                      A
 Frequencies --   3178.7937              3233.6499              3794.8521
 Red. masses --      1.0910                 1.1159                 1.0662
 Frc consts  --      6.4955                 6.8751                 9.0465
 IR Inten    --      9.3906                 2.9358                21.7095

 - Thermochemistry -
 -------------------
 Temperature   298.150 Kelvin.  Pressure   1.00000 Atm.
 Atom     1 has atomic number  6 and mass  12.00000

 Molecular mass:   126.06808 amu.
 Principal axes and moments of inertia in atomic units:
                           1         2         3
     Eigenvalues --   580.314281287.642791409.12479
           X            0.99934   0.01111   0.03459
           Y           -0.01082   0.99991  -0.00853
           Z           -0.03468   0.00815   0.99937
 This molecule is an asymmetric top.
 Rotational symmetry number  1.
 Warning -- assumption of classical behavior for rotation
           may cause significant error
 Rotational temperatures (Kelvin)      0.14925     0.06727     0.06147
 Rotational constants (GHZ):           3.10994     1.40159     1.28075
 Zero-point vibrational energy     416360.3 (Joules/Mol)
                                   99.51249 (Kcal/Mol)
 Warning -- explicit consideration of  12 degrees of freedom as
           vibrations may cause significant error
 Vibrational temperatures:    229.16   277.11   300.03   415.67   436.81
          (Kelvin)            511.94   533.49   578.87   616.57   758.44
                              828.41   891.33  1034.12  1092.29  1201.83
                             1216.90  1257.59  1293.57  1328.97  1372.62
                             1437.37  1467.46  1522.78  1537.20  1560.79
                             1577.48  1607.55  1751.89  1760.84  1768.52
                             1808.76  1856.00  1903.85  1938.80  2005.98
                             2028.64  2068.20  2121.21  2131.53  2139.53
                             2153.17  4363.92  4373.94  4427.40  4454.80
                             4493.15  4510.72  4519.94  4573.57  4652.50
                             5459.94

 Zero-point correction=                           0.158583 (Hartree/Particle)
 Thermal correction to Energy=                    0.166699
 Thermal correction to Enthalpy=                  0.167643
 Thermal correction to Gibbs Free Energy=         0.126621
 Sum of electronic and zero-point Energies=           -423.006116
 Sum of electronic and thermal Energies=              -422.998000
 Sum of electronic and thermal Enthalpies=            -422.997056
 Sum of electronic and thermal Free Energies=         -423.038078

                     E (Thermal)             CV                S
                      KCal/Mol        Cal/Mol-Kelvin    Cal/Mol-Kelvin
 Total                  104.605             32.728             86.338
 Electronic               0.000              0.000              0.000
 Translational            0.889              2.981             40.409
 Rotational               0.889              2.981             28.445
 Vibrational            102.828             26.766             17.484
 Vibration     1          0.621              1.892              2.558
 Vibration     2          0.635              1.850              2.203
 Vibration     3          0.642              1.828              2.057
 Vibration     4          0.685              1.694              1.480
 Vibration     5          0.695              1.667              1.397
 Vibration     6          0.731              1.563              1.140
 Vibration     7          0.743              1.532              1.077
 Vibration     8          0.768              1.465              0.954
 Vibration     9          0.790              1.408              0.863
 Vibration    10          0.882              1.190              0.594
 Vibration    11          0.932              1.084              0.493
 Vibration    12          0.979              0.991              0.417

 Optimization completed.
    -- Stationary point found.
 Normal termination of Gaussian 09 at Mon Jan 27 18:16:19 2020.
