 Gaussian 09, Revision D.01,
 Gaussian 09:  ES64L-G09RevD.01 24-Apr-2013

 -----------------------------
 # b3lyp 6-31G(2df,p) opt Freq
 -----------------------------

 -----
 titel
 -----
 Symbolic Z-matrix:
 Charge =  0 Multiplicity = 1

 SCF Done:  E(RB3LYP) =  -423.197711451     A.U. after   14 cycles
 Optimization completed.
    -- Stationary point found.
 Normal termination of Gaussian 09 at Tue Jan 28 08:10:26 2020.

 ----------------------------------------------------------------------
 #N Geom=AllCheck Guess=TCheck SCRF=Check GenChk RB3LYP/6-31G(2df,p) Fr
 eq
 ----------------------------------------------------------------------

 Structure from the checkpoint file:  "/scratch/puck/g09_5da9b1a5-0214-4994-a894-0ecd5b2bf117/Gau-74138.chk"
 -----
 titel
 -----
 Charge =  0 Multiplicity = 1

                         Standard orientation:
 ---------------------------------------------------------------------
 Center     Atomic      Atomic             Coordinates (Angstroms)
 Number     Number       Type             X           Y           Z
 ---------------------------------------------------------------------
      1          8           0        2.471546   -1.139758   -0.281323
      2          6           0        1.371040   -0.692621    0.506056
      3          6           0        1.612026    0.796330    0.819433
      4          6           0        0.971609    1.576997   -0.352807
      5          6           0       -0.148950    0.672687   -0.847018
      6          6           0       -1.085761    0.109800    0.222103
      7          6           0       -2.439786   -0.294971   -0.210017
      8          8           0       -3.436350   -0.211023    0.464506
      9          6           0        0.087800   -0.703924   -0.318563
     10          1           0        2.313047   -2.056731   -0.527838
     11          1           0        1.288124   -1.294442    1.422453
     12          1           0        1.138586    1.058792    1.769321
     13          1           0        2.681571    0.987232    0.923942
     14          1           0        0.623097    2.569988   -0.053134
     15          1           0        1.695845    1.711635   -1.162914
     16          1           0       -0.564213    0.834154   -1.836038
     17          1           0       -1.040504    0.504704    1.231456
     18          1           0       -2.481579   -0.701592   -1.249981
     19          1           0       -0.143411   -1.593286   -0.897857
 ---------------------------------------------------------------------

 SCF Done:  E(RB3LYP) =  -423.197711451     A.U. after    1 cycles

 The electronic state is 1-A.
 Alpha  occ. eigenvalues --  -19.14321 -19.13016 -10.26731 -10.24380 -10.20936
 Alpha  occ. eigenvalues --  -10.20746 -10.20475 -10.19313 -10.18801  -1.03834
 Alpha  occ. eigenvalues --   -1.02605  -0.89827  -0.77722  -0.71027  -0.66934
 Alpha  occ. eigenvalues --   -0.59188  -0.57443  -0.57232  -0.51861  -0.50805
 Alpha  occ. eigenvalues --   -0.47821  -0.44438  -0.42726  -0.42044  -0.40650
 Alpha  occ. eigenvalues --   -0.38630  -0.38150  -0.36167  -0.35288  -0.33064
 Alpha  occ. eigenvalues --   -0.30366  -0.29935  -0.27145  -0.24759
 Alpha virt. eigenvalues --   -0.01723   0.06930   0.08623   0.10023   0.12463
 Alpha virt. eigenvalues --    0.12613   0.13502   0.13903   0.16212   0.16533
 Alpha virt. eigenvalues --    0.16871   0.18681   0.19171   0.20775   0.23668

 Mulliken charges:
               1
     1  O   -0.435913
     2  C    0.124314
     3  C   -0.241679
     4  C   -0.224528
     5  C   -0.043739
     6  C   -0.128944
     7  C    0.158701
     8  O   -0.273557
     9  C   -0.085748
    10  H    0.282282
    11  H    0.071086
    12  H    0.110750
    13  H    0.118186
    14  H    0.106083
    15  H    0.119359
    16  H    0.094357
    17  H    0.102808
    18  H    0.060809
    19  H    0.085374
 Sum of Mulliken charges =   0.00000

 Dipole moment (field-independent basis, Debye):
    X=              2.2593    Y=             -0.5809    Z=             -0.9352  Tot=              2.5132
 Quadrupole moment (field-independent basis, Debye-Ang):
   XX=            -70.5379   YY=            -47.6840   ZZ=            -51.6348
   XY=             -1.0839   XZ=              4.4476   YZ=              1.2886

  Exact polarizability:  94.352   1.948  70.306  -2.096   2.009  67.949
 Approx polarizability: 132.360   0.365 102.873 -12.815   3.149 107.017

                      1                      2                      3
                      A                      A                      A
 Frequencies --     89.4496               145.1643               153.5644
 Red. masses --      6.1689                 4.9615                 2.8004
 Frc consts  --      0.0291                 0.0616                 0.0389
 IR Inten    --      5.3435                 6.2555                 1.1738

                      4                      5                      6
                      A                      A                      A
 Frequencies --    249.0538               273.5594               293.9075
 Red. masses --      2.0969                 2.1598                 1.1511
 Frc consts  --      0.0766                 0.0952                 0.0586
 IR Inten    --      1.8389                 5.4127               108.0359

                      7                      8                      9
                      A                      A                      A
 Frequencies --    351.8666               385.5374               436.1011
 Red. masses --      4.5862                 3.6041                 2.5849
 Frc consts  --      0.3345                 0.3156                 0.2896
 IR Inten    --      3.4005                 0.8847                 9.8370

                     10                     11                     12
                      A                      A                      A
 Frequencies --    526.2416               656.8873               761.3299
 Red. masses --      4.6075                 2.5562                 4.1172
 Frc consts  --      0.7518                 0.6499                 1.4060
 IR Inten    --     24.9063                 5.7700                 6.0130

                     13                     14                     15
                      A                      A                      A
 Frequencies --    800.9583               827.2217               878.9912
 Red. masses --      2.3132                 2.5160                 2.5019
 Frc consts  --      0.8743                 1.0144                 1.1389
 IR Inten    --      0.2706                 1.8161                18.1933

                     16                     17                     18
                      A                      A                      A
 Frequencies --    886.4218               944.1686               957.6550
 Red. masses --      2.4635                 2.2333                 1.8078
 Frc consts  --      1.1404                 1.1730                 0.9769
 IR Inten    --      2.2474                 1.7718                16.7964

                     19                     20                     21
                      A                      A                      A
 Frequencies --    991.2911              1006.2319              1031.1907
 Red. masses --      1.7460                 1.8504                 2.7759
 Frc consts  --      1.0109                 1.1039                 1.7391
 IR Inten    --     24.2136                19.3969                57.3402

                     22                     23                     24
                      A                      A                      A
 Frequencies --   1051.0829              1076.1062              1082.2212
 Red. masses --      1.8547                 2.0365                 1.2793
 Frc consts  --      1.2072                 1.3895                 0.8828
 IR Inten    --      1.2335                19.9675                 4.7390

                     25                     26                     27
                      A                      A                      A
 Frequencies --   1110.0791              1153.7276              1184.6194
 Red. masses --      1.3019                 1.9698                 1.2121
 Frc consts  --      0.9452                 1.5448                 1.0022
 IR Inten    --      3.4021                58.4588                 4.7200

                     28                     29                     30
                      A                      A                      A
 Frequencies --   1204.7604              1205.8575              1245.8676
 Red. masses --      1.6749                 1.7109                 1.4061
 Frc consts  --      1.4323                 1.4657                 1.2859
 IR Inten    --     32.3203                15.4381                 1.7000

                     31                     32                     33
                      A                      A                      A
 Frequencies --   1252.8370              1308.4354              1330.2591
 Red. masses --      1.2113                 1.3240                 1.4578
 Frc consts  --      1.1202                 1.3355                 1.5200
 IR Inten    --     43.8476                 0.6152                 3.9817

                     34                     35                     36
                      A                      A                      A
 Frequencies --   1338.7212              1354.0616              1394.7999
 Red. masses --      1.4792                 1.6479                 1.6334
 Frc consts  --      1.5619                 1.7801                 1.8723
 IR Inten    --     34.6468                 8.8004                 2.4680

                     37                     38                     39
                      A                      A                      A
 Frequencies --   1428.9941              1449.1324              1483.5466
 Red. masses --      1.4349                 1.6023                 1.0827
 Frc consts  --      1.7263                 1.9825                 1.4040
 IR Inten    --      5.5461                14.5345                 3.1054

                     40                     41                     42
                      A                      A                      A
 Frequencies --   1497.8231              1820.4243              2833.8021
 Red. masses --      1.1013                10.1038                 1.0807
 Frc consts  --      1.4558                19.7279                 5.1130
 IR Inten    --      4.4832               298.1218               100.9575

                     43                     44                     45
                      A                      A                      A
 Frequencies --   2996.6252              3049.2000              3070.8368
 Red. masses --      1.0843                 1.0592                 1.0690
 Frc consts  --      5.7369                 5.8022                 5.9392
 IR Inten    --     55.2769                31.6859                13.7398

                     46                     47                     48
                      A                      A                      A
 Frequencies --   3090.5732              3123.8831              3148.5491
 Red. masses --      1.0993                 1.1023                 1.0890
 Frc consts  --      6.1865                 6.3381                 6.3605
 IR Inten    --     23.4094                16.5558                14.9573

                     49                     50                     51
                      A                      A                      A
 Frequencies --   3169.2989              3174.5650              3815.4657
 Red. masses --      1.0925                 1.0877                 1.0662
 Frc consts  --      6.4653                 6.4586                 9.1450
 IR Inten    --      9.7716                 8.7304                20.0254

 - Thermochemistry -
 -------------------
 Temperature   298.150 Kelvin.  Pressure   1.00000 Atm.
 Atom     1 has atomic number  8 and mass  15.99491

 Molecular mass:   126.06808 amu.
 Principal axes and moments of inertia in atomic units:
                           1         2         3
     Eigenvalues --   507.491171811.211872010.26835
           X            0.99987   0.00771   0.01444
           Y           -0.00805   0.99968   0.02382
           Z           -0.01425  -0.02393   0.99961
 This molecule is an asymmetric top.
 Rotational symmetry number  1.
 Warning -- assumption of classical behavior for rotation
           may cause significant error
 Rotational temperatures (Kelvin)      0.17067     0.04782     0.04309
 Rotational constants (GHZ):           3.55620     0.99643     0.89776
 Zero-point vibrational energy     419248.9 (Joules/Mol)
                                  100.20290 (Kcal/Mol)
 Warning -- explicit consideration of  10 degrees of freedom as
           vibrations may cause significant error
 Vibrational temperatures:    128.70   208.86   220.94   358.33   393.59
          (Kelvin)            422.87   506.26   554.70   627.45   757.14
                              945.11  1095.38  1152.40  1190.19  1264.67
                             1275.36  1358.45  1377.85  1426.25  1447.74
                             1483.65  1512.27  1548.27  1557.07  1597.15
                             1659.95  1704.40  1733.38  1734.96  1792.52
                             1802.55  1882.54  1913.94  1926.12  1948.19
                             2006.80  2056.00  2084.98  2134.49  2155.03
                             2619.18  4077.20  4311.47  4387.11  4418.24
                             4446.64  4494.57  4530.05  4559.91  4567.49
                             5489.60

 Zero-point correction=                           0.159683 (Hartree/Particle)
 Thermal correction to Energy=                    0.168053
 Thermal correction to Enthalpy=                  0.168998
 Thermal correction to Gibbs Free Energy=         0.126569
 Sum of electronic and zero-point Energies=           -423.038028
 Sum of electronic and thermal Energies=              -423.029658
 Sum of electronic and thermal Enthalpies=            -423.028714
 Sum of electronic and thermal Free Energies=         -423.071142

                     E (Thermal)             CV                S
                      KCal/Mol        Cal/Mol-Kelvin    Cal/Mol-Kelvin
 Total                  105.455             31.859             89.298
 Electronic               0.000              0.000              0.000
 Translational            0.889              2.981             40.409
 Rotational               0.889              2.981             29.004
 Vibrational            103.678             25.897             19.886
 Vibration     1          0.602              1.957              3.672
 Vibration     2          0.617              1.908              2.735
 Vibration     3          0.619              1.899              2.628
 Vibration     4          0.662              1.764              1.737
 Vibration     5          0.676              1.722              1.574
 Vibration     6          0.689              1.685              1.451
 Vibration     7          0.728              1.571              1.158
 Vibration     8          0.754              1.501              1.017
 Vibration     9          0.797              1.392              0.839
 Vibration    10          0.881              1.192              0.596

 Optimization completed.
    -- Stationary point found.
 Normal termination of Gaussian 09 at Tue Jan 28 08:56:29 2020.
