 Gaussian 09, Revision D.01,
 Gaussian 09:  ES64L-G09RevD.01 24-Apr-2013

 -----------------------------
 # b3lyp 6-31G(2df,p) opt Freq
 -----------------------------

 -----
 titel
 -----
 Symbolic Z-matrix:
 Charge =  0 Multiplicity = 1

 SCF Done:  E(RB3LYP) =  -423.143574353     A.U. after   13 cycles
 Optimization completed.
    -- Stationary point found.
 Normal termination of Gaussian 09 at Tue Jan 28 12:11:21 2020.

 ----------------------------------------------------------------------
 #N Geom=AllCheck Guess=TCheck SCRF=Check GenChk RB3LYP/6-31G(2df,p) Fr
 eq
 ----------------------------------------------------------------------

 Structure from the checkpoint file:  "/scratch/puck/g09_bc8b9dd0-0ce0-46b0-8027-83517c6804f2/Gau-115458.chk"
 -----
 titel
 -----
 Charge =  0 Multiplicity = 1

                         Standard orientation:
 ---------------------------------------------------------------------
 Center     Atomic      Atomic             Coordinates (Angstroms)
 Number     Number       Type             X           Y           Z
 ---------------------------------------------------------------------
      1          6           0        2.783850    0.414340   -0.674583
      2          6           0        2.035127   -0.242603    0.493446
      3          6           0        0.553308   -0.208412    0.304269
      4          8           0        0.001026   -0.908566   -0.821085
      5          6           0       -1.273573   -1.014007   -0.113393
      6          6           0       -2.136799    0.139612   -0.601185
      7          8           0       -1.384670    1.307014   -0.242454
      8          6           0       -0.413424    0.904041    0.694654
      9          6           0       -0.638121   -0.495023    1.195615
     10          1           0        3.866070    0.345513   -0.531658
     11          1           0        2.530971   -0.078061   -1.617571
     12          1           0        2.516978    1.471686   -0.767235
     13          1           0        2.355384   -1.286197    0.604502
     14          1           0        2.275607    0.263991    1.436114
     15          1           0       -1.703267   -2.014890   -0.165035
     16          1           0       -2.264037    0.123310   -1.687586
     17          1           0       -3.125415    0.148887   -0.116165
     18          1           0       -0.083172    1.701115    1.350356
     19          1           0       -0.762170   -0.850630    2.209654
 ---------------------------------------------------------------------

 SCF Done:  E(RB3LYP) =  -423.143574353     A.U. after    1 cycles

 The electronic state is 1-A.
 Alpha  occ. eigenvalues --  -19.14034 -19.13621 -10.24437 -10.24044 -10.23457
 Alpha  occ. eigenvalues --  -10.22856 -10.19146 -10.18959 -10.17340  -1.07398
 Alpha  occ. eigenvalues --   -1.01318  -0.82869  -0.77609  -0.73964  -0.65089
 Alpha  occ. eigenvalues --   -0.60720  -0.59054  -0.54162  -0.51011  -0.50043
 Alpha  occ. eigenvalues --   -0.46231  -0.44702  -0.43465  -0.41126  -0.40086
 Alpha  occ. eigenvalues --   -0.39057  -0.36772  -0.35644  -0.34377  -0.33621
 Alpha  occ. eigenvalues --   -0.32165  -0.29672  -0.25222  -0.21292
 Alpha virt. eigenvalues --    0.07603   0.09460   0.11021   0.12394   0.12831
 Alpha virt. eigenvalues --    0.13647   0.14998   0.15696   0.15983   0.16506
 Alpha virt. eigenvalues --    0.16836   0.17812   0.18623   0.19750   0.21349

 Mulliken charges:
               1
     1  C   -0.375491
     2  C   -0.305992
     3  C    0.466393
     4  O   -0.339329
     5  C    0.057040
     6  C   -0.075815
     7  O   -0.266292
     8  C    0.035883
     9  C   -0.286863
    10  H    0.110516
    11  H    0.139237
    12  H    0.122802
    13  H    0.108824
    14  H    0.102918
    15  H    0.088314
    16  H    0.119708
    17  H    0.092501
    18  H    0.106801
    19  H    0.098843
 Sum of Mulliken charges =   0.00000

 Dipole moment (field-independent basis, Debye):
    X=             -0.0945    Y=             -0.8943    Z=              1.7148  Tot=              1.9363
 Quadrupole moment (field-independent basis, Debye-Ang):
   XX=            -49.2247   YY=            -54.8356   ZZ=            -52.4370
   XY=              3.9512   XZ=              1.2602   YZ=              0.3152

  Exact polarizability:  88.877   2.741  67.107   1.942   0.350  67.777
 Approx polarizability: 114.153   2.234 105.155   0.832   1.794 103.476

                      1                      2                      3
                      A                      A                      A
 Frequencies --     84.3044               129.6189               189.6865
 Red. masses --      2.6041                 3.2084                 1.1802
 Frc consts  --      0.0109                 0.0318                 0.0250
 IR Inten    --      0.5297                 1.2808                 0.2396

                      4                      5                      6
                      A                      A                      A
 Frequencies --    256.0657               300.4755               361.1881
 Red. masses --      3.1025                 1.9006                 3.7601
 Frc consts  --      0.1199                 0.1011                 0.2890
 IR Inten    --      4.9343                 1.2918                 0.1793

                      7                      8                      9
                      A                      A                      A
 Frequencies --    424.3164               523.8508               640.9975
 Red. masses --      3.1706                 3.8342                 2.9310
 Frc consts  --      0.3363                 0.6199                 0.7095
 IR Inten    --      2.3738                 1.9370                 5.2507

                     10                     11                     12
                      A                      A                      A
 Frequencies --    731.2914               751.5945               780.9388
 Red. masses --      3.6916                 2.1611                 6.4563
 Frc consts  --      1.1632                 0.7193                 2.3199
 IR Inten    --      6.3360                 4.2233                20.4195

                     13                     14                     15
                      A                      A                      A
 Frequencies --    801.0644               842.1212               886.6882
 Red. masses --      1.6332                 2.5950                 2.5387
 Frc consts  --      0.6175                 1.0843                 1.1760
 IR Inten    --      4.3352                21.8979                 9.1581

                     16                     17                     18
                      A                      A                      A
 Frequencies --    890.6685               916.6177               939.7834
 Red. masses --      1.5108                 2.6517                 3.1393
 Frc consts  --      0.7061                 1.3127                 1.6336
 IR Inten    --      0.7936                16.9531                19.7311

                     19                     20                     21
                      A                      A                      A
 Frequencies --    971.2575               999.0593              1017.7817
 Red. masses --      1.9727                 2.4687                 1.5571
 Frc consts  --      1.0964                 1.4518                 0.9503
 IR Inten    --     26.4615                10.1021                 2.9521

                     22                     23                     24
                      A                      A                      A
 Frequencies --   1020.2292              1047.8163              1082.3683
 Red. masses --      2.8097                 2.0555                 2.2958
 Frc consts  --      1.7231                 1.3297                 1.5847
 IR Inten    --      9.2039                23.6155                14.4868

                     25                     26                     27
                      A                      A                      A
 Frequencies --   1102.8145              1115.8093              1171.7406
 Red. masses --      3.0158                 2.6186                 1.7863
 Frc consts  --      2.1610                 1.9209                 1.4450
 IR Inten    --     70.6859                52.5451                14.6348

                     28                     29                     30
                      A                      A                      A
 Frequencies --   1198.6410              1224.2333              1259.5895
 Red. masses --      1.1884                 2.1647                 1.3920
 Frc consts  --      1.0060                 1.9115                 1.3012
 IR Inten    --      1.8113                10.3828                 6.2097

                     31                     32                     33
                      A                      A                      A
 Frequencies --   1270.4641              1292.2112              1321.4690
 Red. masses --      1.7019                 1.3514                 1.5638
 Frc consts  --      1.6185                 1.3296                 1.6090
 IR Inten    --      7.8211                 4.7234                 4.3635

                     34                     35                     36
                      A                      A                      A
 Frequencies --   1353.4924              1373.6264              1408.6654
 Red. masses --      1.4790                 1.5141                 1.2336
 Frc consts  --      1.5964                 1.6832                 1.4423
 IR Inten    --      5.6529                 0.7120                 1.4643

                     37                     38                     39
                      A                      A                      A
 Frequencies --   1452.9862              1472.7373              1495.5525
 Red. masses --      2.9201                 1.1099                 1.0438
 Frc consts  --      3.6322                 1.4183                 1.3756
 IR Inten    --      5.0101                 0.9778                 5.3404

                     40                     41                     42
                      A                      A                      A
 Frequencies --   1500.1113              1508.8744              2985.7605
 Red. masses --      1.1027                 1.1038                 1.0689
 Frc consts  --      1.4621                 1.4806                 5.6145
 IR Inten    --      0.5492                 3.7876                77.4683

                     43                     44                     45
                      A                      A                      A
 Frequencies --   3024.9795              3042.6019              3061.7903
 Red. masses --      1.0599                 1.0349                 1.1012
 Frc consts  --      5.7143                 5.6445                 6.0824
 IR Inten    --     24.2493                24.2990                13.6367

                     46                     47                     48
                      A                      A                      A
 Frequencies --   3087.5744              3112.6922              3114.8246
 Red. masses --      1.0947                 1.1021                 1.0910
 Frc consts  --      6.1489                 6.2915                 6.2363
 IR Inten    --     21.3299                32.7142                38.3985

                     49                     50                     51
                      A                      A                      A
 Frequencies --   3121.6754              3188.3487              3199.7688
 Red. masses --      1.1020                 1.0904                 1.0977
 Frc consts  --      6.3269                 6.5309                 6.6219
 IR Inten    --     20.7219                10.0014                10.6233

 - Thermochemistry -
 -------------------
 Temperature   298.150 Kelvin.  Pressure   1.00000 Atm.
 Atom     1 has atomic number  6 and mass  12.00000

 Molecular mass:   126.06808 amu.
 Principal axes and moments of inertia in atomic units:
                           1         2         3
     Eigenvalues --   518.179341355.476211415.05406
           X            0.99972   0.02343  -0.00412
           Y           -0.02365   0.99767  -0.06398
           Z            0.00262   0.06406   0.99794
 This molecule is an asymmetric top.
 Rotational symmetry number  1.
 Warning -- assumption of classical behavior for rotation
           may cause significant error
 Rotational temperatures (Kelvin)      0.16715     0.06390     0.06121
 Rotational constants (GHZ):           3.48285     1.33144     1.27539
 Zero-point vibrational energy     419008.9 (Joules/Mol)
                                  100.14553 (Kcal/Mol)
 Warning -- explicit consideration of   8 degrees of freedom as
           vibrations may cause significant error
 Vibrational temperatures:    121.30   186.49   272.92   368.42   432.32
          (Kelvin)            519.67   610.50   753.70   922.25  1052.16
                             1081.38  1123.60  1152.55  1211.62  1275.74
                             1281.47  1318.81  1352.14  1397.42  1437.42
                             1464.36  1467.88  1507.57  1557.28  1586.70
                             1605.40  1685.87  1724.57  1761.40  1812.27
                             1827.91  1859.20  1901.30  1947.37  1976.34
                             2026.75  2090.52  2118.94  2151.76  2158.32
                             2170.93  4295.84  4352.27  4377.62  4405.23
                             4442.33  4478.46  4481.53  4491.39  4587.32
                             4603.75

 Zero-point correction=                           0.159592 (Hartree/Particle)
 Thermal correction to Energy=                    0.167360
 Thermal correction to Enthalpy=                  0.168304
 Thermal correction to Gibbs Free Energy=         0.127196
 Sum of electronic and zero-point Energies=           -422.983982
 Sum of electronic and thermal Energies=              -422.976215
 Sum of electronic and thermal Enthalpies=            -422.975271
 Sum of electronic and thermal Free Energies=         -423.016378

                     E (Thermal)             CV                S
                      KCal/Mol        Cal/Mol-Kelvin    Cal/Mol-Kelvin
 Total                  105.020             30.263             86.518
 Electronic               0.000              0.000              0.000
 Translational            0.889              2.981             40.409
 Rotational               0.889              2.981             28.388
 Vibrational            103.242             24.302             17.722
 Vibration     1          0.601              1.960              3.788
 Vibration     2          0.612              1.924              2.952
 Vibration     3          0.633              1.854              2.231
 Vibration     4          0.666              1.753              1.688
 Vibration     5          0.693              1.673              1.414
 Vibration     6          0.735              1.552              1.117
 Vibration     7          0.786              1.417              0.877
 Vibration     8          0.879              1.197              0.601

 Optimization completed.
    -- Stationary point found.
 Normal termination of Gaussian 09 at Tue Jan 28 12:53:23 2020.
