 Gaussian 09, Revision D.01,
 Gaussian 09:  ES64L-G09RevD.01 24-Apr-2013

 -----------------------------
 # b3lyp 6-31G(2df,p) opt Freq
 -----------------------------

 -----
 titel
 -----
 Symbolic Z-matrix:
 Charge =  0 Multiplicity = 1

 SCF Done:  E(RB3LYP) =  -423.176053238     A.U. after   14 cycles
 Optimization completed.
    -- Stationary point found.
 Normal termination of Gaussian 09 at Mon Jan 27 16:15:22 2020.

 ----------------------------------------------------------------------
 #N Geom=AllCheck Guess=TCheck SCRF=Check GenChk RB3LYP/6-31G(2df,p) Fr
 eq
 ----------------------------------------------------------------------

 Structure from the checkpoint file:  "/scratch/puck/g09_155d8b96-b3ec-42d7-bde9-2058479551d3/Gau-47131.chk"
 -----
 titel
 -----
 Charge =  0 Multiplicity = 1

                         Standard orientation:
 ---------------------------------------------------------------------
 Center     Atomic      Atomic             Coordinates (Angstroms)
 Number     Number       Type             X           Y           Z
 ---------------------------------------------------------------------
      1          6           0       -2.102353    1.200339   -0.618673
      2          6           0       -1.439595   -0.035212   -0.053781
      3          8           0       -1.803061   -1.230870   -0.695878
      4          6           0       -1.101178   -0.115624    1.421592
      5          6           0       -0.009017   -0.014358    0.385085
      6          6           0        1.026391   -1.101126    0.045685
      7          6           0        2.052196    0.030672   -0.144548
      8          8           0        3.212001    0.059735   -0.433812
      9          6           0        1.014602    1.121630    0.197835
     10          1           0       -1.753707    2.107123   -0.116836
     11          1           0       -1.895363    1.293728   -1.689860
     12          1           0       -3.190445    1.148996   -0.489571
     13          1           0       -2.726514   -1.412943   -0.489073
     14          1           0       -1.301517    0.748907    2.047987
     15          1           0       -1.234986   -1.076338    1.908992
     16          1           0        1.283336   -1.797567    0.850627
     17          1           0        0.815843   -1.679993   -0.858515
     18          1           0        1.265510    1.696873    1.095410
     19          1           0        0.820049    1.822372   -0.620811
 ---------------------------------------------------------------------

 SCF Done:  E(RB3LYP) =  -423.176053238     A.U. after    1 cycles

 The electronic state is 1-A.
 Alpha  occ. eigenvalues --  -19.14778 -19.13351 -10.26822 -10.24590 -10.20359
 Alpha  occ. eigenvalues --  -10.19220 -10.18788 -10.18759 -10.18668  -1.04252
 Alpha  occ. eigenvalues --   -1.03422  -0.87512  -0.79782  -0.72034  -0.68230
 Alpha  occ. eigenvalues --   -0.60168  -0.54841  -0.52637  -0.50255  -0.47478
 Alpha  occ. eigenvalues --   -0.47070  -0.45268  -0.42413  -0.41864  -0.41223
 Alpha  occ. eigenvalues --   -0.39901  -0.38933  -0.36835  -0.35991  -0.33308
 Alpha  occ. eigenvalues --   -0.31901  -0.27563  -0.25971  -0.23907
 Alpha virt. eigenvalues --   -0.01790   0.06615   0.09789   0.10574   0.11015
 Alpha virt. eigenvalues --    0.12558   0.14046   0.14748   0.15821   0.16342
 Alpha virt. eigenvalues --    0.17660   0.18409   0.19130   0.23087   0.23874

 Mulliken charges:
               1
     1  C   -0.448304
     2  C    0.341683
     3  O   -0.460128
     4  C   -0.421727
     5  C    0.309967
     6  C   -0.411242
     7  C    0.405383
     8  O   -0.288319
     9  C   -0.432482
    10  H    0.121955
    11  H    0.127935
    12  H    0.111772
    13  H    0.283259
    14  H    0.110635
    15  H    0.114607
    16  H    0.128451
    17  H    0.146748
    18  H    0.129629
    19  H    0.130181
 Sum of Mulliken charges =   0.00000

 Dipole moment (field-independent basis, Debye):
    X=             -3.7693    Y=              0.5208    Z=              1.2537  Tot=              4.0063
 Quadrupole moment (field-independent basis, Debye-Ang):
   XX=            -60.0539   YY=            -51.3487   ZZ=            -52.8446
   XY=              0.4618   XZ=              1.7917   YZ=             -1.0383

  Exact polarizability:  90.801  -0.165  73.721  -1.768  -0.341  66.193
 Approx polarizability: 124.504   2.031 106.527  -4.884   1.676 100.925

                      1                      2                      3
                      A                      A                      A
 Frequencies --     41.2746               155.7322               169.3018
 Red. masses --      4.4093                 3.9781                 2.4147
 Frc consts  --      0.0044                 0.0568                 0.0408
 IR Inten    --      2.6720                 0.7325                 0.1224

                      4                      5                      6
                      A                      A                      A
 Frequencies --    211.4423               249.9160               284.8076
 Red. masses --      1.3342                 1.7621                 1.1260
 Frc consts  --      0.0351                 0.0648                 0.0538
 IR Inten    --      4.3608                16.3671                74.5297

                      7                      8                      9
                      A                      A                      A
 Frequencies --    371.6546               383.9122               417.0627
 Red. masses --      2.8096                 2.9428                 2.1589
 Frc consts  --      0.2287                 0.2556                 0.2212
 IR Inten    --      4.9122                 8.0700                 2.4845

                     10                     11                     12
                      A                      A                      A
 Frequencies --    441.5735               444.7057               505.7392
 Red. masses --      2.8408                 2.7448                 3.1382
 Frc consts  --      0.3264                 0.3198                 0.4729
 IR Inten    --      4.8494                 4.0332                 0.7297

                     13                     14                     15
                      A                      A                      A
 Frequencies --    567.1850               674.9723               695.1350
 Red. masses --      3.3377                 1.3831                 3.5173
 Frc consts  --      0.6326                 0.3712                 1.0014
 IR Inten    --      6.5526                 0.3961                 2.1048

                     16                     17                     18
                      A                      A                      A
 Frequencies --    721.0738               863.8432               890.6555
 Red. masses --      3.0497                 3.0687                 1.4332
 Frc consts  --      0.9343                 1.3492                 0.6699
 IR Inten    --      0.3978                 5.0645                 1.3847

                     19                     20                     21
                      A                      A                      A
 Frequencies --    904.8849               917.7933               982.3161
 Red. masses --      3.1265                 1.6596                 1.8180
 Frc consts  --      1.5083                 0.8236                 1.0336
 IR Inten    --     10.9313                 3.1465                 9.1462

                     22                     23                     24
                      A                      A                      A
 Frequencies --   1014.8804              1035.2252              1059.8404
 Red. masses --      1.3501                 1.3432                 2.7348
 Frc consts  --      0.8193                 0.8481                 1.8099
 IR Inten    --      4.7081                 0.7839                45.3440

                     25                     26                     27
                      A                      A                      A
 Frequencies --   1078.8987              1088.3791              1160.3943
 Red. masses --      2.1702                 1.7753                 2.6117
 Frc consts  --      1.4884                 1.2390                 2.0719
 IR Inten    --     13.3980                37.5529                 8.8610

                     28                     29                     30
                      A                      A                      A
 Frequencies --   1179.5403              1195.5774              1205.0562
 Red. masses --      2.1739                 1.4265                 1.9970
 Frc consts  --      1.7821                 1.2013                 1.7086
 IR Inten    --     19.5405                 0.7307                45.6741

                     31                     32                     33
                      A                      A                      A
 Frequencies --   1226.9345              1276.1944              1310.7226
 Red. masses --      1.7216                 3.3914                 1.5873
 Frc consts  --      1.5269                 3.2543                 1.6067
 IR Inten    --     20.2276                33.8227                29.9072

                     34                     35                     36
                      A                      A                      A
 Frequencies --   1407.3327              1420.8122              1427.2620
 Red. masses --      1.3244                 1.4162                 1.0982
 Frc consts  --      1.5455                 1.6844                 1.3181
 IR Inten    --      1.9320                 2.9338                16.5654

                     37                     38                     39
                      A                      A                      A
 Frequencies --   1445.9705              1479.7985              1486.3876
 Red. masses --      1.1418                 1.3223                 1.0865
 Frc consts  --      1.4066                 1.7060                 1.4144
 IR Inten    --      3.3903                 8.1408                 3.0483

                     40                     41                     42
                      A                      A                      A
 Frequencies --   1510.4211              1898.0038              3025.8728
 Red. masses --      1.4771                12.8212                 1.0379
 Frc consts  --      1.9854                27.2128                 5.5990
 IR Inten    --      5.3069               309.1761                28.4460

                     43                     44                     45
                      A                      A                      A
 Frequencies --   3044.6806              3053.6615              3087.9962
 Red. masses --      1.0577                 1.0603                 1.0984
 Frc consts  --      5.7772                 5.8255                 6.1711
 IR Inten    --     12.4015                12.3636                24.0231

                     46                     47                     48
                      A                      A                      A
 Frequencies --   3095.3534              3104.6087              3114.2153
 Red. masses --      1.1051                 1.1033                 1.0853
 Frc consts  --      6.2382                 6.2658                 6.2014
 IR Inten    --     10.2314                 3.2048                 8.9198

                     49                     50                     51
                      A                      A                      A
 Frequencies --   3117.4634              3206.9048              3794.3126
 Red. masses --      1.0684                 1.1171                 1.0661
 Frc consts  --      6.1177                 6.7686                 9.0429
 IR Inten    --     19.3708                 6.9037                15.9732

 - Thermochemistry -
 -------------------
 Temperature   298.150 Kelvin.  Pressure   1.00000 Atm.
 Atom     1 has atomic number  6 and mass  12.00000

 Molecular mass:   126.06808 amu.
 Principal axes and moments of inertia in atomic units:
                           1         2         3
     Eigenvalues --   540.311151690.269351828.16121
           X            0.99982  -0.01744   0.00762
           Y            0.01784   0.99826  -0.05615
           Z           -0.00663   0.05628   0.99839
 This molecule is an asymmetric top.
 Rotational symmetry number  1.
 Warning -- assumption of classical behavior for rotation
           may cause significant error
 Rotational temperatures (Kelvin)      0.16030     0.05124     0.04738
 Rotational constants (GHZ):           3.34019     1.06772     0.98719
 Zero-point vibrational energy     409408.1 (Joules/Mol)
                                   97.85087 (Kcal/Mol)
 Warning -- explicit consideration of  13 degrees of freedom as
           vibrations may cause significant error
 Vibrational temperatures:     59.38   224.06   243.59   304.22   359.57
          (Kelvin)            409.77   534.73   552.36   600.06   635.32
                              639.83   727.65   816.05   971.13  1000.14
                             1037.46  1242.88  1281.45  1301.93  1320.50
                             1413.33  1460.18  1489.46  1524.87  1552.29
                             1565.93  1669.55  1697.09  1720.17  1733.80
                             1765.28  1836.16  1885.84  2024.84  2044.23
                             2053.51  2080.43  2129.10  2138.58  2173.16
                             2730.80  4353.55  4380.61  4393.53  4442.93
                             4453.52  4466.83  4480.66  4485.33  4614.01
                             5459.16

 Zero-point correction=                           0.155935 (Hartree/Particle)
 Thermal correction to Energy=                    0.165133
 Thermal correction to Enthalpy=                  0.166078
 Thermal correction to Gibbs Free Energy=         0.121910
 Sum of electronic and zero-point Energies=           -423.020118
 Sum of electronic and thermal Energies=              -423.010920
 Sum of electronic and thermal Enthalpies=            -423.009976
 Sum of electronic and thermal Free Energies=         -423.054144

                     E (Thermal)             CV                S
                      KCal/Mol        Cal/Mol-Kelvin    Cal/Mol-Kelvin
 Total                  103.623             35.099             92.959
 Electronic               0.000              0.000              0.000
 Translational            0.889              2.981             40.409
 Rotational               0.889              2.981             28.903
 Vibrational            101.845             29.138             23.648
 Vibration     1          0.594              1.981              5.197
 Vibration     2          0.620              1.896              2.601
 Vibration     3          0.625              1.880              2.443
 Vibration     4          0.643              1.823              2.031
 Vibration     5          0.663              1.763              1.731
 Vibration     6          0.683              1.702              1.505
 Vibration     7          0.743              1.530              1.073
 Vibration     8          0.753              1.505              1.024
 Vibration     9          0.780              1.433              0.902
 Vibration    10          0.801              1.379              0.822
 Vibration    11          0.804              1.373              0.812
 Vibration    12          0.861              1.237              0.644
 Vibration    13          0.923              1.102              0.510

 Normal termination of Gaussian 09 at Mon Jan 27 16:57:04 2020.
