 Gaussian 09, Revision D.01,
 Gaussian 09:  ES64L-G09RevD.01 24-Apr-2013

 -----------------------------
 # b3lyp 6-31G(2df,p) opt Freq
 -----------------------------

 -----
 titel
 -----
 Symbolic Z-matrix:
 Charge =  0 Multiplicity = 1

 SCF Done:  E(RB3LYP) =  -423.182820284     A.U. after   14 cycles
 Optimization completed.
    -- Stationary point found.
 Normal termination of Gaussian 09 at Mon Jan 27 22:05:08 2020.

 ----------------------------------------------------------------------
 #N Geom=AllCheck Guess=TCheck SCRF=Check GenChk RB3LYP/6-31G(2df,p) Fr
 eq
 ----------------------------------------------------------------------

 Structure from the checkpoint file:  "/scratch/puck/g09_163bea76-c5cb-4b77-9ec2-093249457465/Gau-189658.chk"
 -----
 titel
 -----
 Charge =  0 Multiplicity = 1

                         Standard orientation:
 ---------------------------------------------------------------------
 Center     Atomic      Atomic             Coordinates (Angstroms)
 Number     Number       Type             X           Y           Z
 ---------------------------------------------------------------------
      1          6           0        0.193637    2.306535   -0.299576
      2          6           0        0.434499    0.959202    0.375910
      3          6           0       -0.825343    0.237205    0.963230
      4          8           0       -0.339772   -1.112248    1.074101
      5          6           0       -0.074996   -1.289682   -0.331567
      6          6           0       -1.379318   -0.834636   -0.966542
      7          6           0       -1.856044    0.109666   -0.156628
      8          6           0        1.005742   -0.179822   -0.537828
      9          8           0        2.283289   -0.629923   -0.127657
     10          1           0        1.135212    2.729973   -0.663088
     11          1           0       -0.482352    2.210735   -1.154435
     12          1           0       -0.245580    3.028891    0.398095
     13          1           0        1.152519    1.091765    1.191742
     14          1           0       -1.172198    0.600714    1.930377
     15          1           0        0.277403   -2.299259   -0.539711
     16          1           0       -1.761486   -1.169743   -1.920781
     17          1           0       -2.728058    0.735733   -0.284704
     18          1           0        1.113073    0.123704   -1.581659
     19          1           0        2.174273   -0.965947    0.770613
 ---------------------------------------------------------------------

 SCF Done:  E(RB3LYP) =  -423.182820284     A.U. after    1 cycles

 The electronic state is 1-A.
 Alpha  occ. eigenvalues --  -19.14160 -19.13148 -10.23690 -10.23265 -10.23011
 Alpha  occ. eigenvalues --  -10.18929 -10.18867 -10.18821 -10.17789  -1.05475
 Alpha  occ. eigenvalues --   -1.01045  -0.80872  -0.76869  -0.73093  -0.67508
 Alpha  occ. eigenvalues --   -0.59223  -0.57715  -0.55401  -0.53081  -0.49282
 Alpha  occ. eigenvalues --   -0.45882  -0.44584  -0.41783  -0.40466  -0.39838
 Alpha  occ. eigenvalues --   -0.38508  -0.37870  -0.35895  -0.34435  -0.33299
 Alpha  occ. eigenvalues --   -0.31208  -0.28791  -0.25636  -0.23699
 Alpha virt. eigenvalues --    0.00215   0.09292   0.10360   0.11711   0.12583
 Alpha virt. eigenvalues --    0.13272   0.14940   0.15359   0.15937   0.16396
 Alpha virt. eigenvalues --    0.17093   0.17973   0.19675   0.21471   0.21693

 Mulliken charges:
               1
     1  C   -0.424085
     2  C   -0.002828
     3  C    0.011172
     4  O   -0.266902
     5  C   -0.035895
     6  C   -0.082466
     7  C   -0.083906
     8  C    0.153553
     9  O   -0.449998
    10  H    0.125103
    11  H    0.118674
    12  H    0.111831
    13  H    0.079226
    14  H    0.079455
    15  H    0.083143
    16  H    0.109523
    17  H    0.109964
    18  H    0.084338
    19  H    0.280097
 Sum of Mulliken charges =   0.00000

 Dipole moment (field-independent basis, Debye):
    X=             -1.3640    Y=              1.0555    Z=             -0.3578  Tot=              1.7614
 Quadrupole moment (field-independent basis, Debye-Ang):
   XX=            -56.4427   YY=            -52.6986   ZZ=            -51.3475
   XY=             -1.3658   XZ=              3.1414   YZ=              2.5914

  Exact polarizability:  75.453  -4.140  76.638   1.474   6.344  68.937
 Approx polarizability: 109.866 -10.671 112.988  -1.655  12.574 112.363

                      1                      2                      3
                      A                      A                      A
 Frequencies --    115.4443               216.8884               246.8141
 Red. masses --      3.7486                 1.2585                 2.5533
 Frc consts  --      0.0294                 0.0349                 0.0916
 IR Inten    --      2.9429                 1.2844                 2.5354

                      4                      5                      6
                      A                      A                      A
 Frequencies --    257.0645               355.6027               418.7227
 Red. masses --      2.3400                 3.0946                 3.2346
 Frc consts  --      0.0911                 0.2306                 0.3341
 IR Inten    --      0.3124                 1.5089                 2.5814

                      7                      8                      9
                      A                      A                      A
 Frequencies --    450.1785               465.0459               534.4978
 Red. masses --      1.3974                 2.2965                 4.4319
 Frc consts  --      0.1669                 0.2926                 0.7460
 IR Inten    --     66.8448                15.3134                 8.1765

                     10                     11                     12
                      A                      A                      A
 Frequencies --    615.9211               709.8892               726.3661
 Red. masses --      3.7222                 3.8581                 1.5995
 Frc consts  --      0.8320                 1.1455                 0.4972
 IR Inten    --      3.5668                15.2699                19.2213

                     13                     14                     15
                      A                      A                      A
 Frequencies --    789.3760               823.8189               849.5367
 Red. masses --      6.2068                 2.8055                 3.4363
 Frc consts  --      2.2787                 1.1218                 1.4612
 IR Inten    --      6.8890                 7.9320                17.8790

                     16                     17                     18
                      A                      A                      A
 Frequencies --    890.7523               913.0091               930.3728
 Red. masses --      2.5476                 2.0088                 2.2013
 Frc consts  --      1.1909                 0.9866                 1.1227
 IR Inten    --     18.9855                10.5060                 4.4409

                     19                     20                     21
                      A                      A                      A
 Frequencies --    934.5468               947.4431               993.9322
 Red. masses --      2.8539                 1.4634                 1.9252
 Frc consts  --      1.4685                 0.7739                 1.1206
 IR Inten    --     24.5926                 3.0421                 1.3074

                     22                     23                     24
                      A                      A                      A
 Frequencies --   1017.3263              1053.2492              1087.5958
 Red. masses --      4.3206                 1.9327                 3.1164
 Frc consts  --      2.6346                 1.2632                 2.1719
 IR Inten    --     50.1026                31.1070                38.9524

                     25                     26                     27
                      A                      A                      A
 Frequencies --   1100.4262              1117.7064              1133.1685
 Red. masses --      1.6501                 1.7423                 1.7499
 Frc consts  --      1.1773                 1.2824                 1.3239
 IR Inten    --     25.3453                 1.0871                22.0393

                     28                     29                     30
                      A                      A                      A
 Frequencies --   1191.0617              1224.6449              1259.3283
 Red. masses --      1.3719                 1.3389                 1.2908
 Frc consts  --      1.1467                 1.1831                 1.2061
 IR Inten    --      3.5910                17.8938                 0.4887

                     31                     32                     33
                      A                      A                      A
 Frequencies --   1264.5589              1279.4906              1311.7929
 Red. masses --      1.4366                 1.4459                 1.4380
 Frc consts  --      1.3535                 1.3947                 1.4579
 IR Inten    --      5.0381                 0.9584                 5.3879

                     34                     35                     36
                      A                      A                      A
 Frequencies --   1338.9268              1342.5242              1378.5142
 Red. masses --      1.5398                 1.6487                 1.4923
 Frc consts  --      1.6264                 1.7508                 1.6708
 IR Inten    --     11.8251                 9.2108                 2.5765

                     37                     38                     39
                      A                      A                      A
 Frequencies --   1411.2306              1432.1636              1498.8388
 Red. masses --      1.2337                 1.2143                 1.0432
 Frc consts  --      1.4476                 1.4674                 1.3808
 IR Inten    --      4.0417                69.5079                 4.5799

                     40                     41                     42
                      A                      A                      A
 Frequencies --   1504.4317              1645.5321              3030.6512
 Red. masses --      1.0474                 6.1594                 1.0369
 Frc consts  --      1.3967                 9.8265                 5.6111
 IR Inten    --      3.4544                 0.4502                27.3991

                     43                     44                     45
                      A                      A                      A
 Frequencies --   3052.3377              3089.6959              3095.4122
 Red. masses --      1.0846                 1.0892                 1.0974
 Frc consts  --      5.9535                 6.1259                 6.1954
 IR Inten    --     14.9291                11.7367                33.2563

                     46                     47                     48
                      A                      A                      A
 Frequencies --   3110.6655              3121.5191              3132.0818
 Red. masses --      1.1009                 1.0895                 1.0910
 Frc consts  --      6.2761                 6.2547                 6.3060
 IR Inten    --     23.5873                43.5099                20.0417

                     49                     50                     51
                      A                      A                      A
 Frequencies --   3219.2367              3244.6430              3782.3132
 Red. masses --      1.0862                 1.1089                 1.0653
 Frc consts  --      6.6321                 6.8783                 8.9796
 IR Inten    --      2.7763                 6.6824                19.6101

 - Thermochemistry -
 -------------------
 Temperature   298.150 Kelvin.  Pressure   1.00000 Atm.
 Atom     1 has atomic number  6 and mass  12.00000

 Molecular mass:   126.06808 amu.
 Principal axes and moments of inertia in atomic units:
                           1         2         3
     Eigenvalues --   803.02409 916.914461268.88160
           X            0.99949  -0.02418   0.02081
           Y            0.02386   0.99960   0.01543
           Z           -0.02117  -0.01492   0.99966
 This molecule is an asymmetric top.
 Rotational symmetry number  1.
 Warning -- assumption of classical behavior for rotation
           may cause significant error
 Rotational temperatures (Kelvin)      0.10786     0.09446     0.06826
 Rotational constants (GHZ):           2.24743     1.96828     1.42231
 Zero-point vibrational energy     422618.5 (Joules/Mol)
                                  101.00824 (Kcal/Mol)
 Warning -- explicit consideration of  10 degrees of freedom as
           vibrations may cause significant error
 Vibrational temperatures:    166.10   312.05   355.11   369.86   511.63
          (Kelvin)            602.45   647.71   669.10   769.02   886.17
                             1021.37  1045.08  1135.73  1185.29  1222.29
                             1281.59  1313.61  1338.60  1344.60  1363.16
                             1430.04  1463.70  1515.39  1564.81  1583.27
                             1608.13  1630.37  1713.67  1761.99  1811.89
                             1819.42  1840.90  1887.37  1926.41  1931.59
                             1983.37  2030.44  2060.56  2156.49  2164.54
                             2367.55  4360.43  4391.63  4445.38  4453.60
                             4475.55  4491.16  4506.36  4631.76  4668.31
                             5441.90

 Zero-point correction=                           0.160967 (Hartree/Particle)
 Thermal correction to Energy=                    0.168531
 Thermal correction to Enthalpy=                  0.169475
 Thermal correction to Gibbs Free Energy=         0.129314
 Sum of electronic and zero-point Energies=           -423.021853
 Sum of electronic and thermal Energies=              -423.014289
 Sum of electronic and thermal Enthalpies=            -423.013345
 Sum of electronic and thermal Free Energies=         -423.053506

                     E (Thermal)             CV                S
                      KCal/Mol        Cal/Mol-Kelvin    Cal/Mol-Kelvin
 Total                  105.755             30.831             84.526
 Electronic               0.000              0.000              0.000
 Translational            0.889              2.981             40.409
 Rotational               0.889              2.981             28.326
 Vibrational            103.977             24.869             15.792
 Vibration     1          0.608              1.937              3.175
 Vibration     2          0.646              1.815              1.985
 Vibration     3          0.661              1.768              1.753
 Vibration     4          0.667              1.751              1.682
 Vibration     5          0.731              1.564              1.141
 Vibration     6          0.782              1.430              0.896
 Vibration     7          0.809              1.360              0.795
 Vibration     8          0.822              1.328              0.752
 Vibration     9          0.889              1.174              0.577
 Vibration    10          0.976              0.998              0.423

 Optimization completed.
    -- Stationary point found.
 Normal termination of Gaussian 09 at Mon Jan 27 22:51:52 2020.
