 Gaussian 09, Revision D.01,
 Gaussian 09:  ES64L-G09RevD.01 24-Apr-2013

 -----------------------------
 # b3lyp 6-31G(2df,p) opt Freq
 -----------------------------

 -----
 titel
 -----
 Symbolic Z-matrix:
 Charge =  0 Multiplicity = 1

 SCF Done:  E(RB3LYP) =  -423.126768677     A.U. after   13 cycles
 Optimization completed.
    -- Stationary point found.
 Normal termination of Gaussian 09 at Tue Jan 28 01:54:31 2020.

 ----------------------------------------------------------------------
 #N Geom=AllCheck Guess=TCheck SCRF=Check GenChk RB3LYP/6-31G(2df,p) Fr
 eq
 ----------------------------------------------------------------------

 Structure from the checkpoint file:  "/scratch/puck/g09_fd4eef3d-9d45-41b3-9a00-888612c564e2/Gau-187396.chk"
 -----
 titel
 -----
 Charge =  0 Multiplicity = 1

                         Standard orientation:
 ---------------------------------------------------------------------
 Center     Atomic      Atomic             Coordinates (Angstroms)
 Number     Number       Type             X           Y           Z
 ---------------------------------------------------------------------
      1          8           0       -1.957672   -0.866467   -0.874365
      2          6           0       -1.649834    0.424522   -0.416713
      3          6           0       -1.455514    0.651848    1.067604
      4          6           0       -0.276309    0.583366    0.138218
      5          6           0        0.826434    1.643180   -0.069399
      6          6           0        1.871454    0.515560    0.014927
      7          6           0        1.593723   -0.512985   -1.061610
      8          6           0        0.765799   -0.516939    0.194140
      9          8           0        0.714381   -1.591065    1.060650
     10          1           0       -2.879565   -1.044301   -0.659459
     11          1           0       -2.078889    1.237010   -1.004038
     12          1           0       -1.741885    1.612169    1.486054
     13          1           0       -1.597107   -0.201743    1.723764
     14          1           0        0.804090    2.198509   -1.013425
     15          1           0        0.882230    2.350783    0.761840
     16          1           0        2.834013    0.584194    0.505042
     17          1           0        1.173044   -0.218324   -2.020520
     18          1           0        2.318737   -1.319701   -1.107240
     19          1           0        0.177140   -2.269650    0.634701
 ---------------------------------------------------------------------

 SCF Done:  E(RB3LYP) =  -423.126768677     A.U. after    1 cycles

 The electronic state is 1-A.
 Alpha  occ. eigenvalues --  -19.14471 -19.14150 -10.23239 -10.22982 -10.18931
 Alpha  occ. eigenvalues --  -10.18568 -10.18415 -10.17898 -10.17675  -1.03089
 Alpha  occ. eigenvalues --   -1.02422  -0.88907  -0.82657  -0.70158  -0.61697
 Alpha  occ. eigenvalues --   -0.60599  -0.57544  -0.53888  -0.51574  -0.50996
 Alpha  occ. eigenvalues --   -0.45944  -0.44924  -0.43031  -0.42097  -0.39571
 Alpha  occ. eigenvalues --   -0.37408  -0.35435  -0.34452  -0.33288  -0.31372
 Alpha  occ. eigenvalues --   -0.28615  -0.26275  -0.24627  -0.23571
 Alpha virt. eigenvalues --    0.07203   0.09176   0.10759   0.11686   0.12737
 Alpha virt. eigenvalues --    0.13136   0.13853   0.15368   0.15974   0.16544
 Alpha virt. eigenvalues --    0.17937   0.20553   0.21100   0.22472   0.25038

 Mulliken charges:
               1
     1  O   -0.428095
     2  C    0.015651
     3  C   -0.398966
     4  C    0.294461
     5  C   -0.330283
     6  C   -0.112503
     7  C   -0.337871
     8  C    0.358603
     9  O   -0.461486
    10  H    0.287139
    11  H    0.083240
    12  H    0.108255
    13  H    0.118322
    14  H    0.096643
    15  H    0.106952
    16  H    0.093584
    17  H    0.106664
    18  H    0.110431
    19  H    0.289257
 Sum of Mulliken charges =   0.00000

 Dipole moment (field-independent basis, Debye):
    X=             -1.5740    Y=              0.3579    Z=             -0.3349  Tot=              1.6486
 Quadrupole moment (field-independent basis, Debye-Ang):
   XX=            -47.3698   YY=            -49.7298   ZZ=            -56.2701
   XY=              1.5600   XZ=             -1.3848   YZ=              0.8493

  Exact polarizability:  83.583   0.979  75.987  -3.303   2.081  68.342
 Approx polarizability: 112.758   3.724 110.726  -2.622   2.252 104.970

                      1                      2                      3
                      A                      A                      A
 Frequencies --    108.2049               118.3776               185.3059
 Red. masses --      4.1422                 3.9120                 3.4090
 Frc consts  --      0.0286                 0.0323                 0.0690
 IR Inten    --      2.8747                 4.1562                 2.1042

                      4                      5                      6
                      A                      A                      A
 Frequencies --    288.6760               306.6590               358.4529
 Red. masses --      2.1125                 1.0918                 1.3620
 Frc consts  --      0.1037                 0.0605                 0.1031
 IR Inten    --     27.0005                96.0842                66.3356

                      7                      8                      9
                      A                      A                      A
 Frequencies --    366.0376               397.6329               440.8918
 Red. masses --      3.2017                 2.3634                 2.8676
 Frc consts  --      0.2527                 0.2202                 0.3284
 IR Inten    --     20.9731                 1.0569                 8.4785

                     10                     11                     12
                      A                      A                      A
 Frequencies --    448.6740               509.7248               618.2916
 Red. masses --      2.2454                 3.7263                 3.3961
 Frc consts  --      0.2663                 0.5704                 0.7649
 IR Inten    --      6.0675                11.1022                 4.3262

                     13                     14                     15
                      A                      A                      A
 Frequencies --    682.3872               780.2943               809.3642
 Red. masses --      3.2910                 2.2033                 2.0048
 Frc consts  --      0.9029                 0.7904                 0.7738
 IR Inten    --      5.3456                 2.0109                 2.5540

                     16                     17                     18
                      A                      A                      A
 Frequencies --    843.8225               871.8455               893.2883
 Red. masses --      2.5835                 1.8235                 1.6654
 Frc consts  --      1.0838                 0.8166                 0.7830
 IR Inten    --     13.6793                 6.5348                 1.4013

                     19                     20                     21
                      A                      A                      A
 Frequencies --    929.4204               962.8513               990.8860
 Red. masses --      2.1538                 1.5486                 2.1467
 Frc consts  --      1.0962                 0.8459                 1.2419
 IR Inten    --      7.8378                 9.3236                11.4580

                     22                     23                     24
                      A                      A                      A
 Frequencies --   1010.3231              1020.9354              1030.5699
 Red. masses --      1.4856                 1.5261                 1.3087
 Frc consts  --      0.8935                 0.9372                 0.8189
 IR Inten    --      3.2810                 0.3827                 6.8060

                     25                     26                     27
                      A                      A                      A
 Frequencies --   1075.7356              1088.0995              1103.1833
 Red. masses --      1.5281                 1.6680                 2.4832
 Frc consts  --      1.0419                 1.1635                 1.7806
 IR Inten    --      7.3118                19.0538                 4.1166

                     28                     29                     30
                      A                      A                      A
 Frequencies --   1154.7531              1158.3138              1173.8332
 Red. masses --      2.5453                 1.8983                 1.5024
 Frc consts  --      1.9997                 1.5006                 1.2196
 IR Inten    --     45.6888                 4.9832                 3.6825

                     31                     32                     33
                      A                      A                      A
 Frequencies --   1227.0593              1237.3583              1268.0519
 Red. masses --      1.8550                 1.9046                 1.6715
 Frc consts  --      1.6456                 1.7181                 1.5835
 IR Inten    --     12.6057                50.8148                13.2989

                     34                     35                     36
                      A                      A                      A
 Frequencies --   1290.8004              1313.3974              1358.1977
 Red. masses --      1.3639                 1.5516                 1.9889
 Frc consts  --      1.3389                 1.5769                 2.1617
 IR Inten    --     67.1908                80.0003                 6.3678

                     37                     38                     39
                      A                      A                      A
 Frequencies --   1406.4194              1423.2474              1478.2281
 Red. masses --      1.8859                 1.3654                 1.1814
 Frc consts  --      2.1978                 1.6295                 1.5210
 IR Inten    --     22.6701                 6.7110                 3.8080

                     40                     41                     42
                      A                      A                      A
 Frequencies --   1493.1521              1504.2387              3039.3808
 Red. masses --      2.0251                 1.5054                 1.0603
 Frc consts  --      2.6601                 2.0070                 5.7710
 IR Inten    --      6.8375                13.5277                45.5669

                     43                     44                     45
                      A                      A                      A
 Frequencies --   3094.1772              3097.5733              3103.9236
 Red. masses --      1.0868                 1.1048                 1.0559
 Frc consts  --      6.1307                 6.2456                 5.9939
 IR Inten    --     33.8687                20.6499                19.4723

                     46                     47                     48
                      A                      A                      A
 Frequencies --   3118.0740              3194.1186              3203.6027
 Red. masses --      1.0542                 1.1000                 1.1071
 Frc consts  --      6.0387                 6.6124                 6.6946
 IR Inten    --     14.1935                 6.7316                17.1111

                     49                     50                     51
                      A                      A                      A
 Frequencies --   3209.2932              3785.8300              3799.7680
 Red. masses --      1.1166                 1.0657                 1.0662
 Frc consts  --      6.7762                 8.9993                 9.0702
 IR Inten    --      6.9980                26.4673                19.6157

 - Thermochemistry -
 -------------------
 Temperature   298.150 Kelvin.  Pressure   1.00000 Atm.
 Atom     1 has atomic number  8 and mass  15.99491

 Molecular mass:   126.06808 amu.
 Principal axes and moments of inertia in atomic units:
                           1         2         3
     Eigenvalues --   725.763361162.058271356.71783
           X            0.99962  -0.00090  -0.02744
           Y            0.00180   0.99946   0.03279
           Z            0.02740  -0.03283   0.99909
 This molecule is an asymmetric top.
 Rotational symmetry number  1.
 Warning -- assumption of classical behavior for rotation
           may cause significant error
 Rotational temperatures (Kelvin)      0.11934     0.07453     0.06384
 Rotational constants (GHZ):           2.48668     1.55306     1.33023
 Zero-point vibrational energy     414941.1 (Joules/Mol)
                                   99.17329 (Kcal/Mol)
 Warning -- explicit consideration of  12 degrees of freedom as
           vibrations may cause significant error
 Vibrational temperatures:    155.68   170.32   266.61   415.34   441.21
          (Kelvin)            515.73   526.65   572.10   634.34   645.54
                              733.38   889.58   981.80  1122.67  1164.49
                             1214.07  1254.39  1285.24  1337.23  1385.33
                             1425.66  1453.63  1468.90  1482.76  1547.74
                             1565.53  1587.23  1661.43  1666.55  1688.88
                             1765.46  1780.28  1824.44  1857.17  1889.68
                             1954.14  2023.52  2047.73  2126.84  2148.31
                             2164.26  4372.99  4451.83  4456.71  4465.85
                             4486.21  4595.62  4609.26  4617.45  5446.96
                             5467.01

 Zero-point correction=                           0.158043 (Hartree/Particle)
 Thermal correction to Energy=                    0.166569
 Thermal correction to Enthalpy=                  0.167513
 Thermal correction to Gibbs Free Energy=         0.125332
 Sum of electronic and zero-point Energies=           -422.968726
 Sum of electronic and thermal Energies=              -422.960200
 Sum of electronic and thermal Enthalpies=            -422.959256
 Sum of electronic and thermal Free Energies=         -423.001437

                     E (Thermal)             CV                S
                      KCal/Mol        Cal/Mol-Kelvin    Cal/Mol-Kelvin
 Total                  104.523             33.688             88.778
 Electronic               0.000              0.000              0.000
 Translational            0.889              2.981             40.409
 Rotational               0.889              2.981             28.527
 Vibrational            102.746             27.726             19.842
 Vibration     1          0.606              1.943              3.301
 Vibration     2          0.609              1.934              3.127
 Vibration     3          0.631              1.860              2.274
 Vibration     4          0.685              1.695              1.482
 Vibration     5          0.697              1.661              1.380
 Vibration     6          0.733              1.558              1.129
 Vibration     7          0.739              1.542              1.096
 Vibration     8          0.764              1.475              0.971
 Vibration     9          0.801              1.381              0.824
 Vibration    10          0.808              1.364              0.800
 Vibration    11          0.865              1.228              0.634
 Vibration    12          0.978              0.993              0.419

 Normal termination of Gaussian 09 at Tue Jan 28 02:41:36 2020.
