 Gaussian 09, Revision D.01,
 Gaussian 09:  ES64L-G09RevD.01 24-Apr-2013

 -----------------------------
 # b3lyp 6-31G(2df,p) opt Freq
 -----------------------------

 -----
 titel
 -----
 Symbolic Z-matrix:
 Charge =  0 Multiplicity = 1

 SCF Done:  E(RB3LYP) =  -423.126186429     A.U. after   13 cycles
 Optimization completed.
    -- Stationary point found.
 Normal termination of Gaussian 09 at Mon Jan 27 12:10:52 2020.

 ----------------------------------------------------------------------
 #N Geom=AllCheck Guess=TCheck SCRF=Check GenChk RB3LYP/6-31G(2df,p) Fr
 eq
 ----------------------------------------------------------------------

 Structure from the checkpoint file:  "/scratch/puck/g09_6f8973c2-3a18-45ae-bf2d-d49aa7166cf2/Gau-52118.chk"
 -----
 titel
 -----
 Charge =  0 Multiplicity = 1

                         Standard orientation:
 ---------------------------------------------------------------------
 Center     Atomic      Atomic             Coordinates (Angstroms)
 Number     Number       Type             X           Y           Z
 ---------------------------------------------------------------------
      1          6           0        2.428181   -0.399579   -0.548407
      2          6           0        2.294095    0.518783    0.636846
      3          6           0        1.277786   -0.574058    0.419104
      4          6           0       -0.106314   -0.244487   -0.024558
      5          6           0       -1.091030   -1.358989   -0.434575
      6          8           0       -2.167402   -0.734400    0.311529
      7          6           0       -1.306132    0.309682    0.792374
      8          6           0       -1.233428    1.512244   -0.153814
      9          8           0       -0.174371    0.886124   -0.927065
     10          1           0        2.195462    0.015280   -1.521951
     11          1           0        3.211607   -1.148722   -0.544246
     12          1           0        2.987884    0.408525    1.462545
     13          1           0        1.978529    1.535698    0.434828
     14          1           0        1.329535   -1.431017    1.084650
     15          1           0       -1.296716   -1.421977   -1.508261
     16          1           0       -0.859553   -2.355285   -0.036019
     17          1           0       -1.369248    0.461743    1.871306
     18          1           0       -2.135972    1.694091   -0.745994
     19          1           0       -0.886285    2.446299    0.305614
 ---------------------------------------------------------------------

 SCF Done:  E(RB3LYP) =  -423.126186429     A.U. after    1 cycles

 The electronic state is 1-A.
 Alpha  occ. eigenvalues --  -19.14064 -19.13757 -10.24416 -10.23633 -10.23159
 Alpha  occ. eigenvalues --  -10.22833 -10.19642 -10.18719 -10.18639  -1.06920
 Alpha  occ. eigenvalues --   -1.01148  -0.85917  -0.73541  -0.72093  -0.65110
 Alpha  occ. eigenvalues --   -0.60331  -0.60025  -0.52936  -0.52162  -0.49626
 Alpha  occ. eigenvalues --   -0.49080  -0.46834  -0.43835  -0.42000  -0.40740
 Alpha  occ. eigenvalues --   -0.38498  -0.36544  -0.35452  -0.34247  -0.31681
 Alpha  occ. eigenvalues --   -0.29434  -0.27206  -0.26057  -0.24332
 Alpha virt. eigenvalues --    0.05865   0.09067   0.09865   0.10745   0.12114
 Alpha virt. eigenvalues --    0.13187   0.13774   0.14389   0.15511   0.16550
 Alpha virt. eigenvalues --    0.17281   0.18366   0.18606   0.21068   0.22368

 Mulliken charges:
               1
     1  C   -0.264635
     2  C   -0.271118
     3  C   -0.102427
     4  C    0.396851
     5  C   -0.123409
     6  O   -0.293837
     7  C    0.007531
     8  C   -0.103041
     9  O   -0.331560
    10  H    0.134249
    11  H    0.112139
    12  H    0.110352
    13  H    0.123280
    14  H    0.088000
    15  H    0.112395
    16  H    0.099329
    17  H    0.087483
    18  H    0.114717
    19  H    0.103701
 Sum of Mulliken charges =   0.00000

 Dipole moment (field-independent basis, Debye):
    X=              1.0893    Y=             -0.0268    Z=              0.9845  Tot=              1.4685
 Quadrupole moment (field-independent basis, Debye-Ang):
   XX=            -56.5702   YY=            -50.3951   ZZ=            -52.9234
   XY=             -4.0073   XZ=              1.5579   YZ=              1.8809

  Exact polarizability:  81.839  -2.680  76.879   0.475   3.165  66.026
 Approx polarizability: 108.623  -1.462 110.851  -2.767   3.170 101.614

                      1                      2                      3
                      A                      A                      A
 Frequencies --     73.8016               132.2002               168.4413
 Red. masses --      2.9896                 3.1951                 2.6396
 Frc consts  --      0.0096                 0.0329                 0.0441
 IR Inten    --      0.1810                 3.1721                 0.0696

                      4                      5                      6
                      A                      A                      A
 Frequencies --    231.6297               331.9478               360.8985
 Red. masses --      3.4399                 3.2506                 2.7043
 Frc consts  --      0.1087                 0.2110                 0.2075
 IR Inten    --      4.5953                 0.6466                 2.2845

                      7                      8                      9
                      A                      A                      A
 Frequencies --    419.8778               467.4045               632.0313
 Red. masses --      3.1878                 2.6776                 2.7253
 Frc consts  --      0.3311                 0.3447                 0.6414
 IR Inten    --      3.7412                 3.9892                 1.2267

                     10                     11                     12
                      A                      A                      A
 Frequencies --    714.1055               791.0285               822.0878
 Red. masses --      4.5038                 1.0741                 1.2248
 Frc consts  --      1.3532                 0.3960                 0.4877
 IR Inten    --      4.1295                 1.1523                 3.5073

                     13                     14                     15
                      A                      A                      A
 Frequencies --    834.9327               874.1700               905.6661
 Red. masses --      2.2247                 2.4771                 3.3927
 Frc consts  --      0.9138                 1.1153                 1.6396
 IR Inten    --     18.0495                13.1851                 5.3154

                     16                     17                     18
                      A                      A                      A
 Frequencies --    917.5186               936.4431               990.6555
 Red. masses --      2.9356                 2.9291                 3.1238
 Frc consts  --      1.4560                 1.5134                 1.8062
 IR Inten    --     12.2384                 4.8662                19.8150

                     19                     20                     21
                      A                      A                      A
 Frequencies --    996.0634              1022.8559              1046.4669
 Red. masses --      8.0905                 3.0380                 1.9454
 Frc consts  --      4.7294                 1.8727                 1.2552
 IR Inten    --     82.5076                30.0424                27.9694

                     22                     23                     24
                      A                      A                      A
 Frequencies --   1067.1333              1072.8446              1087.5884
 Red. masses --      1.3807                 2.3021                 1.4475
 Frc consts  --      0.9263                 1.5612                 1.0088
 IR Inten    --      5.3721                23.8234                 0.6570

                     25                     26                     27
                      A                      A                      A
 Frequencies --   1107.3096              1126.2318              1132.4329
 Red. masses --      2.7232                 2.5269                 1.1948
 Frc consts  --      1.9673                 1.8884                 0.9028
 IR Inten    --      1.5006                28.6669                 3.7183

                     28                     29                     30
                      A                      A                      A
 Frequencies --   1149.5523              1168.4758              1193.8562
 Red. masses --      1.2529                 1.2329                 1.6541
 Frc consts  --      0.9755                 0.9918                 1.3890
 IR Inten    --      0.8881                12.7171                 3.6144

                     31                     32                     33
                      A                      A                      A
 Frequencies --   1203.6294              1221.2710              1273.2336
 Red. masses --      1.3831                 2.1688                 1.7991
 Frc consts  --      1.1806                 1.9059                 1.7184
 IR Inten    --      0.5617                 2.1332                25.2448

                     34                     35                     36
                      A                      A                      A
 Frequencies --   1305.6685              1340.2451              1358.6595
 Red. masses --      1.3242                 1.4798                 1.4832
 Frc consts  --      1.3300                 1.5661                 1.6132
 IR Inten    --      9.6030                 1.0153                 1.6990

                     37                     38                     39
                      A                      A                      A
 Frequencies --   1433.4418              1456.9930              1500.6149
 Red. masses --      2.0854                 1.0950                 1.4444
 Frc consts  --      2.5247                 1.3695                 1.9164
 IR Inten    --     13.2072                 2.2276                 0.9432

                     40                     41                     42
                      A                      A                      A
 Frequencies --   1503.1841              1504.0498              3013.7233
 Red. masses --      1.1046                 1.1405                 1.0590
 Frc consts  --      1.4706                 1.5201                 5.6672
 IR Inten    --      0.7777                 0.3797                78.5993

                     43                     44                     45
                      A                      A                      A
 Frequencies --   3019.3142              3079.5234              3084.7606
 Red. masses --      1.0587                 1.1068                 1.1062
 Frc consts  --      5.6864                 6.1841                 6.2019
 IR Inten    --     40.1602                25.2983                27.4987

                     46                     47                     48
                      A                      A                      A
 Frequencies --   3098.6013              3139.6847              3143.1773
 Red. masses --      1.0911                 1.0522                 1.0596
 Frc consts  --      6.1724                 6.1109                 6.1677
 IR Inten    --     43.0473                16.1699                12.8103

                     49                     50                     51
                      A                      A                      A
 Frequencies --   3150.0594              3224.2338              3238.4805
 Red. masses --      1.0846                 1.1179                 1.1160
 Frc consts  --      6.3410                 6.8468                 6.8961
 IR Inten    --      9.4971                 0.8473                11.4710

 - Thermochemistry -
 -------------------
 Temperature   298.150 Kelvin.  Pressure   1.00000 Atm.
 Atom     1 has atomic number  6 and mass  12.00000

 Molecular mass:   126.06808 amu.
 Principal axes and moments of inertia in atomic units:
                           1         2         3
     Eigenvalues --   546.337411322.357421522.66506
           X            0.99981  -0.01803   0.00785
           Y            0.01761   0.99857   0.05056
           Z           -0.00875  -0.05041   0.99869
 This molecule is an asymmetric top.
 Rotational symmetry number  1.
 Warning -- assumption of classical behavior for rotation
           may cause significant error
 Rotational temperatures (Kelvin)      0.15854     0.06550     0.05688
 Rotational constants (GHZ):           3.30335     1.36479     1.18525
 Zero-point vibrational energy     419100.9 (Joules/Mol)
                                  100.16752 (Kcal/Mol)
 Warning -- explicit consideration of   8 degrees of freedom as
           vibrations may cause significant error
 Vibrational temperatures:    106.18   190.21   242.35   333.26   477.60
          (Kelvin)            519.25   604.11   672.49   909.35  1027.44
                             1138.11  1182.80  1201.28  1257.73  1303.05
                             1320.10  1347.33  1425.33  1433.11  1471.66
                             1505.63  1535.36  1543.58  1564.80  1593.17
                             1620.39  1629.32  1653.95  1681.17  1717.69
                             1731.75  1757.13  1831.90  1878.56  1928.31
                             1954.81  2062.40  2096.29  2159.05  2162.74
                             2163.99  4336.07  4344.11  4430.74  4438.28
                             4458.19  4517.30  4522.33  4532.23  4638.95
                             4659.45

 Zero-point correction=                           0.159627 (Hartree/Particle)
 Thermal correction to Energy=                    0.167447
 Thermal correction to Enthalpy=                  0.168391
 Thermal correction to Gibbs Free Energy=         0.126998
 Sum of electronic and zero-point Energies=           -422.966559
 Sum of electronic and thermal Energies=              -422.958740
 Sum of electronic and thermal Enthalpies=            -422.957795
 Sum of electronic and thermal Free Energies=         -422.999188

                     E (Thermal)             CV                S
                      KCal/Mol        Cal/Mol-Kelvin    Cal/Mol-Kelvin
 Total                  105.074             30.211             87.118
 Electronic               0.000              0.000              0.000
 Translational            0.889              2.981             40.409
 Rotational               0.889              2.981             28.488
 Vibrational            103.297             24.249             18.221
 Vibration     1          0.599              1.966              4.049
 Vibration     2          0.612              1.921              2.914
 Vibration     3          0.625              1.881              2.453
 Vibration     4          0.653              1.793              1.866
 Vibration     5          0.714              1.612              1.251
 Vibration     6          0.735              1.553              1.118
 Vibration     7          0.783              1.427              0.892
 Vibration     8          0.825              1.322              0.745

 Optimization completed.
    -- Stationary point found.
 Normal termination of Gaussian 09 at Mon Jan 27 12:57:28 2020.
