 Gaussian 09, Revision D.01,
 Gaussian 09:  ES64L-G09RevD.01 24-Apr-2013

 -----------------------------
 # b3lyp 6-31G(2df,p) opt Freq
 -----------------------------

 -----
 titel
 -----
 Symbolic Z-matrix:
 Charge =  0 Multiplicity = 1

 SCF Done:  E(RB3LYP) =  -423.126524031     A.U. after   14 cycles
 Optimization completed.
    -- Stationary point found.
 Normal termination of Gaussian 09 at Mon Jan 27 17:54:10 2020.

 ----------------------------------------------------------------------
 #N Geom=AllCheck Guess=TCheck SCRF=Check GenChk RB3LYP/6-31G(2df,p) Fr
 eq
 ----------------------------------------------------------------------

 Structure from the checkpoint file:  "/scratch/puck/g09_54a0234c-e511-4f73-9bb0-2ecd2bccc481/Gau-51764.chk"
 -----
 titel
 -----
 Charge =  0 Multiplicity = 1

                         Standard orientation:
 ---------------------------------------------------------------------
 Center     Atomic      Atomic             Coordinates (Angstroms)
 Number     Number       Type             X           Y           Z
 ---------------------------------------------------------------------
      1          6           0       -1.626014    1.813066   -0.365742
      2          6           0       -1.150830    0.424650   -0.087244
      3          8           0       -1.517438   -0.183149    1.163295
      4          6           0       -1.826464   -0.885275   -0.051376
      5          6           0       -0.555494   -1.629289   -0.471148
      6          6           0        0.184192   -0.239248   -0.512961
      7          6           0        1.356340   -0.031383    0.402381
      8          6           0        2.451560    0.893499    0.078971
      9          8           0        2.623533   -0.516207   -0.060279
     10          1           0       -1.032187    2.547518    0.190017
     11          1           0       -1.538686    2.047703   -1.431550
     12          1           0       -2.671236    1.924348   -0.065369
     13          1           0       -2.865796   -1.148502   -0.213329
     14          1           0       -0.184798   -2.357705    0.253986
     15          1           0       -0.619746   -2.094727   -1.456968
     16          1           0        0.460280    0.024431   -1.538111
     17          1           0        1.157086   -0.239570    1.453096
     18          1           0        2.424446    1.455570   -0.854513
     19          1           0        3.022136    1.359663    0.881324
 ---------------------------------------------------------------------

 SCF Done:  E(RB3LYP) =  -423.126524031     A.U. after    1 cycles

 The electronic state is 1-A.
 Alpha  occ. eigenvalues --  -19.14929 -19.14634 -10.24331 -10.23553 -10.23315
 Alpha  occ. eigenvalues --  -10.23118 -10.19796 -10.19071 -10.19016  -1.07623
 Alpha  occ. eigenvalues --   -1.06536  -0.81059  -0.74655  -0.69892  -0.65294
 Alpha  occ. eigenvalues --   -0.61759  -0.59681  -0.55224  -0.50323  -0.48508
 Alpha  occ. eigenvalues --   -0.47737  -0.45947  -0.42792  -0.41827  -0.40730
 Alpha  occ. eigenvalues --   -0.39169  -0.37531  -0.36770  -0.34712  -0.32851
 Alpha  occ. eigenvalues --   -0.30832  -0.28218  -0.26956  -0.24693
 Alpha virt. eigenvalues --    0.07867   0.09439   0.10363   0.11231   0.12113
 Alpha virt. eigenvalues --    0.12685   0.13091   0.13420   0.14450   0.15145
 Alpha virt. eigenvalues --    0.16885   0.17684   0.18881   0.19390   0.20105

 Mulliken charges:
               1
     1  C   -0.504290
     2  C    0.401720
     3  O   -0.289666
     4  C   -0.039180
     5  C   -0.272306
     6  C   -0.084601
     7  C    0.085459
     8  C   -0.188819
     9  O   -0.240318
    10  H    0.132304
    11  H    0.125141
    12  H    0.136609
    13  H    0.102543
    14  H    0.116442
    15  H    0.109735
    16  H    0.079634
    17  H    0.106584
    18  H    0.107754
    19  H    0.115255
 Sum of Mulliken charges =   0.00000

 Dipole moment (field-independent basis, Debye):
    X=             -1.2803    Y=              1.3865    Z=             -1.4542  Tot=              2.3825
 Quadrupole moment (field-independent basis, Debye-Ang):
   XX=            -56.1017   YY=            -50.5195   ZZ=            -53.8801
   XY=              4.4667   XZ=              3.9372   YZ=              0.0305

  Exact polarizability:  83.829   6.258  79.139   0.038   0.085  63.301
 Approx polarizability: 110.720   8.117 114.318  -4.056   0.379 102.645

                      1                      2                      3
                      A                      A                      A
 Frequencies --     69.9792               128.2467               147.7456
 Red. masses --      3.6433                 2.8734                 3.3855
 Frc consts  --      0.0105                 0.0278                 0.0435
 IR Inten    --      2.1218                 2.0079                 3.6099

                      4                      5                      6
                      A                      A                      A
 Frequencies --    199.6412               274.5257               281.8367
 Red. masses --      1.1320                 2.9129                 2.4708
 Frc consts  --      0.0266                 0.1293                 0.1156
 IR Inten    --      0.7747                 2.0669                 1.5797

                      7                      8                      9
                      A                      A                      A
 Frequencies --    342.0506               438.5163               450.8455
 Red. masses --      3.3874                 2.8416                 3.0973
 Frc consts  --      0.2335                 0.3219                 0.3709
 IR Inten    --      1.8215                 2.5740                 4.5271

                     10                     11                     12
                      A                      A                      A
 Frequencies --    543.7456               655.0697               733.4397
 Red. masses --      3.9453                 3.4534                 5.0878
 Frc consts  --      0.6873                 0.8731                 1.6125
 IR Inten    --     11.4916                 2.6529                 4.1352

                     13                     14                     15
                      A                      A                      A
 Frequencies --    806.3575               854.1361               865.5167
 Red. masses --      2.0964                 5.2992                 2.8425
 Frc consts  --      0.8031                 2.2778                 1.2546
 IR Inten    --     13.8062                13.7774                19.7285

                     16                     17                     18
                      A                      A                      A
 Frequencies --    902.5950               909.4764               922.5446
 Red. masses --      2.0752                 2.1251                 3.1135
 Frc consts  --      0.9961                 1.0357                 1.5613
 IR Inten    --      2.6861                 3.7138                24.4816

                     19                     20                     21
                      A                      A                      A
 Frequencies --    959.2957               985.4018              1042.3720
 Red. masses --      1.5723                 1.4842                 2.0568
 Frc consts  --      0.8525                 0.8491                 1.3167
 IR Inten    --      6.6563                 3.0169                 4.9872

                     22                     23                     24
                      A                      A                      A
 Frequencies --   1046.1731              1089.5465              1108.2805
 Red. masses --      2.4095                 1.6231                 1.4139
 Frc consts  --      1.5538                 1.1353                 1.0233
 IR Inten    --      6.8587                 9.4675                 1.3030

                     25                     26                     27
                      A                      A                      A
 Frequencies --   1122.7061              1155.6077              1178.7478
 Red. masses --      1.5919                 1.3744                 1.3863
 Frc consts  --      1.1822                 1.0814                 1.1348
 IR Inten    --      4.5817                 0.3973                 3.0758

                     28                     29                     30
                      A                      A                      A
 Frequencies --   1188.0464              1205.7521              1212.0791
 Red. masses --      1.4959                 1.9098                 1.7021
 Frc consts  --      1.2440                 1.6359                 1.4733
 IR Inten    --      2.9084                14.7806                 2.7213

                     31                     32                     33
                      A                      A                      A
 Frequencies --   1262.1636              1272.7301              1289.0228
 Red. masses --      1.4619                 1.6902                 1.5888
 Frc consts  --      1.3722                 1.6131                 1.5554
 IR Inten    --     14.6782                 8.4073                 4.4642

                     34                     35                     36
                      A                      A                      A
 Frequencies --   1306.5512              1405.0473              1443.2559
 Red. masses --      1.5847                 1.3017                 2.0979
 Frc consts  --      1.5939                 1.5140                 2.5747
 IR Inten    --      2.6038                 2.8438                 9.4347

                     37                     38                     39
                      A                      A                      A
 Frequencies --   1461.7820              1478.5824              1486.0371
 Red. masses --      1.6325                 1.1389                 1.1875
 Frc consts  --      2.0553                 1.4669                 1.5450
 IR Inten    --      6.4679                 4.1473                 9.1754

                     40                     41                     42
                      A                      A                      A
 Frequencies --   1496.3955              1529.5537              3034.3366
 Red. masses --      1.3403                 1.3634                 1.0364
 Frc consts  --      1.7682                 1.8793                 5.6220
 IR Inten    --      6.2772                 3.3048                19.1168

                     43                     44                     45
                      A                      A                      A
 Frequencies --   3066.5894              3071.8097              3077.3116
 Red. masses --      1.0701                 1.0723                 1.0510
 Frc consts  --      5.9293                 5.9615                 5.8642
 IR Inten    --     19.2260                16.3700                29.2941

                     46                     47                     48
                      A                      A                      A
 Frequencies --   3096.3893              3121.5090              3122.5133
 Red. masses --      1.0998                 1.1006                 1.0919
 Frc consts  --      6.2125                 6.3185                 6.2723
 IR Inten    --     15.4080                10.0615                 4.3927

                     49                     50                     51
                      A                      A                      A
 Frequencies --   3127.7254              3162.8729              3182.5437
 Red. masses --      1.1048                 1.1185                 1.0941
 Frc consts  --      6.3678                 6.5928                 6.5292
 IR Inten    --     23.8414                31.9783                23.2803

 - Thermochemistry -
 -------------------
 Temperature   298.150 Kelvin.  Pressure   1.00000 Atm.
 Atom     1 has atomic number  6 and mass  12.00000

 Molecular mass:   126.06808 amu.
 Principal axes and moments of inertia in atomic units:
                           1         2         3
     Eigenvalues --   604.463861465.924271773.89248
           X            0.99986   0.00593   0.01587
           Y           -0.00587   0.99997  -0.00416
           Z           -0.01590   0.00406   0.99987
 This molecule is an asymmetric top.
 Rotational symmetry number  1.
 Warning -- assumption of classical behavior for rotation
           may cause significant error
 Rotational temperatures (Kelvin)      0.14329     0.05908     0.04883
 Rotational constants (GHZ):           2.98569     1.23113     1.01739
 Zero-point vibrational energy     414595.8 (Joules/Mol)
                                   99.09077 (Kcal/Mol)
 Warning -- explicit consideration of  10 degrees of freedom as
           vibrations may cause significant error
 Vibrational temperatures:    100.68   184.52   212.57   287.24   394.98
          (Kelvin)            405.50   492.13   630.93   648.67   782.33
                              942.50  1055.25  1160.17  1228.91  1245.28
                             1298.63  1308.53  1327.33  1380.21  1417.77
                             1499.74  1505.21  1567.61  1594.57  1615.32
                             1662.66  1695.95  1709.33  1734.81  1743.91
                             1815.97  1831.17  1854.61  1879.83  2021.55
                             2076.52  2103.18  2127.35  2138.07  2152.98
                             2200.68  4365.73  4412.13  4419.64  4427.56
                             4455.01  4491.15  4492.59  4500.09  4550.66
                             4578.96

 Zero-point correction=                           0.157911 (Hartree/Particle)
 Thermal correction to Energy=                    0.166407
 Thermal correction to Enthalpy=                  0.167351
 Thermal correction to Gibbs Free Energy=         0.124480
 Sum of electronic and zero-point Energies=           -422.968613
 Sum of electronic and thermal Energies=              -422.960117
 Sum of electronic and thermal Enthalpies=            -422.959173
 Sum of electronic and thermal Free Energies=         -423.002044

                     E (Thermal)             CV                S
                      KCal/Mol        Cal/Mol-Kelvin    Cal/Mol-Kelvin
 Total                  104.422             31.993             90.230
 Electronic               0.000              0.000              0.000
 Translational            0.889              2.981             40.409
 Rotational               0.889              2.981             28.843
 Vibrational            102.644             26.031             20.979
 Vibration     1          0.598              1.968              4.154
 Vibration     2          0.611              1.925              2.972
 Vibration     3          0.617              1.905              2.701
 Vibration     4          0.638              1.840              2.136
 Vibration     5          0.677              1.720              1.568
 Vibration     6          0.681              1.707              1.523
 Vibration     7          0.721              1.591              1.203
 Vibration     8          0.799              1.386              0.831
 Vibration     9          0.810              1.359              0.793
 Vibration    10          0.899              1.153              0.557

 Normal termination of Gaussian 09 at Mon Jan 27 18:34:53 2020.
