 Gaussian 09, Revision D.01,
 Gaussian 09:  ES64L-G09RevD.01 24-Apr-2013

 -----------------------------
 # b3lyp 6-31G(2df,p) opt Freq
 -----------------------------

 -----
 titel
 -----
 Symbolic Z-matrix:
 Charge =  0 Multiplicity = 1

 SCF Done:  E(RB3LYP) =  -423.159566781     A.U. after   14 cycles
 Optimization completed.
    -- Stationary point found.
 Normal termination of Gaussian 09 at Mon Jan 27 18:50:05 2020.

 ----------------------------------------------------------------------
 #N Geom=AllCheck Guess=TCheck SCRF=Check GenChk RB3LYP/6-31G(2df,p) Fr
 eq
 ----------------------------------------------------------------------

 Structure from the checkpoint file:  "/scratch/puck/g09_38e8b549-28e5-4c65-aa4d-babc6f841d38/Gau-54680.chk"
 -----
 titel
 -----
 Charge =  0 Multiplicity = 1

                         Standard orientation:
 ---------------------------------------------------------------------
 Center     Atomic      Atomic             Coordinates (Angstroms)
 Number     Number       Type             X           Y           Z
 ---------------------------------------------------------------------
      1          6           0        1.795166   -1.589062   -0.162842
      2          6           0        0.803124   -0.451394   -0.106414
      3          6           0        0.736617    0.551408   -1.300649
      4          6           0        0.789859    1.753656   -0.307203
      5          6           0        0.851942    0.762103    0.875275
      6          8           0       -0.450881    0.450376    1.410755
      7          6           0       -0.576411   -0.712768    0.588834
      8          6           0       -1.789709   -0.745472   -0.305305
      9          8           0       -2.548674    0.170381   -0.484681
     10          1           0        1.876276   -2.100703    0.802254
     11          1           0        1.500952   -2.333086   -0.913037
     12          1           0        2.791570   -1.226100   -0.437095
     13          1           0        1.620966    0.479024   -1.938671
     14          1           0       -0.148098    0.494925   -1.938004
     15          1           0        1.677710    2.381568   -0.414973
     16          1           0       -0.099396    2.385447   -0.279849
     17          1           0        1.598134    0.904098    1.661828
     18          1           0       -0.568240   -1.638283    1.188204
     19          1           0       -1.916961   -1.723769   -0.829421
 ---------------------------------------------------------------------

 SCF Done:  E(RB3LYP) =  -423.159566781     A.U. after    1 cycles

 The electronic state is 1-A.
 Alpha  occ. eigenvalues --  -19.14265 -19.14156 -10.27095 -10.24550 -10.23711
 Alpha  occ. eigenvalues --  -10.21240 -10.19206 -10.19073 -10.18393  -1.06011
 Alpha  occ. eigenvalues --   -1.04013  -0.83731  -0.76119  -0.71800  -0.65103
 Alpha  occ. eigenvalues --   -0.63522  -0.58096  -0.52647  -0.50184  -0.49326
 Alpha  occ. eigenvalues --   -0.46891  -0.45351  -0.42587  -0.42086  -0.41401
 Alpha  occ. eigenvalues --   -0.41130  -0.38565  -0.36678  -0.35615  -0.33059
 Alpha  occ. eigenvalues --   -0.30941  -0.28976  -0.26117  -0.24361
 Alpha virt. eigenvalues --   -0.02890   0.07503   0.07994   0.10587   0.11536
 Alpha virt. eigenvalues --    0.12033   0.13238   0.13485   0.14980   0.15427
 Alpha virt. eigenvalues --    0.17262   0.17637   0.18331   0.20245   0.21942

 Mulliken charges:
               1
     1  C   -0.500674
     2  C    0.256359
     3  C   -0.291847
     4  C   -0.230306
     5  C    0.087037
     6  O   -0.289576
     7  C    0.009805
     8  C    0.145802
     9  O   -0.247739
    10  H    0.123968
    11  H    0.124661
    12  H    0.123212
    13  H    0.104330
    14  H    0.118592
    15  H    0.101859
    16  H    0.130607
    17  H    0.077731
    18  H    0.086528
    19  H    0.069653
 Sum of Mulliken charges =   0.00000

 Dipole moment (field-independent basis, Debye):
    X=              3.1203    Y=             -1.8900    Z=             -0.7103  Tot=              3.7166
 Quadrupole moment (field-independent basis, Debye-Ang):
   XX=            -57.9292   YY=            -50.5470   ZZ=            -54.8987
   XY=              4.0750   XZ=             -0.0801   YZ=             -0.7670

  Exact polarizability:  80.091   0.855  79.384   2.307  -0.106  67.060
 Approx polarizability: 115.002  -3.800 115.527   2.946   0.324 101.313

                      1                      2                      3
                      A                      A                      A
 Frequencies --     43.1942                91.7748               181.2763
 Red. masses --      3.4132                 4.5557                 2.4789
 Frc consts  --      0.0038                 0.0226                 0.0480
 IR Inten    --      1.6288                 6.1784                 1.6126

                      4                      5                      6
                      A                      A                      A
 Frequencies --    209.3075               240.3538               272.8196
 Red. masses --      1.1144                 2.1725                 4.6284
 Frc consts  --      0.0288                 0.0739                 0.2030
 IR Inten    --      0.0665                 1.9573                 1.3271

                      7                      8                      9
                      A                      A                      A
 Frequencies --    320.6814               391.2414               427.9302
 Red. masses --      2.3504                 3.2328                 2.4118
 Frc consts  --      0.1424                 0.2916                 0.2602
 IR Inten    --      0.6914                 2.8411                 1.0269

                     10                     11                     12
                      A                      A                      A
 Frequencies --    600.4802               649.2480               727.9119
 Red. masses --      3.4932                 4.2638                 1.3310
 Frc consts  --      0.7421                 1.0589                 0.4155
 IR Inten    --      5.6185                 5.4366                 2.6357

                     13                     14                     15
                      A                      A                      A
 Frequencies --    754.9543               805.1540               865.2758
 Red. masses --      5.5510                 2.4914                 2.1510
 Frc consts  --      1.8641                 0.9516                 0.9489
 IR Inten    --     40.9186                11.6467                 3.8414

                     16                     17                     18
                      A                      A                      A
 Frequencies --    873.5600               897.1911               940.6970
 Red. masses --      2.0306                 2.0440                 2.7029
 Frc consts  --      0.9130                 0.9694                 1.4092
 IR Inten    --     12.0777                 7.8336                 3.5975

                     19                     20                     21
                      A                      A                      A
 Frequencies --    952.7034               980.8365              1023.9459
 Red. masses --      2.8443                 1.4156                 2.1146
 Frc consts  --      1.5210                 0.8024                 1.3063
 IR Inten    --      3.5995                 2.5145                 9.1982

                     22                     23                     24
                      A                      A                      A
 Frequencies --   1034.9220              1114.2781              1119.6497
 Red. masses --      2.5356                 2.2331                 2.3408
 Frc consts  --      1.6001                 1.6336                 1.7289
 IR Inten    --     40.5836                20.0703                 5.1916

                     25                     26                     27
                      A                      A                      A
 Frequencies --   1163.3505              1176.8992              1194.5381
 Red. masses --      2.1876                 2.4997                 1.5712
 Frc consts  --      1.7444                 2.0399                 1.3209
 IR Inten    --      1.2087                 3.1642                 3.3885

                     28                     29                     30
                      A                      A                      A
 Frequencies --   1220.7774              1241.9645              1249.8193
 Red. masses --      1.6591                 1.3886                 1.4540
 Frc consts  --      1.4568                 1.2620                 1.3382
 IR Inten    --      6.0815                 1.0153                 2.8372

                     31                     32                     33
                      A                      A                      A
 Frequencies --   1275.9725              1310.6722              1339.7991
 Red. masses --      1.5863                 1.2677                 2.2378
 Frc consts  --      1.5216                 1.2831                 2.3668
 IR Inten    --      2.0790                10.1059                 5.0233

                     34                     35                     36
                      A                      A                      A
 Frequencies --   1365.1313              1412.5267              1419.4627
 Red. masses --      1.6244                 1.2569                 1.2382
 Frc consts  --      1.7836                 1.4775                 1.4699
 IR Inten    --     10.1556                 2.6300                 6.2948

                     37                     38                     39
                      A                      A                      A
 Frequencies --   1460.7293              1485.7602              1491.2121
 Red. masses --      1.0882                 1.0949                 1.0574
 Frc consts  --      1.3681                 1.4240                 1.3854
 IR Inten    --      2.4166                 3.2123                 7.5665

                     40                     41                     42
                      A                      A                      A
 Frequencies --   1493.2268              1833.9746              2838.2548
 Red. masses --      1.0552                10.3243                 1.0811
 Frc consts  --      1.3863                20.4596                 5.1312
 IR Inten    --      3.6857               137.5483               114.3252

                     43                     44                     45
                      A                      A                      A
 Frequencies --   2970.3407              3022.4473              3063.0446
 Red. masses --      1.0830                 1.0359                 1.0633
 Frc consts  --      5.6296                 5.5756                 5.8778
 IR Inten    --     53.5026                25.5386                14.7825

                     46                     47                     48
                      A                      A                      A
 Frequencies --   3065.7705              3076.6986              3085.9405
 Red. masses --      1.0688                 1.0773                 1.0997
 Frc consts  --      5.9185                 6.0086                 6.1700
 IR Inten    --     49.3313                40.2862                20.4841

                     49                     50                     51
                      A                      A                      A
 Frequencies --   3096.9359              3114.0038              3135.6362
 Red. masses --      1.1015                 1.1063                 1.1067
 Frc consts  --      6.2242                 6.3209                 6.4110
 IR Inten    --     22.1782                 5.1058                21.4520

 - Thermochemistry -
 -------------------
 Temperature   298.150 Kelvin.  Pressure   1.00000 Atm.
 Atom     1 has atomic number  6 and mass  12.00000

 Molecular mass:   126.06808 amu.
 Principal axes and moments of inertia in atomic units:
                           1         2         3
     Eigenvalues --   760.155361179.087911323.47105
           X            0.99994  -0.00785  -0.00758
           Y            0.00756   0.99928  -0.03707
           Z            0.00786   0.03701   0.99928
 This molecule is an asymmetric top.
 Rotational symmetry number  1.
 Warning -- assumption of classical behavior for rotation
           may cause significant error
 Rotational temperatures (Kelvin)      0.11394     0.07346     0.06544
 Rotational constants (GHZ):           2.37417     1.53062     1.36364
 Zero-point vibrational energy     413455.0 (Joules/Mol)
                                   98.81811 (Kcal/Mol)
 Warning -- explicit consideration of  10 degrees of freedom as
           vibrations may cause significant error
 Vibrational temperatures:     62.15   132.04   260.82   301.15   345.82
          (Kelvin)            392.53   461.39   562.91   615.70   863.96
                              934.12  1047.30  1086.21  1158.44  1244.94
                             1256.86  1290.86  1353.45  1370.73  1411.20
                             1473.23  1489.02  1603.20  1610.92  1673.80
                             1693.29  1718.67  1756.42  1786.91  1798.21
                             1835.84  1885.76  1927.67  1964.12  2032.31
                             2042.29  2101.66  2137.67  2145.52  2148.42
                             2638.68  4083.61  4273.65  4348.62  4407.03
                             4410.95  4426.68  4439.97  4455.79  4480.35
                             4511.48

 Zero-point correction=                           0.157477 (Hartree/Particle)
 Thermal correction to Energy=                    0.166157
 Thermal correction to Enthalpy=                  0.167101
 Thermal correction to Gibbs Free Energy=         0.123551
 Sum of electronic and zero-point Energies=           -423.002090
 Sum of electronic and thermal Energies=              -422.993410
 Sum of electronic and thermal Enthalpies=            -422.992465
 Sum of electronic and thermal Free Energies=         -423.036016

                     E (Thermal)             CV                S
                      KCal/Mol        Cal/Mol-Kelvin    Cal/Mol-Kelvin
 Total                  104.265             32.121             91.659
 Electronic               0.000              0.000              0.000
 Translational            0.889              2.981             40.409
 Rotational               0.889              2.981             28.563
 Vibrational            102.488             26.159             22.688
 Vibration     1          0.595              1.980              5.107
 Vibration     2          0.602              1.955              3.622
 Vibration     3          0.630              1.865              2.315
 Vibration     4          0.642              1.827              2.050
 Vibration     5          0.657              1.779              1.800
 Vibration     6          0.676              1.723              1.578
 Vibration     7          0.706              1.634              1.307
 Vibration     8          0.759              1.489              0.995
 Vibration     9          0.789              1.409              0.865
 Vibration    10          0.959              1.031              0.449

 Normal termination of Gaussian 09 at Mon Jan 27 19:33:41 2020.
