 Gaussian 09, Revision D.01,
 Gaussian 09:  ES64L-G09RevD.01 24-Apr-2013

 -----------------------------
 # b3lyp 6-31G(2df,p) opt Freq
 -----------------------------

 -----
 titel
 -----
 Symbolic Z-matrix:
 Charge =  0 Multiplicity = 1

 SCF Done:  E(RB3LYP) =  -423.159224070     A.U. after   15 cycles
 Optimization completed.
    -- Stationary point found.
 Normal termination of Gaussian 09 at Tue Jan 28 08:21:13 2020.

 ----------------------------------------------------------------------
 #N Geom=AllCheck Guess=TCheck SCRF=Check GenChk RB3LYP/6-31G(2df,p) Fr
 eq
 ----------------------------------------------------------------------

 Structure from the checkpoint file:  "/scratch/puck/g09_3374c7b5-0867-42d2-9e27-7111faeac165/Gau-59869.chk"
 -----
 titel
 -----
 Charge =  0 Multiplicity = 1

                         Standard orientation:
 ---------------------------------------------------------------------
 Center     Atomic      Atomic             Coordinates (Angstroms)
 Number     Number       Type             X           Y           Z
 ---------------------------------------------------------------------
      1          6           0       -2.613685   -0.863018   -0.478766
      2          6           0       -1.231983   -0.182552   -0.446291
      3          6           0       -0.120745   -1.221797   -0.128370
      4          6           0        1.235778   -0.687868    0.331994
      5          8           0        1.755223   -1.113757    1.337380
      6          6           0        2.005750    0.322340   -0.530610
      7          8           0        1.234079    1.190355   -1.333923
      8          6           0       -1.207291    0.933586    0.500853
      9          6           0       -1.154893    1.859560    1.268458
     10          1           0       -2.614782   -1.676523   -1.210719
     11          1           0       -2.864993   -1.280479    0.500645
     12          1           0       -3.392563   -0.148007   -0.755904
     13          1           0       -1.024027    0.232708   -1.436698
     14          1           0       -0.455246   -1.895033    0.665771
     15          1           0        0.041163   -1.826086   -1.031003
     16          1           0        2.692263    0.855654    0.139721
     17          1           0        2.624579   -0.265925   -1.221719
     18          1           0        0.732022    1.764222   -0.741962
     19          1           0       -1.130425    2.665177    1.960609
 ---------------------------------------------------------------------

 SCF Done:  E(RB3LYP) =  -423.159224070     A.U. after    1 cycles

 The electronic state is 1-A.
 Alpha  occ. eigenvalues --  -19.14754 -19.13129 -10.27019 -10.23730 -10.22603
 Alpha  occ. eigenvalues --  -10.20026 -10.19575 -10.19114 -10.18727  -1.04495
 Alpha  occ. eigenvalues --   -1.02647  -0.83207  -0.74896  -0.72986  -0.69864
 Alpha  occ. eigenvalues --   -0.63630  -0.55827  -0.53700  -0.51097  -0.49751
 Alpha  occ. eigenvalues --   -0.46113  -0.45152  -0.44351  -0.42247  -0.40036
 Alpha  occ. eigenvalues --   -0.38910  -0.38571  -0.37071  -0.35795  -0.34238
 Alpha  occ. eigenvalues --   -0.29602  -0.28112  -0.27733  -0.23895
 Alpha virt. eigenvalues --   -0.02075   0.03718   0.04182   0.08294   0.10636
 Alpha virt. eigenvalues --    0.11777   0.12540   0.13111   0.14460   0.16444
 Alpha virt. eigenvalues --    0.16973   0.17313   0.18484   0.19618   0.21629

 Mulliken charges:
               1
     1  C   -0.396316
     2  C   -0.146258
     3  C   -0.284439
     4  C    0.327158
     5  O   -0.292382
     6  C   -0.157570
     7  O   -0.408408
     8  C    0.320070
     9  C   -0.485404
    10  H    0.120156
    11  H    0.131881
    12  H    0.129454
    13  H    0.131926
    14  H    0.127885
    15  H    0.123761
    16  H    0.122183
    17  H    0.135609
    18  H    0.293422
    19  H    0.207271
 Sum of Mulliken charges =   0.00000

 Dipole moment (field-independent basis, Debye):
    X=             -1.6040    Y=              0.5438    Z=             -1.0181  Tot=              1.9761
 Quadrupole moment (field-independent basis, Debye-Ang):
   XX=            -54.2001   YY=            -50.3054   ZZ=            -57.0557
   XY=              1.9959   XZ=             -2.2397   YZ=              7.2516

  Exact polarizability:  80.106   1.060  79.667   2.035   9.110  72.423
 Approx polarizability: 101.557  -0.753 120.747   6.334  16.809 121.431

                      1                      2                      3
                      A                      A                      A
 Frequencies --     62.6655                66.4795               101.4382
 Red. masses --      4.9009                 2.8138                 3.6111
 Frc consts  --      0.0113                 0.0073                 0.0219
 IR Inten    --      3.8490                 0.8934                 5.3276

                      4                      5                      6
                      A                      A                      A
 Frequencies --    127.7741               208.0583               218.3149
 Red. masses --      3.6696                 3.3399                 2.3940
 Frc consts  --      0.0353                 0.0852                 0.0672
 IR Inten    --      0.4711                 2.5669                 0.2941

                      7                      8                      9
                      A                      A                      A
 Frequencies --    248.8783               268.7205               329.6654
 Red. masses --      2.0585                 1.8125                 3.6365
 Frc consts  --      0.0751                 0.0771                 0.2329
 IR Inten    --      3.0029                 0.6477                 0.1932

                     10                     11                     12
                      A                      A                      A
 Frequencies --    417.1537               482.2850               521.0590
 Red. masses --      2.0385                 4.4096                 1.3346
 Frc consts  --      0.2090                 0.6043                 0.2135
 IR Inten    --      6.3170                18.2199               122.9325

                     13                     14                     15
                      A                      A                      A
 Frequencies --    535.3326               546.0002               622.0856
 Red. masses --      3.1916                 4.3852                 2.7460
 Frc consts  --      0.5389                 0.7702                 0.6261
 IR Inten    --     42.1916                15.6277                15.1607

                     16                     17                     18
                      A                      A                      A
 Frequencies --    637.0459               653.0652               770.4549
 Red. masses --      1.4789                 1.2137                 2.4682
 Frc consts  --      0.3536                 0.3050                 0.8632
 IR Inten    --     28.6764                57.2212                 1.3790

                     19                     20                     21
                      A                      A                      A
 Frequencies --    805.5374               854.9132               946.6129
 Red. masses --      3.4634                 1.6633                 1.8062
 Frc consts  --      1.3241                 0.7162                 0.9536
 IR Inten    --      5.2882                 2.2882                 3.5992

                     22                     23                     24
                      A                      A                      A
 Frequencies --    978.4307              1057.0585              1079.1056
 Red. masses --      1.6044                 2.4546                 2.2931
 Frc consts  --      0.9050                 1.6160                 1.5732
 IR Inten    --      4.6630                22.9662                 6.7344

                     25                     26                     27
                      A                      A                      A
 Frequencies --   1102.5820              1148.7890              1164.9598
 Red. masses --      5.6096                 2.0600                 1.4936
 Frc consts  --      4.0179                 1.6018                 1.1943
 IR Inten    --     54.9258                11.8125                 8.8865

                     28                     29                     30
                      A                      A                      A
 Frequencies --   1229.3331              1261.4153              1291.1939
 Red. masses --      1.2870                 2.0793                 1.2940
 Frc consts  --      1.1460                 1.9494                 1.2711
 IR Inten    --     16.5530                50.0676                 5.6921

                     31                     32                     33
                      A                      A                      A
 Frequencies --   1337.0904              1364.3958              1371.3152
 Red. masses --      1.3599                 1.2987                 1.3382
 Frc consts  --      1.4325                 1.4244                 1.4826
 IR Inten    --      0.8569                 3.1446                13.0072

                     34                     35                     36
                      A                      A                      A
 Frequencies --   1408.7397              1420.5393              1461.2855
 Red. masses --      1.2094                 1.1979                 1.0824
 Frc consts  --      1.4141                 1.4242                 1.3618
 IR Inten    --      1.0434                22.2198                 6.1675

                     37                     38                     39
                      A                      A                      A
 Frequencies --   1468.5835              1493.4202              1499.5791
 Red. masses --      1.0747                 1.0437                 1.0514
 Frc consts  --      1.3657                 1.3715                 1.3930
 IR Inten    --      1.5690                 4.6055                 2.8543

                     40                     41                     42
                      A                      A                      A
 Frequencies --   1804.5285              2223.5402              3015.6442
 Red. masses --     11.5316                 5.9429                 1.0566
 Frc consts  --     22.1241                17.3115                 5.6616
 IR Inten    --    131.0053                 1.6336                27.0531

                     43                     44                     45
                      A                      A                      A
 Frequencies --   3027.0304              3041.6118              3059.3864
 Red. masses --      1.0632                 1.0347                 1.1052
 Frc consts  --      5.7400                 5.6397                 6.0946
 IR Inten    --     12.4490                22.6769                16.7525

                     46                     47                     48
                      A                      A                      A
 Frequencies --   3066.7592              3100.8932              3116.3935
 Red. masses --      1.0827                 1.0981                 1.1019
 Frc consts  --      5.9995                 6.2210                 6.3053
 IR Inten    --      0.3030                 6.0639                21.2863

                     49                     50                     51
                      A                      A                      A
 Frequencies --   3124.1416              3499.2120              3773.3183
 Red. masses --      1.1022                 1.1612                 1.0663
 Frc consts  --      6.3382                 8.3768                 8.9453
 IR Inten    --     20.4120                70.2914                65.0232

 - Thermochemistry -
 -------------------
 Temperature   298.150 Kelvin.  Pressure   1.00000 Atm.
 Atom     1 has atomic number  6 and mass  12.00000

 Molecular mass:   126.06808 amu.
 Principal axes and moments of inertia in atomic units:
                           1         2         3
     Eigenvalues --   899.858911496.010771678.34467
           X            0.99856   0.05351   0.00483
           Y           -0.05370   0.99126   0.12051
           Z            0.00166  -0.12059   0.99270
 This molecule is an asymmetric top.
 Rotational symmetry number  1.
 Warning -- assumption of classical behavior for rotation
           may cause significant error
 Rotational temperatures (Kelvin)      0.09625     0.05790     0.05161
 Rotational constants (GHZ):           2.00558     1.20637     1.07531
 Zero-point vibrational energy     409205.5 (Joules/Mol)
                                   97.80246 (Kcal/Mol)
 Warning -- explicit consideration of  14 degrees of freedom as
           vibrations may cause significant error
 Vibrational temperatures:     90.16    95.65   145.95   183.84   299.35
          (Kelvin)            314.11   358.08   386.63   474.31   600.19
                              693.90   749.69   770.22   785.57   895.04
                              916.57   939.61  1108.51  1158.99  1230.03
                             1361.96  1407.74  1520.87  1552.59  1586.37
                             1652.85  1676.12  1768.73  1814.89  1857.74
                             1923.77  1963.06  1973.01  2026.86  2043.84
                             2102.46  2112.96  2148.70  2157.56  2596.31
                             3199.17  4338.83  4355.22  4376.20  4401.77
                             4412.38  4461.49  4483.79  4494.94  5034.58
                             5428.96

 Zero-point correction=                           0.155858 (Hartree/Particle)
 Thermal correction to Energy=                    0.166219
 Thermal correction to Enthalpy=                  0.167164
 Thermal correction to Gibbs Free Energy=         0.120046
 Sum of electronic and zero-point Energies=           -423.003366
 Sum of electronic and thermal Energies=              -422.993005
 Sum of electronic and thermal Enthalpies=            -422.992060
 Sum of electronic and thermal Free Energies=         -423.039178

                     E (Thermal)             CV                S
                      KCal/Mol        Cal/Mol-Kelvin    Cal/Mol-Kelvin
 Total                  104.304             37.178             99.167
 Electronic               0.000              0.000              0.000
 Translational            0.889              2.981             40.409
 Rotational               0.889              2.981             29.203
 Vibrational            102.527             31.216             29.555
 Vibration     1          0.597              1.972              4.371
 Vibration     2          0.598              1.970              4.255
 Vibration     3          0.604              1.948              3.426
 Vibration     4          0.611              1.925              2.979
 Vibration     5          0.641              1.828              2.061
 Vibration     6          0.646              1.813              1.973
 Vibration     7          0.662              1.765              1.739
 Vibration     8          0.673              1.731              1.604
 Vibration     9          0.712              1.616              1.262
 Vibration    10          0.780              1.433              0.902
 Vibration    11          0.839              1.289              0.704
 Vibration    12          0.876              1.203              0.608
 Vibration    13          0.890              1.172              0.575
 Vibration    14          0.901              1.148              0.553

 Normal termination of Gaussian 09 at Tue Jan 28 10:16:06 2020.
