 Gaussian 09, Revision D.01,
 Gaussian 09:  ES64L-G09RevD.01 24-Apr-2013

 -----------------------------
 # b3lyp 6-31G(2df,p) opt Freq
 -----------------------------

 -----
 titel
 -----
 Symbolic Z-matrix:
 Charge =  0 Multiplicity = 1

 SCF Done:  E(RB3LYP) =  -423.158958321     A.U. after   13 cycles
 Optimization completed.
    -- Stationary point found.
 Normal termination of Gaussian 09 at Tue Jan 28 14:09:34 2020.

 ----------------------------------------------------------------------
 #N Geom=AllCheck Guess=TCheck SCRF=Check GenChk RB3LYP/6-31G(2df,p) Fr
 eq
 ----------------------------------------------------------------------

 Structure from the checkpoint file:  "/scratch/puck/g09_70058b20-b32f-43ae-a850-3685dd720a6a/Gau-111557.chk"
 -----
 titel
 -----
 Charge =  0 Multiplicity = 1

                         Standard orientation:
 ---------------------------------------------------------------------
 Center     Atomic      Atomic             Coordinates (Angstroms)
 Number     Number       Type             X           Y           Z
 ---------------------------------------------------------------------
      1          8           0        3.201325   -0.631158   -0.333081
      2          6           0        2.393263    0.436658    0.137444
      3          6           0        0.950265    0.308626   -0.289429
      4          6           0       -0.137446    0.969155    0.521768
      5          6           0       -1.429175    1.348793   -0.207070
      6          6           0       -2.025423    0.011110   -0.632334
      7          8           0       -2.425975   -0.812782    0.468520
      8          6           0       -1.176794   -1.100868   -0.177130
      9          6           0        0.010734   -0.539883    0.544608
     10          1           0        2.793981   -1.450738   -0.033276
     11          1           0        2.446310    0.527923    1.235224
     12          1           0        2.835980    1.346097   -0.282995
     13          1           0        0.808989    0.274034   -1.368035
     14          1           0        0.159782    1.550664    1.387211
     15          1           0       -2.121946    1.880854    0.453284
     16          1           0       -1.244678    1.989615   -1.077307
     17          1           0       -2.656240   -0.057592   -1.515152
     18          1           0       -1.129499   -2.057860   -0.692265
     19          1           0        0.391986   -1.053026    1.422668
 ---------------------------------------------------------------------

 SCF Done:  E(RB3LYP) =  -423.158958321     A.U. after    1 cycles

 The electronic state is 1-A.
 Alpha  occ. eigenvalues --  -19.14711 -19.13444 -10.23767 -10.23687 -10.23138
 Alpha  occ. eigenvalues --  -10.19918 -10.19807 -10.19703 -10.19274  -1.07015
 Alpha  occ. eigenvalues --   -1.01611  -0.88128  -0.74986  -0.70604  -0.66755
 Alpha  occ. eigenvalues --   -0.60783  -0.56920  -0.56654  -0.53431  -0.50127
 Alpha  occ. eigenvalues --   -0.47367  -0.44826  -0.43452  -0.42195  -0.40795
 Alpha  occ. eigenvalues --   -0.38337  -0.37421  -0.37249  -0.33333  -0.32216
 Alpha  occ. eigenvalues --   -0.28472  -0.28002  -0.26554  -0.26137
 Alpha virt. eigenvalues --    0.07636   0.09184   0.09775   0.10079   0.11759
 Alpha virt. eigenvalues --    0.12299   0.13476   0.13751   0.16079   0.16412
 Alpha virt. eigenvalues --    0.16779   0.18353   0.19741   0.20706   0.22264

 Mulliken charges:
               1
     1  O   -0.417597
     2  C   -0.088322
     3  C   -0.048112
     4  C   -0.051905
     5  C   -0.270334
     6  C    0.052391
     7  O   -0.258945
     8  C    0.020275
     9  C   -0.091287
    10  H    0.280619
    11  H    0.083411
    12  H    0.113343
    13  H    0.089032
    14  H    0.088783
    15  H    0.116411
    16  H    0.103183
    17  H    0.095268
    18  H    0.094153
    19  H    0.089632
 Sum of Mulliken charges =   0.00000

 Dipole moment (field-independent basis, Debye):
    X=             -0.1043    Y=              0.4621    Z=             -0.3583  Tot=              0.5940
 Quadrupole moment (field-independent basis, Debye-Ang):
   XX=            -65.0057   YY=            -49.2675   ZZ=            -52.2891
   XY=             -2.4832   XZ=              6.3048   YZ=              0.2601

  Exact polarizability:  85.443  -1.932  74.526   2.449  -0.366  63.439
 Approx polarizability: 112.906  -3.573 113.363  -2.932  -3.458 101.090

                      1                      2                      3
                      A                      A                      A
 Frequencies --     92.8975               131.2185               179.1582
 Red. masses --      3.7743                 4.7879                 2.3929
 Frc consts  --      0.0192                 0.0486                 0.0453
 IR Inten    --      5.0807                 1.7437                 7.5905

                      4                      5                      6
                      A                      A                      A
 Frequencies --    272.5019               312.7016               362.2976
 Red. masses --      2.7856                 1.4794                 1.8244
 Frc consts  --      0.1219                 0.0852                 0.1411
 IR Inten    --      0.7435                56.1434                46.9896

                      7                      8                      9
                      A                      A                      A
 Frequencies --    388.2627               449.2100               482.6876
 Red. masses --      3.3508                 3.4167                 3.6639
 Frc consts  --      0.2976                 0.4062                 0.5029
 IR Inten    --      0.9265                12.2832                11.7530

                     10                     11                     12
                      A                      A                      A
 Frequencies --    692.1472               734.6301               814.6131
 Red. masses --      4.0253                 4.8553                 2.5965
 Frc consts  --      1.1362                 1.5438                 1.0152
 IR Inten    --      1.8362                 3.4864                18.6230

                     13                     14                     15
                      A                      A                      A
 Frequencies --    822.1739               865.3570               888.7945
 Red. masses --      3.5895                 2.3203                 1.9733
 Frc consts  --      1.4296                 1.0237                 0.9184
 IR Inten    --      4.0079                26.9535                 9.1740

                     16                     17                     18
                      A                      A                      A
 Frequencies --    900.6583               935.2745               969.4534
 Red. masses --      2.1906                 2.7179                 1.7764
 Frc consts  --      1.0470                 1.4007                 0.9836
 IR Inten    --      1.5584                 3.2527                 4.8205

                     19                     20                     21
                      A                      A                      A
 Frequencies --    985.5991              1012.8480              1036.0085
 Red. masses --      2.0462                 1.7574                 2.6729
 Frc consts  --      1.1711                 1.0622                 1.6903
 IR Inten    --      0.5078                11.0244                33.4364

                     22                     23                     24
                      A                      A                      A
 Frequencies --   1047.7949              1073.5414              1103.8215
 Red. masses --      1.4358                 2.6051                 1.2368
 Frc consts  --      0.9287                 1.7689                 0.8878
 IR Inten    --      9.4088                78.6599                 0.7763

                     25                     26                     27
                      A                      A                      A
 Frequencies --   1116.7918              1118.2500              1145.0075
 Red. masses --      1.7298                 1.9165                 1.6703
 Frc consts  --      1.2711                 1.4120                 1.2903
 IR Inten    --      5.5497                15.1375                10.1209

                     28                     29                     30
                      A                      A                      A
 Frequencies --   1183.1519              1208.8795              1238.5183
 Red. masses --      1.3515                 1.2577                 1.4486
 Frc consts  --      1.1147                 1.0829                 1.3092
 IR Inten    --      5.4969                 6.4299                 2.7935

                     31                     32                     33
                      A                      A                      A
 Frequencies --   1260.3821              1280.3436              1298.0012
 Red. masses --      1.3557                 1.5128                 1.2779
 Frc consts  --      1.2689                 1.4611                 1.2685
 IR Inten    --      5.4352                 5.7509                 0.4050

                     34                     35                     36
                      A                      A                      A
 Frequencies --   1324.3021              1350.6373              1376.5609
 Red. masses --      1.5683                 1.6295                 1.2773
 Frc consts  --      1.6206                 1.7514                 1.4261
 IR Inten    --      1.4432                 4.6104                 4.9595

                     37                     38                     39
                      A                      A                      A
 Frequencies --   1419.0704              1429.3323              1450.7482
 Red. masses --      1.3447                 3.0660                 2.3503
 Frc consts  --      1.5955                 3.6906                 2.9144
 IR Inten    --     64.5376                15.1528                24.4290

                     40                     41                     42
                      A                      A                      A
 Frequencies --   1482.8410              1506.1668              2965.6850
 Red. masses --      1.0966                 1.0881                 1.0713
 Frc consts  --      1.4207                 1.4543                 5.5514
 IR Inten    --      1.0240                 0.8885                52.1656

                     43                     44                     45
                      A                      A                      A
 Frequencies --   3036.3884              3067.5425              3078.4109
 Red. masses --      1.0606                 1.0905                 1.1026
 Frc consts  --      5.7611                 6.0456                 6.1565
 IR Inten    --     36.6417                31.9186                16.1035

                     46                     47                     48
                      A                      A                      A
 Frequencies --   3128.0434              3133.4993              3147.8357
 Red. masses --      1.0886                 1.0866                 1.0916
 Frc consts  --      6.2758                 6.2858                 6.3729
 IR Inten    --     11.2194                16.6041                44.9686

                     49                     50                     51
                      A                      A                      A
 Frequencies --   3153.6932              3172.7747              3809.0130
 Red. masses --      1.0913                 1.0911                 1.0659
 Frc consts  --      6.3949                 6.4711                 9.1113
 IR Inten    --     15.7137                13.6637                10.5330

 - Thermochemistry -
 -------------------
 Temperature   298.150 Kelvin.  Pressure   1.00000 Atm.
 Atom     1 has atomic number  8 and mass  15.99491

 Molecular mass:   126.06808 amu.
 Principal axes and moments of inertia in atomic units:
                           1         2         3
     Eigenvalues --   434.509471772.009351988.18286
           X            0.99985  -0.00771   0.01580
           Y            0.00752   0.99989   0.01249
           Z           -0.01590  -0.01237   0.99980
 This molecule is an asymmetric top.
 Rotational symmetry number  1.
 Warning -- assumption of classical behavior for rotation
           may cause significant error
 Rotational temperatures (Kelvin)      0.19934     0.04888     0.04356
 Rotational constants (GHZ):           4.15351     1.01847     0.90773
 Zero-point vibrational energy     421298.0 (Joules/Mol)
                                  100.69263 (Kcal/Mol)
 Warning -- explicit consideration of   9 degrees of freedom as
           vibrations may cause significant error
 Vibrational temperatures:    133.66   188.79   257.77   392.07   449.91
          (Kelvin)            521.26   558.62   646.31   694.48   995.84
                             1056.97  1172.05  1182.92  1245.05  1278.78
                             1295.84  1345.65  1394.83  1418.06  1457.26
                             1490.58  1507.54  1544.58  1588.15  1606.81
                             1608.91  1647.41  1702.29  1739.31  1781.95
                             1813.41  1842.13  1867.53  1905.37  1943.26
                             1980.56  2041.72  2056.49  2087.30  2133.47
                             2167.04  4266.95  4368.68  4413.50  4429.14
                             4500.55  4508.40  4529.03  4537.46  4564.91
                             5480.31

 Zero-point correction=                           0.160464 (Hartree/Particle)
 Thermal correction to Energy=                    0.168367
 Thermal correction to Enthalpy=                  0.169311
 Thermal correction to Gibbs Free Energy=         0.127846
 Sum of electronic and zero-point Energies=           -422.998494
 Sum of electronic and thermal Energies=              -422.990592
 Sum of electronic and thermal Enthalpies=            -422.989647
 Sum of electronic and thermal Free Energies=         -423.031112

                     E (Thermal)             CV                S
                      KCal/Mol        Cal/Mol-Kelvin    Cal/Mol-Kelvin
 Total                  105.652             30.720             87.270
 Electronic               0.000              0.000              0.000
 Translational            0.889              2.981             40.409
 Rotational               0.889              2.981             28.817
 Vibrational            103.874             24.758             18.044
 Vibration     1          0.602              1.954              3.598
 Vibration     2          0.612              1.922              2.928
 Vibration     3          0.629              1.868              2.337
 Vibration     4          0.676              1.724              1.580
 Vibration     5          0.701              1.649              1.348
 Vibration     6          0.736              1.550              1.112
 Vibration     7          0.756              1.495              1.007
 Vibration     8          0.808              1.363              0.798
 Vibration     9          0.839              1.288              0.703

 Optimization completed.
    -- Stationary point found.
 Normal termination of Gaussian 09 at Tue Jan 28 14:51:11 2020.
