 Gaussian 09, Revision D.01,
 Gaussian 09:  ES64L-G09RevD.01 24-Apr-2013

 -----------------------------
 # b3lyp 6-31G(2df,p) opt Freq
 -----------------------------

 -----
 titel
 -----
 Symbolic Z-matrix:
 Charge =  0 Multiplicity = 1

 SCF Done:  E(RB3LYP) =  -423.192828013     A.U. after   14 cycles
 Optimization completed.
    -- Stationary point found.
 Normal termination of Gaussian 09 at Tue Jan 28 12:07:53 2020.

 ----------------------------------------------------------------------
 #N Geom=AllCheck Guess=TCheck SCRF=Check GenChk RB3LYP/6-31G(2df,p) Fr
 eq
 ----------------------------------------------------------------------

 Structure from the checkpoint file:  "/scratch/puck/g09_1ba5f2dd-a620-4096-82d1-5524a21c2911/Gau-1504.chk"
 -----
 titel
 -----
 Charge =  0 Multiplicity = 1

                         Standard orientation:
 ---------------------------------------------------------------------
 Center     Atomic      Atomic             Coordinates (Angstroms)
 Number     Number       Type             X           Y           Z
 ---------------------------------------------------------------------
      1          6           0       -3.431300   -0.071530    0.885009
      2          6           0       -2.800528   -0.335689   -0.473675
      3          8           0       -1.434128   -0.786480   -0.344060
      4          6           0       -0.491728    0.169034   -0.235908
      5          8           0       -0.719718    1.354217   -0.240362
      6          6           0        0.885365   -0.452032   -0.116641
      7          6           0        1.984047    0.610851    0.044959
      8          6           0        3.311686    0.019102    0.150709
      9          6           0        4.395421   -0.493659    0.235243
     10          1           0       -3.370771   -0.958870    1.521759
     11          1           0       -2.930766    0.760272    1.386132
     12          1           0       -4.486936    0.189109    0.758333
     13          1           0       -3.307278   -1.149521   -0.997535
     14          1           0       -2.817355    0.562178   -1.095726
     15          1           0        0.883883   -1.146109    0.730151
     16          1           0        1.066596   -1.067689   -1.004090
     17          1           0        1.944706    1.302678   -0.803545
     18          1           0        1.770806    1.219953    0.930410
     19          1           0        5.360106   -0.930357    0.311310
 ---------------------------------------------------------------------

 SCF Done:  E(RB3LYP) =  -423.192828013     A.U. after    1 cycles

 The electronic state is 1-A.
 Alpha  occ. eigenvalues --  -19.18229 -19.12877 -10.30833 -10.24217 -10.21065
 Alpha  occ. eigenvalues --  -10.20488 -10.18416 -10.18068 -10.16957  -1.10161
 Alpha  occ. eigenvalues --   -1.01584  -0.81349  -0.77403  -0.73278  -0.68059
 Alpha  occ. eigenvalues --   -0.63503  -0.55308  -0.52916  -0.50800  -0.49015
 Alpha  occ. eigenvalues --   -0.47814  -0.45664  -0.44706  -0.42101  -0.40773
 Alpha  occ. eigenvalues --   -0.39396  -0.38837  -0.37161  -0.35967  -0.34086
 Alpha  occ. eigenvalues --   -0.30119  -0.27782  -0.26293  -0.26224
 Alpha virt. eigenvalues --    0.01180   0.05509   0.06130   0.09670   0.11383
 Alpha virt. eigenvalues --    0.12570   0.13120   0.14110   0.14639   0.14937
 Alpha virt. eigenvalues --    0.15482   0.17092   0.18464   0.20874   0.21526

 Mulliken charges:
               1
     1  C   -0.385903
     2  C   -0.057915
     3  O   -0.249369
     4  C    0.451944
     5  O   -0.360504
     6  C   -0.319482
     7  C   -0.352243
     8  C    0.282890
     9  C   -0.425664
    10  H    0.126373
    11  H    0.144453
    12  H    0.122214
    13  H    0.114779
    14  H    0.132378
    15  H    0.144049
    16  H    0.145292
    17  H    0.147299
    18  H    0.145371
    19  H    0.194037
 Sum of Mulliken charges =   0.00000

 Dipole moment (field-independent basis, Debye):
    X=             -1.1375    Y=             -1.4100    Z=              0.0159  Tot=              1.8117
 Quadrupole moment (field-independent basis, Debye-Ang):
   XX=            -46.1020   YY=            -56.6649   ZZ=            -52.2445
   XY=             -0.2908   XZ=              0.3691   YZ=              0.2161

  Exact polarizability: 112.337  -6.794  67.241   1.843  -0.338  57.294
 Approx polarizability: 137.954 -16.012 112.890   4.177  -1.070  84.050

                      1                      2                      3
                      A                      A                      A
 Frequencies --     43.5530                51.0291                75.4675
 Red. masses --      2.9630                 2.6694                 3.9606
 Frc consts  --      0.0033                 0.0041                 0.0133
 IR Inten    --      0.0044                 0.1521                 1.2640

                      4                      5                      6
                      A                      A                      A
 Frequencies --    107.5509               121.3396               203.8510
 Red. masses --      3.2607                 3.1076                 1.8391
 Frc consts  --      0.0222                 0.0270                 0.0450
 IR Inten    --      1.2421                 2.4219                 0.4194

                      7                      8                      9
                      A                      A                      A
 Frequencies --    247.6009               328.5640               343.6592
 Red. masses --      1.7702                 3.8511                 3.2961
 Frc consts  --      0.0639                 0.2449                 0.2294
 IR Inten    --      2.5058                12.8075                 2.8764

                     10                     11                     12
                      A                      A                      A
 Frequencies --    352.2959               452.7618               513.9502
 Red. masses --      3.4523                 3.3667                 4.9616
 Frc consts  --      0.2524                 0.4066                 0.7722
 IR Inten    --      9.1136                 4.2931                 3.7735

                     13                     14                     15
                      A                      A                      A
 Frequencies --    589.5330               621.4575               645.4418
 Red. masses --      2.2134                 1.2057                 1.2301
 Frc consts  --      0.4532                 0.2744                 0.3019
 IR Inten    --      3.4248                44.7882                41.9942

                     16                     17                     18
                      A                      A                      A
 Frequencies --    698.9643               785.6521               800.0630
 Red. masses --      3.7312                 1.4614                 1.2767
 Frc consts  --      1.0740                 0.5315                 0.4815
 IR Inten    --      6.3234                 4.5988                 3.2948

                     19                     20                     21
                      A                      A                      A
 Frequencies --    867.0081               928.4154               973.0291
 Red. masses --      2.9497                 3.2232                 3.7915
 Frc consts  --      1.3064                 1.6369                 2.1150
 IR Inten    --      5.9193                 3.9637                 4.8143

                     22                     23                     24
                      A                      A                      A
 Frequencies --   1031.6413              1039.8347              1070.4065
 Red. masses --      3.5584                 2.1022                 3.3796
 Frc consts  --      2.2313                 1.3392                 2.2815
 IR Inten    --     19.7186                 2.5330                18.2518

                     25                     26                     27
                      A                      A                      A
 Frequencies --   1116.7221              1181.1575              1189.4204
 Red. masses --      1.9970                 1.1962                 2.0186
 Frc consts  --      1.4673                 0.9833                 1.6826
 IR Inten    --     21.9356                 0.6958               171.0242

                     28                     29                     30
                      A                      A                      A
 Frequencies --   1203.8057              1302.5171              1307.4028
 Red. masses --      2.1122                 1.1042                 1.6649
 Frc consts  --      1.8035                 1.1038                 1.6767
 IR Inten    --    222.4882                 0.8636                88.3435

                     31                     32                     33
                      A                      A                      A
 Frequencies --   1330.9974              1386.0886              1401.7206
 Red. masses --      1.1394                 1.5265                 1.3397
 Frc consts  --      1.1893                 1.7279                 1.5509
 IR Inten    --     21.1470                36.7932                30.1298

                     34                     35                     36
                      A                      A                      A
 Frequencies --   1423.2988              1457.9783              1473.4179
 Red. masses --      1.4334                 1.0698                 1.0871
 Frc consts  --      1.7108                 1.3398                 1.3905
 IR Inten    --     12.7053                 9.1082                 9.9278

                     37                     38                     39
                      A                      A                      A
 Frequencies --   1484.9439              1487.2344              1507.0328
 Red. masses --      1.0618                 1.0716                 1.0598
 Frc consts  --      1.3795                 1.3965                 1.4182
 IR Inten    --      9.0981                 7.3366                 6.0194

                     40                     41                     42
                      A                      A                      A
 Frequencies --   1810.3027              2241.2715              3045.5699
 Red. masses --     11.2391                 5.9301                 1.0595
 Frc consts  --     21.7012                17.5511                 5.7899
 IR Inten    --    183.1484                 3.4141                 5.8044

                     43                     44                     45
                      A                      A                      A
 Frequencies --   3045.6218              3059.8302              3070.2229
 Red. masses --      1.0355                 1.0605                 1.0579
 Frc consts  --      5.6590                 5.8499                 5.8753
 IR Inten    --     14.0621                12.1442                26.7019

                     46                     47                     48
                      A                      A                      A
 Frequencies --   3073.5868              3099.1263              3112.2646
 Red. masses --      1.1002                 1.1017                 1.1032
 Frc consts  --      6.1238                 6.2345                 6.2959
 IR Inten    --      1.3923                 9.2995                11.2098

                     49                     50                     51
                      A                      A                      A
 Frequencies --   3120.5439              3140.5953              3507.3805
 Red. masses --      1.1022                 1.1059                 1.1623
 Frc consts  --      6.3234                 6.4265                 8.4244
 IR Inten    --     15.8376                24.9157                68.8806

 - Thermochemistry -
 -------------------
 Temperature   298.150 Kelvin.  Pressure   1.00000 Atm.
 Atom     1 has atomic number  6 and mass  12.00000

 Molecular mass:   126.06808 amu.
 Principal axes and moments of inertia in atomic units:
                           1         2         3
     Eigenvalues --   312.338762940.755113061.11019
           X            0.99998   0.00004  -0.00639
           Y            0.00002   0.99996   0.00842
           Z            0.00639  -0.00842   0.99994
 This molecule is an asymmetric top.
 Rotational symmetry number  1.
 Rotational temperatures (Kelvin)      0.27731     0.02945     0.02829
 Rotational constants (GHZ):           5.77815     0.61370     0.58957
 Zero-point vibrational energy     409560.2 (Joules/Mol)
                                   97.88725 (Kcal/Mol)
 Warning -- explicit consideration of  13 degrees of freedom as
           vibrations may cause significant error
 Vibrational temperatures:     62.66    73.42   108.58   154.74   174.58
          (Kelvin)            293.30   356.24   472.73   494.45   506.87
                              651.42   739.46   848.21   894.14   928.65
                             1005.65  1130.38  1151.11  1247.43  1335.78
                             1399.97  1484.30  1496.09  1540.07  1606.71
                             1699.42  1711.31  1732.01  1874.03  1881.06
                             1915.01  1994.27  2016.76  2047.81  2097.70
                             2119.92  2136.50  2139.80  2168.28  2604.62
                             3224.69  4381.89  4381.97  4402.41  4417.36
                             4422.20  4458.95  4477.85  4489.76  4518.61
                             5046.33

 Zero-point correction=                           0.155993 (Hartree/Particle)
 Thermal correction to Energy=                    0.166462
 Thermal correction to Enthalpy=                  0.167406
 Thermal correction to Gibbs Free Energy=         0.118958
 Sum of electronic and zero-point Energies=           -423.036835
 Sum of electronic and thermal Energies=              -423.026366
 Sum of electronic and thermal Enthalpies=            -423.025422
 Sum of electronic and thermal Free Energies=         -423.073870

                     E (Thermal)             CV                S
                      KCal/Mol        Cal/Mol-Kelvin    Cal/Mol-Kelvin
 Total                  104.457             36.314            101.968
 Electronic               0.000              0.000              0.000
 Translational            0.889              2.981             40.409
 Rotational               0.889              2.981             29.421
 Vibrational            102.679             30.352             32.139
 Vibration     1          0.595              1.980              5.091
 Vibration     2          0.595              1.977              4.777
 Vibration     3          0.599              1.965              4.005
 Vibration     4          0.606              1.943              3.313
 Vibration     5          0.609              1.931              3.079
 Vibration     6          0.640              1.834              2.098
 Vibration     7          0.661              1.767              1.748
 Vibration     8          0.712              1.618              1.267
 Vibration     9          0.722              1.588              1.195
 Vibration    10          0.729              1.571              1.156
 Vibration    11          0.811              1.355              0.787
 Vibration    12          0.869              1.219              0.624
 Vibration    13          0.947              1.054              0.468

 Optimization completed.
    -- Stationary point found.
 Normal termination of Gaussian 09 at Tue Jan 28 12:46:26 2020.
