 Gaussian 09, Revision D.01,
 Gaussian 09:  ES64L-G09RevD.01 24-Apr-2013

 -----------------------------
 # b3lyp 6-31G(2df,p) opt Freq
 -----------------------------

 -----
 titel
 -----
 Symbolic Z-matrix:
 Charge =  0 Multiplicity = 1

 SCF Done:  E(RB3LYP) =  -423.178834145     A.U. after   14 cycles
 Optimization completed.
    -- Stationary point found.
 Normal termination of Gaussian 09 at Mon Jan 27 22:53:27 2020.

 ----------------------------------------------------------------------
 #N Geom=AllCheck Guess=TCheck SCRF=Check GenChk RB3LYP/6-31G(2df,p) Fr
 eq
 ----------------------------------------------------------------------

 Structure from the checkpoint file:  "/scratch/puck/g09_37d3d2be-7c5c-4b3c-931f-c56cbc4b30c5/Gau-183164.chk"
 -----
 titel
 -----
 Charge =  0 Multiplicity = 1

                         Standard orientation:
 ---------------------------------------------------------------------
 Center     Atomic      Atomic             Coordinates (Angstroms)
 Number     Number       Type             X           Y           Z
 ---------------------------------------------------------------------
      1          6           0        2.602684   -0.938471   -0.513903
      2          6           0        1.230470   -0.553187   -0.059346
      3          6           0        0.354527   -1.282939    0.647503
      4          6           0       -0.945496   -0.589366    0.839560
      5          6           0       -1.677613   -0.259519   -0.458712
      6          8           0       -3.032749    0.066687   -0.415157
      7          6           0       -0.768812    0.759694    0.148099
      8          6           0        0.673911    0.835999   -0.346563
      9          8           0        1.433160    1.860671    0.294026
     10          1           0        2.656510   -1.008746   -1.608080
     11          1           0        3.332796   -0.178247   -0.214470
     12          1           0        2.911246   -1.902383   -0.100057
     13          1           0        0.535780   -2.295565    0.993906
     14          1           0       -1.536395   -0.710236    1.740592
     15          1           0       -1.345527   -0.787683   -1.354471
     16          1           0       -3.535036   -0.754435   -0.382260
     17          1           0       -1.232644    1.659069    0.534804
     18          1           0        0.727038    1.088067   -1.412530
     19          1           0        1.464917    1.638029    1.231788
 ---------------------------------------------------------------------

 SCF Done:  E(RB3LYP) =  -423.178834145     A.U. after    1 cycles

 The electronic state is 1-A.
 Alpha  occ. eigenvalues --  -19.14626 -19.13212 -10.23783 -10.23058 -10.18918
 Alpha  occ. eigenvalues --  -10.18364 -10.18302 -10.18182 -10.17968  -1.03197
 Alpha  occ. eigenvalues --   -1.01334  -0.87691  -0.77909  -0.69584  -0.68672
 Alpha  occ. eigenvalues --   -0.59694  -0.57176  -0.54445  -0.52579  -0.48680
 Alpha  occ. eigenvalues --   -0.45782  -0.44984  -0.42520  -0.41215  -0.40300
 Alpha  occ. eigenvalues --   -0.38998  -0.36328  -0.35715  -0.34268  -0.31802
 Alpha  occ. eigenvalues --   -0.28663  -0.27667  -0.26273  -0.22473
 Alpha virt. eigenvalues --    0.01375   0.07886   0.09399   0.11333   0.11735
 Alpha virt. eigenvalues --    0.13448   0.14383   0.15186   0.17135   0.17318
 Alpha virt. eigenvalues --    0.17687   0.18417   0.21220   0.22827   0.23844

 Mulliken charges:
               1
     1  C   -0.494627
     2  C    0.254373
     3  C   -0.189841
     4  C   -0.141091
     5  C    0.090393
     6  O   -0.426605
     7  C   -0.111950
     8  C    0.042063
     9  O   -0.432308
    10  H    0.126411
    11  H    0.135787
    12  H    0.119375
    13  H    0.092238
    14  H    0.089705
    15  H    0.085694
    16  H    0.287742
    17  H    0.103676
    18  H    0.092879
    19  H    0.276086
 Sum of Mulliken charges =   0.00000

 Dipole moment (field-independent basis, Debye):
    X=             -0.3080    Y=             -2.4538    Z=              0.6998  Tot=              2.5701
 Quadrupole moment (field-independent basis, Debye-Ang):
   XX=            -52.4113   YY=            -54.8475   ZZ=            -50.3742
   XY=              2.3421   XZ=             -0.0060   YZ=              1.6166

  Exact polarizability:  96.063   2.209  73.738  -5.061  -3.604  64.664
 Approx polarizability: 130.415  10.481 114.844  -9.374 -10.265 104.097

                      1                      2                      3
                      A                      A                      A
 Frequencies --    117.4132               165.0740               176.8062
 Red. masses --      3.4823                 1.0665                 3.2551
 Frc consts  --      0.0283                 0.0171                 0.0600
 IR Inten    --      0.5177                 0.2117                 0.6813

                      4                      5                      6
                      A                      A                      A
 Frequencies --    232.2806               253.3749               311.8489
 Red. masses --      3.4641                 3.3397                 1.4359
 Frc consts  --      0.1101                 0.1263                 0.0823
 IR Inten    --      0.5904                 6.7991                52.5252

                      7                      8                      9
                      A                      A                      A
 Frequencies --    344.0178               359.9282               401.4908
 Red. masses --      2.0177                 1.2738                 2.4579
 Frc consts  --      0.1407                 0.0972                 0.2334
 IR Inten    --     56.4568                56.1284                10.7488

                     10                     11                     12
                      A                      A                      A
 Frequencies --    423.3760               440.9019               610.4374
 Red. masses --      4.3938                 3.6134                 3.5045
 Frc consts  --      0.4640                 0.4139                 0.7694
 IR Inten    --     23.5163                10.7981                 2.4065

                     13                     14                     15
                      A                      A                      A
 Frequencies --    632.4584               761.2129               817.1747
 Red. masses --      3.4199                 5.1787                 3.8381
 Frc consts  --      0.8060                 1.7680                 1.5101
 IR Inten    --      3.2054                 1.9262                 3.5428

                     16                     17                     18
                      A                      A                      A
 Frequencies --    854.4568               885.4527               917.2349
 Red. masses --      1.9186                 1.5711                 1.9660
 Frc consts  --      0.8253                 0.7257                 0.9745
 IR Inten    --      5.6485                28.6532                14.0498

                     19                     20                     21
                      A                      A                      A
 Frequencies --    921.7180               979.2254              1011.8574
 Red. masses --      2.4500                 2.1634                 1.7852
 Frc consts  --      1.2264                 1.2222                 1.0769
 IR Inten    --      6.3150                 6.9585                58.4392

                     22                     23                     24
                      A                      A                      A
 Frequencies --   1040.0163              1051.9066              1062.3535
 Red. masses --      2.1389                 1.8104                 1.2567
 Frc consts  --      1.3631                 1.1803                 0.8357
 IR Inten    --     24.0240                33.8685                 4.3478

                     25                     26                     27
                      A                      A                      A
 Frequencies --   1067.3866              1096.1776              1148.8111
 Red. masses --      1.7053                 1.3761                 2.2674
 Frc consts  --      1.1447                 0.9742                 1.7631
 IR Inten    --     18.5539                20.1954                65.2436

                     28                     29                     30
                      A                      A                      A
 Frequencies --   1161.2421              1200.1859              1249.0197
 Red. masses --      2.4754                 2.3023                 1.2889
 Frc consts  --      1.9667                 1.9539                 1.1847
 IR Inten    --      4.8658                13.6332                15.0397

                     31                     32                     33
                      A                      A                      A
 Frequencies --   1261.9664              1278.9961              1304.0645
 Red. masses --      1.3415                 1.3057                 1.5607
 Frc consts  --      1.2587                 1.2584                 1.5638
 IR Inten    --      2.5266                80.1818                 2.3480

                     34                     35                     36
                      A                      A                      A
 Frequencies --   1311.0018              1344.1035              1405.8170
 Red. masses --      2.0240                 2.0750                 1.2864
 Frc consts  --      2.0496                 2.2087                 1.4980
 IR Inten    --     46.2108                 5.0985                 3.1613

                     37                     38                     39
                      A                      A                      A
 Frequencies --   1422.8849              1449.4680              1475.8416
 Red. masses --      1.2118                 2.2023                 1.0454
 Frc consts  --      1.4455                 2.7261                 1.3416
 IR Inten    --     69.6994                21.7142                 6.1464

                     40                     41                     42
                      A                      A                      A
 Frequencies --   1491.7336              1693.1009              3020.4903
 Red. masses --      1.0643                 7.0012                 1.0399
 Frc consts  --      1.3954                11.8246                 5.5896
 IR Inten    --      8.9242                 1.1614                26.8092

                     43                     44                     45
                      A                      A                      A
 Frequencies --   3042.8283              3073.2478              3082.4495
 Red. masses --      1.0837                 1.0948                 1.0878
 Frc consts  --      5.9117                 6.0921                 6.0894
 IR Inten    --     29.5456                14.9504                28.8477

                     46                     47                     48
                      A                      A                      A
 Frequencies --   3111.7739              3172.4308              3183.1460
 Red. masses --      1.1010                 1.0890                 1.0936
 Frc consts  --      6.2811                 6.4572                 6.5286
 IR Inten    --     17.3415                16.1245                19.7188

                     49                     50                     51
                      A                      A                      A
 Frequencies --   3195.9847              3792.0746              3803.9537
 Red. masses --      1.0918                 1.0659                 1.0661
 Frc consts  --      6.5707                 9.0306                 9.0890
 IR Inten    --      2.7479                14.1883                27.6648

 - Thermochemistry -
 -------------------
 Temperature   298.150 Kelvin.  Pressure   1.00000 Atm.
 Atom     1 has atomic number  6 and mass  12.00000

 Molecular mass:   126.06808 amu.
 Principal axes and moments of inertia in atomic units:
                           1         2         3
     Eigenvalues --   591.116731512.950101835.94162
           X            0.99980  -0.01582  -0.01192
           Y            0.01597   0.99980   0.01231
           Z            0.01173  -0.01250   0.99985
 This molecule is an asymmetric top.
 Rotational symmetry number  1.
 Warning -- assumption of classical behavior for rotation
           may cause significant error
 Rotational temperatures (Kelvin)      0.14653     0.05725     0.04718
 Rotational constants (GHZ):           3.05310     1.19286     0.98301
 Zero-point vibrational energy     416373.4 (Joules/Mol)
                                   99.51563 (Kcal/Mol)
 Warning -- explicit consideration of  12 degrees of freedom as
           vibrations may cause significant error
 Vibrational temperatures:    168.93   237.50   254.38   334.20   364.55
          (Kelvin)            448.68   494.96   517.86   577.65   609.14
                              634.36   878.28   909.97  1095.21  1175.73
                             1229.37  1273.97  1319.69  1326.15  1408.89
                             1455.84  1496.35  1513.46  1528.49  1535.73
                             1577.15  1652.88  1670.77  1726.80  1797.06
                             1815.69  1840.19  1876.26  1886.24  1933.86
                             2022.65  2047.21  2085.46  2123.40  2146.27
                             2435.99  4345.81  4377.95  4421.71  4434.95
                             4477.14  4564.41  4579.83  4598.30  5455.94
                             5473.03

 Zero-point correction=                           0.158588 (Hartree/Particle)
 Thermal correction to Energy=                    0.167384
 Thermal correction to Enthalpy=                  0.168328
 Thermal correction to Gibbs Free Energy=         0.125581
 Sum of electronic and zero-point Energies=           -423.020246
 Sum of electronic and thermal Energies=              -423.011450
 Sum of electronic and thermal Enthalpies=            -423.010506
 Sum of electronic and thermal Free Energies=         -423.053254

                     E (Thermal)             CV                S
                      KCal/Mol        Cal/Mol-Kelvin    Cal/Mol-Kelvin
 Total                  105.035             34.022             89.971
 Electronic               0.000              0.000              0.000
 Translational            0.889              2.981             40.409
 Rotational               0.889              2.981             28.886
 Vibrational            103.258             28.061             20.676
 Vibration     1          0.608              1.935              3.143
 Vibration     2          0.623              1.885              2.491
 Vibration     3          0.628              1.871              2.362
 Vibration     4          0.653              1.792              1.861
 Vibration     5          0.665              1.757              1.707
 Vibration     6          0.700              1.651              1.353
 Vibration     7          0.723              1.587              1.193
 Vibration     8          0.734              1.555              1.122
 Vibration     9          0.767              1.467              0.957
 Vibration    10          0.786              1.419              0.881
 Vibration    11          0.801              1.381              0.824
 Vibration    12          0.969              1.010              0.432

 Normal termination of Gaussian 09 at Mon Jan 27 23:35:21 2020.
