 Gaussian 09, Revision D.01,
 Gaussian 09:  ES64L-G09RevD.01 24-Apr-2013

 -----------------------------
 # b3lyp 6-31G(2df,p) opt Freq
 -----------------------------

 -----
 titel
 -----
 Symbolic Z-matrix:
 Charge =  0 Multiplicity = 1

 SCF Done:  E(RB3LYP) =  -423.121426577     A.U. after   14 cycles
 Optimization completed.
    -- Stationary point found.
 Normal termination of Gaussian 09 at Tue Jan 28 02:10:30 2020.

 ----------------------------------------------------------------------
 #N Geom=AllCheck Guess=TCheck SCRF=Check GenChk RB3LYP/6-31G(2df,p) Fr
 eq
 ----------------------------------------------------------------------

 Structure from the checkpoint file:  "/scratch/puck/g09_9711cf9c-553b-49b1-ac54-a7d879b2ab1d/Gau-85951.chk"
 -----
 titel
 -----
 Charge =  0 Multiplicity = 1

                         Standard orientation:
 ---------------------------------------------------------------------
 Center     Atomic      Atomic             Coordinates (Angstroms)
 Number     Number       Type             X           Y           Z
 ---------------------------------------------------------------------
      1          6           0       -3.227397   -0.612475    0.140653
      2          6           0       -1.901774    0.060762    0.376002
      3          8           0       -1.469318    0.999471   -0.618774
      4          6           0       -0.718695   -0.207469   -0.459649
      5          6           0        0.663209   -0.042038    0.051864
      6          6           0        1.205084    1.128384    0.805742
      7          6           0        1.888103    0.680467   -0.474274
      8          6           0        2.606703   -0.638503   -0.221971
      9          8           0        1.405602   -1.233175    0.347534
     10          1           0       -3.318876   -0.938612   -0.898813
     11          1           0       -3.333098   -1.485265    0.793552
     12          1           0       -4.052407    0.073703    0.358544
     13          1           0       -1.711350    0.396960    1.395996
     14          1           0       -0.822236   -0.922575   -1.277290
     15          1           0        0.627532    2.040851    0.702867
     16          1           0        1.680304    0.971306    1.770692
     17          1           0        2.008244    1.323327   -1.335245
     18          1           0        2.896564   -1.166832   -1.137041
     19          1           0        3.443656   -0.638008    0.486466
 ---------------------------------------------------------------------

 SCF Done:  E(RB3LYP) =  -423.121426577     A.U. after    1 cycles

 The electronic state is 1-A.
 Alpha  occ. eigenvalues --  -19.15344 -19.13852 -10.24391 -10.23986 -10.23952
 Alpha  occ. eigenvalues --  -10.23556 -10.19609 -10.18806 -10.18517  -1.07400
 Alpha  occ. eigenvalues --   -1.05015  -0.83278  -0.74701  -0.72141  -0.66518
 Alpha  occ. eigenvalues --   -0.60945  -0.58518  -0.54261  -0.52334  -0.48534
 Alpha  occ. eigenvalues --   -0.47009  -0.45694  -0.44892  -0.42017  -0.40042
 Alpha  occ. eigenvalues --   -0.38589  -0.38145  -0.36856  -0.34165  -0.32941
 Alpha  occ. eigenvalues --   -0.31112  -0.27667  -0.26325  -0.23372
 Alpha virt. eigenvalues --    0.06154   0.10256   0.11243   0.11377   0.11509
 Alpha virt. eigenvalues --    0.13040   0.13630   0.14989   0.15135   0.15895
 Alpha virt. eigenvalues --    0.16624   0.17312   0.18058   0.20395   0.20593

 Mulliken charges:
               1
     1  C   -0.418989
     2  C    0.082333
     3  O   -0.256440
     4  C   -0.084433
     5  C    0.492578
     6  C   -0.341693
     7  C   -0.192090
     8  C   -0.091734
     9  O   -0.333210
    10  H    0.128688
    11  H    0.127972
    12  H    0.130260
    13  H    0.095100
    14  H    0.093520
    15  H    0.134006
    16  H    0.110644
    17  H    0.108223
    18  H    0.110319
    19  H    0.104946
 Sum of Mulliken charges =   0.00000

 Dipole moment (field-independent basis, Debye):
    X=              0.1252    Y=             -0.0567    Z=              0.0273  Tot=              0.1402
 Quadrupole moment (field-independent basis, Debye-Ang):
   XX=            -47.7129   YY=            -56.3963   ZZ=            -51.9473
   XY=              3.2249   XZ=             -3.2162   YZ=              2.6687

  Exact polarizability:  96.997  -0.336  66.923  -4.310   3.735  66.500
 Approx polarizability: 119.748  -1.972 106.003  -7.588   1.611 102.656

                      1                      2                      3
                      A                      A                      A
 Frequencies --     59.4798               123.8843               153.9200
 Red. masses --      3.7040                 3.3045                 2.7417
 Frc consts  --      0.0077                 0.0299                 0.0383
 IR Inten    --      2.6762                 2.3732                 2.0093

                      4                      5                      6
                      A                      A                      A
 Frequencies --    203.7034               288.9754               291.3661
 Red. masses --      1.1389                 3.4129                 2.6409
 Frc consts  --      0.0278                 0.1679                 0.1321
 IR Inten    --      0.2202                 2.0153                 4.8267

                      7                      8                      9
                      A                      A                      A
 Frequencies --    371.0423               411.2139               445.0597
 Red. masses --      3.6315                 2.5296                 2.5331
 Frc consts  --      0.2946                 0.2520                 0.2956
 IR Inten    --      2.5332                 1.5889                 1.4434

                     10                     11                     12
                      A                      A                      A
 Frequencies --    519.4717               725.5644               756.3014
 Red. masses --      4.2498                 3.0762                 2.9837
 Frc consts  --      0.6757                 0.9542                 1.0055
 IR Inten    --      6.0568                 5.0650                 1.1268

                     13                     14                     15
                      A                      A                      A
 Frequencies --    798.6098               835.0774               884.2280
 Red. masses --      3.7287                 2.2449                 2.2021
 Frc consts  --      1.4011                 0.9223                 1.0144
 IR Inten    --      3.8428                 5.4417                 5.3316

                     16                     17                     18
                      A                      A                      A
 Frequencies --    902.0978               948.9443               976.5134
 Red. masses --      2.4830                 1.7963                 3.9855
 Frc consts  --      1.1905                 0.9531                 2.2392
 IR Inten    --     58.5548                 6.2318                77.7493

                     19                     20                     21
                      A                      A                      A
 Frequencies --    984.4703               998.3866              1001.8015
 Red. masses --      2.1663                 1.4498                 3.4383
 Frc consts  --      1.2370                 0.8515                 2.0331
 IR Inten    --      4.4999                 1.1199                 2.0089

                     22                     23                     24
                      A                      A                      A
 Frequencies --   1027.4413              1056.7645              1075.6723
 Red. masses --      1.5612                 1.5048                 1.5093
 Frc consts  --      0.9710                 0.9901                 1.0289
 IR Inten    --     18.2185                16.0112                 3.7877

                     25                     26                     27
                      A                      A                      A
 Frequencies --   1091.5392              1134.2885              1149.6296
 Red. masses --      1.7608                 1.8922                 1.8904
 Frc consts  --      1.2361                 1.4344                 1.4720
 IR Inten    --      0.6685                11.8670                42.0699

                     28                     29                     30
                      A                      A                      A
 Frequencies --   1166.0698              1174.7708              1180.2797
 Red. masses --      1.5269                 1.5074                 1.5704
 Frc consts  --      1.2233                 1.2257                 1.2889
 IR Inten    --      1.3936                 2.9197                 5.3168

                     31                     32                     33
                      A                      A                      A
 Frequencies --   1269.0235              1276.8895              1335.5956
 Red. masses --      1.9005                 1.4947                 1.4632
 Frc consts  --      1.8032                 1.4359                 1.5379
 IR Inten    --      5.0682                 1.2739                10.5958

                     34                     35                     36
                      A                      A                      A
 Frequencies --   1356.4512              1401.0259              1412.6449
 Red. masses --      1.3041                 1.6298                 1.3429
 Frc consts  --      1.4138                 1.8848                 1.5789
 IR Inten    --     10.8029                 0.3317                 4.6397

                     37                     38                     39
                      A                      A                      A
 Frequencies --   1469.1429              1484.4473              1491.8340
 Red. masses --      1.4345                 1.2384                 1.2415
 Frc consts  --      1.8242                 1.6079                 1.6280
 IR Inten    --      8.1005                 1.5864                 5.9953

                     40                     41                     42
                      A                      A                      A
 Frequencies --   1507.1545              1521.8352              3024.0870
 Red. masses --      1.6228                 1.3386                 1.0549
 Frc consts  --      2.1719                 1.8265                 5.6840
 IR Inten    --      7.0936                 1.4978                85.3480

                     43                     44                     45
                      A                      A                      A
 Frequencies --   3037.7634              3073.2497              3097.1862
 Red. masses --      1.0354                 1.1113                 1.0883
 Frc consts  --      5.6295                 6.1841                 6.1508
 IR Inten    --     18.9683                34.6493                12.8025

                     46                     47                     48
                      A                      A                      A
 Frequencies --   3102.7538              3104.1859              3114.2122
 Red. masses --      1.0924                 1.0964                 1.0558
 Frc consts  --      6.1964                 6.2246                 6.0329
 IR Inten    --     15.4594                18.7408                10.3668

                     49                     50                     51
                      A                      A                      A
 Frequencies --   3126.1433              3208.2049              3219.0752
 Red. masses --      1.0996                 1.0974                 1.1109
 Frc consts  --      6.3313                 6.6547                 6.7827
 IR Inten    --     33.9528                 5.7864                 5.9941

 - Thermochemistry -
 -------------------
 Temperature   298.150 Kelvin.  Pressure   1.00000 Atm.
 Atom     1 has atomic number  6 and mass  12.00000

 Molecular mass:   126.06808 amu.
 Principal axes and moments of inertia in atomic units:
                           1         2         3
     Eigenvalues --   426.985261762.611801936.03969
           X            0.99975   0.02140  -0.00642
           Y           -0.02084   0.99681   0.07698
           Z            0.00805  -0.07683   0.99701
 This molecule is an asymmetric top.
 Rotational symmetry number  1.
 Rotational temperatures (Kelvin)      0.20285     0.04914     0.04474
 Rotational constants (GHZ):           4.22671     1.02390     0.93218
 Zero-point vibrational energy     414921.6 (Joules/Mol)
                                   99.16864 (Kcal/Mol)
 Warning -- explicit consideration of  10 degrees of freedom as
           vibrations may cause significant error
 Vibrational temperatures:     85.58   178.24   221.46   293.08   415.77
          (Kelvin)            419.21   533.85   591.64   640.34   747.40
                             1043.92  1088.15  1149.02  1201.49  1272.21
                             1297.92  1365.32  1404.98  1416.43  1436.45
                             1441.37  1478.26  1520.45  1547.65  1570.48
                             1631.99  1654.06  1677.71  1690.23  1698.16
                             1825.84  1837.16  1921.62  1951.63  2015.76
                             2032.48  2113.77  2135.79  2146.41  2168.46
                             2189.58  4350.98  4370.66  4421.72  4456.15
                             4464.17  4466.23  4480.65  4497.82  4615.89
                             4631.53

 Zero-point correction=                           0.158035 (Hartree/Particle)
 Thermal correction to Energy=                    0.166493
 Thermal correction to Enthalpy=                  0.167438
 Thermal correction to Gibbs Free Energy=         0.124572
 Sum of electronic and zero-point Energies=           -422.963391
 Sum of electronic and thermal Energies=              -422.954933
 Sum of electronic and thermal Enthalpies=            -422.953989
 Sum of electronic and thermal Free Energies=         -422.996854

                     E (Thermal)             CV                S
                      KCal/Mol        Cal/Mol-Kelvin    Cal/Mol-Kelvin
 Total                  104.476             31.884             90.218
 Electronic               0.000              0.000              0.000
 Translational            0.889              2.981             40.409
 Rotational               0.889              2.981             28.768
 Vibrational            102.699             25.922             21.042
 Vibration     1          0.597              1.974              4.474
 Vibration     2          0.610              1.929              3.039
 Vibration     3          0.619              1.898              2.623
 Vibration     4          0.639              1.835              2.099
 Vibration     5          0.686              1.694              1.480
 Vibration     6          0.687              1.690              1.466
 Vibration     7          0.743              1.532              1.075
 Vibration     8          0.775              1.446              0.922
 Vibration     9          0.804              1.372              0.811
 Vibration    10          0.874              1.207              0.611

 Optimization completed.
    -- Stationary point found.
 Normal termination of Gaussian 09 at Tue Jan 28 02:49:28 2020.
