 Gaussian 09, Revision D.01,
 Gaussian 09:  ES64L-G09RevD.01 24-Apr-2013

 -----------------------------
 # b3lyp 6-31G(2df,p) opt Freq
 -----------------------------

 -----
 titel
 -----
 Symbolic Z-matrix:
 Charge =  0 Multiplicity = 1

 SCF Done:  E(RB3LYP) =  -423.112878519     A.U. after   14 cycles
 Optimization completed.
    -- Stationary point found.
 Normal termination of Gaussian 09 at Tue Jan 28 08:18:18 2020.

 ----------------------------------------------------------------------
 #N Geom=AllCheck Guess=TCheck SCRF=Check GenChk RB3LYP/6-31G(2df,p) Fr
 eq
 ----------------------------------------------------------------------

 Structure from the checkpoint file:  "/scratch/puck/g09_7bd0951a-e830-42a7-b33f-a37a6b755b54/Gau-8461.chk"
 -----
 titel
 -----
 Charge =  0 Multiplicity = 1

                         Standard orientation:
 ---------------------------------------------------------------------
 Center     Atomic      Atomic             Coordinates (Angstroms)
 Number     Number       Type             X           Y           Z
 ---------------------------------------------------------------------
      1          8           0       -2.286810   -1.743781    0.063663
      2          6           0       -2.159618   -0.371286   -0.221440
      3          6           0       -0.848411    0.185253    0.358230
      4          8           0        0.183728   -0.603314   -0.237627
      5          6           0        1.411553   -0.572374    0.433568
      6          6           0        2.604801   -0.986033   -0.364550
      7          6           0        2.440765    0.460079    0.059520
      8          6           0       -0.709098    1.617872    0.092446
      9          6           0       -0.651802    2.794824   -0.145343
     10          1           0       -1.461360   -2.147437   -0.231905
     11          1           0       -2.173173   -0.166367   -1.302533
     12          1           0       -3.007809    0.145236    0.235612
     13          1           0       -0.852107    0.009895    1.445017
     14          1           0        1.347784   -0.884158    1.476225
     15          1           0        3.359864   -1.597325    0.116247
     16          1           0        2.429252   -1.216298   -1.409194
     17          1           0        3.082008    0.856334    0.839024
     18          1           0        2.159312    1.170460   -0.707514
     19          1           0       -0.588269    3.836413   -0.343855
 ---------------------------------------------------------------------

 SCF Done:  E(RB3LYP) =  -423.112878519     A.U. after    1 cycles

 The electronic state is 1-A.
 Alpha  occ. eigenvalues --  -19.16021 -19.13280 -10.25971 -10.24081 -10.23136
 Alpha  occ. eigenvalues --  -10.18877 -10.18804 -10.18591 -10.18360  -1.05589
 Alpha  occ. eigenvalues --   -1.01436  -0.85414  -0.78333  -0.72233  -0.63897
 Alpha  occ. eigenvalues --   -0.60533  -0.60072  -0.54999  -0.52178  -0.51012
 Alpha  occ. eigenvalues --   -0.48806  -0.48167  -0.44277  -0.41986  -0.41038
 Alpha  occ. eigenvalues --   -0.37841  -0.36567  -0.33882  -0.32968  -0.29951
 Alpha  occ. eigenvalues --   -0.28389  -0.27767  -0.26119  -0.25834
 Alpha virt. eigenvalues --    0.02855   0.04595   0.09126   0.10870   0.11248
 Alpha virt. eigenvalues --    0.12020   0.12937   0.13892   0.14261   0.15667
 Alpha virt. eigenvalues --    0.15960   0.18660   0.20405   0.22175   0.22818

 Mulliken charges:
               1
     1  O   -0.418793
     2  C   -0.067608
     3  C   -0.106361
     4  O   -0.263310
     5  C    0.142277
     6  C   -0.294421
     7  C   -0.279888
     8  C    0.352128
     9  C   -0.463997
    10  H    0.290031
    11  H    0.103953
    12  H    0.120250
    13  H    0.103544
    14  H    0.090046
    15  H    0.116832
    16  H    0.127031
    17  H    0.114567
    18  H    0.131893
    19  H    0.201825
 Sum of Mulliken charges =   0.00000

 Dipole moment (field-independent basis, Debye):
    X=              1.5654    Y=              1.0542    Z=              0.2816  Tot=              1.9082
 Quadrupole moment (field-independent basis, Debye-Ang):
   XX=            -55.6218   YY=            -49.9334   ZZ=            -52.3229
   XY=             -4.7129   XZ=              1.6425   YZ=             -0.4068

  Exact polarizability:  81.419  -2.501  92.717  -0.077  -2.751  59.718
 Approx polarizability: 101.462   0.081 142.808  -1.825  -7.144  91.588

                      1                      2                      3
                      A                      A                      A
 Frequencies --     47.6781                81.7508               124.6201
 Red. masses --      2.6462                 4.4378                 3.6869
 Frc consts  --      0.0035                 0.0175                 0.0337
 IR Inten    --      0.2909                 0.1493                 3.1717

                      4                      5                      6
                      A                      A                      A
 Frequencies --    142.3301               181.6444               218.3921
 Red. masses --      4.4099                 2.3965                 4.0611
 Frc consts  --      0.0526                 0.0466                 0.1141
 IR Inten    --      0.4762                 0.1794                 5.4225

                      7                      8                      9
                      A                      A                      A
 Frequencies --    304.8465               393.0336               405.8711
 Red. masses --      3.6985                 2.4243                 2.8475
 Frc consts  --      0.2025                 0.2206                 0.2764
 IR Inten    --      0.8464                27.7408                 4.3570

                     10                     11                     12
                      A                      A                      A
 Frequencies --    463.9776               490.2750               527.9124
 Red. masses --      1.5507                 2.9425                 3.6446
 Frc consts  --      0.1967                 0.4167                 0.5984
 IR Inten    --     84.9258                31.1741                 2.9343

                     13                     14                     15
                      A                      A                      A
 Frequencies --    594.7248               636.1913               679.3275
 Red. masses --      5.0282                 1.2322                 1.2613
 Frc consts  --      1.0478                 0.2938                 0.3430
 IR Inten    --      8.2145                43.4080                35.6673

                     16                     17                     18
                      A                      A                      A
 Frequencies --    749.8383               809.6072               822.2756
 Red. masses --      1.2338                 1.6022                 1.5171
 Frc consts  --      0.4087                 0.6187                 0.6044
 IR Inten    --      1.9375                 5.6252                 5.6717

                     19                     20                     21
                      A                      A                      A
 Frequencies --    878.4227               978.0357               987.2783
 Red. masses --      2.6959                 3.0963                 2.6265
 Frc consts  --      1.2256                 1.7450                 1.5084
 IR Inten    --     20.9742                12.3577                30.7211

                     22                     23                     24
                      A                      A                      A
 Frequencies --    998.2716              1050.3923              1069.8908
 Red. masses --      2.3848                 1.5937                 1.6527
 Frc consts  --      1.4002                 1.0360                 1.1146
 IR Inten    --      5.9122                 2.1866                30.1068

                     25                     26                     27
                      A                      A                      A
 Frequencies --   1075.4253              1086.4696              1102.2039
 Red. masses --      2.3422                 2.3834                 4.5509
 Frc consts  --      1.5960                 1.6576                 3.2574
 IR Inten    --     73.3158                48.0450                77.9329

                     28                     29                     30
                      A                      A                      A
 Frequencies --   1128.3302              1191.8249              1198.5700
 Red. masses --      1.2365                 1.3384                 2.0481
 Frc consts  --      0.9275                 1.1201                 1.7335
 IR Inten    --      8.8588                 0.1324                53.5117

                     31                     32                     33
                      A                      A                      A
 Frequencies --   1235.3518              1242.7792              1288.9401
 Red. masses --      1.4122                 1.9990                 1.2988
 Frc consts  --      1.2698                 1.8190                 1.2713
 IR Inten    --     30.0156                38.2677                 1.4622

                     34                     35                     36
                      A                      A                      A
 Frequencies --   1350.4392              1382.6140              1410.3212
 Red. masses --      1.2099                 1.2405                 1.3259
 Frc consts  --      1.3000                 1.3972                 1.5538
 IR Inten    --     55.8567                13.2800                37.6063

                     37                     38                     39
                      A                      A                      A
 Frequencies --   1433.2706              1455.5610              1497.2952
 Red. masses --      1.2598                 1.0913                 1.0951
 Frc consts  --      1.5247                 1.3623                 1.4465
 IR Inten    --     62.7921                 1.5931                 0.5382

                     40                     41                     42
                      A                      A                      A
 Frequencies --   1498.7480              2231.5245              2986.4772
 Red. masses --      1.4491                 5.9034                 1.0777
 Frc consts  --      1.9178                17.3203                 5.6634
 IR Inten    --     19.4823                 1.5360                 5.3547

                     43                     44                     45
                      A                      A                      A
 Frequencies --   3002.1506              3099.9017              3100.7896
 Red. masses --      1.0724                 1.0884                 1.0935
 Frc consts  --      5.6947                 6.1622                 6.1945
 IR Inten    --     57.1830                20.2786                30.0556

                     46                     47                     48
                      A                      A                      A
 Frequencies --   3141.0530              3146.2485              3226.3270
 Red. masses --      1.0520                 1.0592                 1.1179
 Frc consts  --      6.1154                 6.1775                 6.8560
 IR Inten    --     12.8559                 5.3089                 1.4661

                     49                     50                     51
                      A                      A                      A
 Frequencies --   3242.3363              3501.7851              3786.1678
 Red. masses --      1.1152                 1.1625                 1.0650
 Frc consts  --      6.9073                 8.3990                 8.9948
 IR Inten    --     10.5079                62.3440                35.6137

 - Thermochemistry -
 -------------------
 Temperature   298.150 Kelvin.  Pressure   1.00000 Atm.
 Atom     1 has atomic number  8 and mass  15.99491

 Molecular mass:   126.06808 amu.
 Principal axes and moments of inertia in atomic units:
                           1         2         3
     Eigenvalues --   867.906731442.794012190.65844
           X            0.99976  -0.02174   0.00390
           Y            0.02175   0.99976  -0.00216
           Z           -0.00386   0.00224   0.99999
 This molecule is an asymmetric top.
 Rotational symmetry number  1.
 Warning -- assumption of classical behavior for rotation
           may cause significant error
 Rotational temperatures (Kelvin)      0.09980     0.06003     0.03954
 Rotational constants (GHZ):           2.07942     1.25087     0.82384
 Zero-point vibrational energy     410794.6 (Joules/Mol)
                                   98.18226 (Kcal/Mol)
 Warning -- explicit consideration of  13 degrees of freedom as
           vibrations may cause significant error
 Vibrational temperatures:     68.60   117.62   179.30   204.78   261.35
          (Kelvin)            314.22   438.61   565.49   583.96   667.56
                              705.40   759.55   855.68   915.34   977.40
                             1078.85  1164.84  1183.07  1263.85  1407.17
                             1420.47  1436.29  1511.28  1539.33  1547.30
                             1563.19  1585.82  1623.41  1714.77  1724.47
                             1777.39  1788.08  1854.49  1942.98  1989.27
                             2029.14  2062.15  2094.22  2154.27  2156.36
                             3210.66  4296.87  4319.42  4460.06  4461.34
                             4519.27  4526.74  4641.96  4664.99  5038.28
                             5447.44

 Zero-point correction=                           0.156463 (Hartree/Particle)
 Thermal correction to Energy=                    0.166218
 Thermal correction to Enthalpy=                  0.167162
 Thermal correction to Gibbs Free Energy=         0.121091
 Sum of electronic and zero-point Energies=           -422.956415
 Sum of electronic and thermal Energies=              -422.946661
 Sum of electronic and thermal Enthalpies=            -422.945717
 Sum of electronic and thermal Free Energies=         -422.991787

                     E (Thermal)             CV                S
                      KCal/Mol        Cal/Mol-Kelvin    Cal/Mol-Kelvin
 Total                  104.303             35.743             96.963
 Electronic               0.000              0.000              0.000
 Translational            0.889              2.981             40.409
 Rotational               0.889              2.981             29.396
 Vibrational            102.526             29.781             27.158
 Vibration     1          0.595              1.978              4.911
 Vibration     2          0.600              1.962              3.848
 Vibration     3          0.610              1.928              3.027
 Vibration     4          0.616              1.911              2.772
 Vibration     5          0.630              1.865              2.311
 Vibration     6          0.646              1.813              1.972
 Vibration     7          0.696              1.665              1.390
 Vibration     8          0.760              1.485              0.989
 Vibration     9          0.771              1.457              0.941
 Vibration    10          0.822              1.330              0.755
 Vibration    11          0.846              1.272              0.683
 Vibration    12          0.883              1.188              0.592
 Vibration    13          0.952              1.043              0.459

 Normal termination of Gaussian 09 at Tue Jan 28 09:00:07 2020.
