 Gaussian 09, Revision D.01,
 Gaussian 09:  ES64L-G09RevD.01 24-Apr-2013

 -----------------------------
 # b3lyp 6-31G(2df,p) opt Freq
 -----------------------------

 -----
 titel
 -----
 Symbolic Z-matrix:
 Charge =  0 Multiplicity = 1

 SCF Done:  E(RB3LYP) =  -423.190471346     A.U. after   15 cycles
 Optimization completed.
    -- Stationary point found.
 Normal termination of Gaussian 09 at Mon Jan 27 13:57:20 2020.

 ----------------------------------------------------------------------
 #N Geom=AllCheck Guess=TCheck SCRF=Check GenChk RB3LYP/6-31G(2df,p) Fr
 eq
 ----------------------------------------------------------------------

 Structure from the checkpoint file:  "/scratch/puck/g09_6611745f-387e-4a39-9267-250f1a166b16/Gau-159623.chk"
 -----
 titel
 -----
 Charge =  0 Multiplicity = 1

                         Standard orientation:
 ---------------------------------------------------------------------
 Center     Atomic      Atomic             Coordinates (Angstroms)
 Number     Number       Type             X           Y           Z
 ---------------------------------------------------------------------
      1          6           0        2.909407   -1.733565    0.043876
      2          6           0        1.961990   -0.638121   -0.106280
      3          6           0        1.176669    0.265938   -0.232732
      4          6           0        0.217366    1.362455   -0.355306
      5          6           0        0.659253    2.599227    0.452379
      6          6           0       -1.186651    0.924814    0.090012
      7          8           0       -1.668169   -0.112566   -0.784052
      8          6           0       -1.988364   -1.294570   -0.234081
      9          8           0       -1.969793   -1.579132    0.930771
     10          1           0        3.168740   -2.172695   -0.925792
     11          1           0        3.839319   -1.394208    0.513385
     12          1           0        2.494396   -2.531362    0.669440
     13          1           0        0.144417    1.648519   -1.413386
     14          1           0        1.645471    2.935703    0.125071
     15          1           0       -0.049355    3.422913    0.317649
     16          1           0        0.719729    2.364223    1.519195
     17          1           0       -1.182916    0.557995    1.117680
     18          1           0       -1.885395    1.762275   -0.000020
     19          1           0       -2.288734   -1.976855   -1.044178
 ---------------------------------------------------------------------

 SCF Done:  E(RB3LYP) =  -423.190471346     A.U. after    1 cycles

 The electronic state is 1-A.
 Alpha  occ. eigenvalues --  -19.18661 -19.13034 -10.30597 -10.24247 -10.21760
 Alpha  occ. eigenvalues --  -10.20207 -10.18760 -10.17345 -10.16670  -1.10135
 Alpha  occ. eigenvalues --   -1.01973  -0.82170  -0.76737  -0.71760  -0.69275
 Alpha  occ. eigenvalues --   -0.62772  -0.58589  -0.53393  -0.49403  -0.47371
 Alpha  occ. eigenvalues --   -0.46821  -0.44981  -0.42992  -0.42444  -0.42316
 Alpha  occ. eigenvalues --   -0.40276  -0.39046  -0.37627  -0.36879  -0.34597
 Alpha  occ. eigenvalues --   -0.30280  -0.27895  -0.25002  -0.24857
 Alpha virt. eigenvalues --    0.01333   0.05477   0.05621   0.09737   0.11194
 Alpha virt. eigenvalues --    0.12130   0.13417   0.14429   0.16590   0.16668
 Alpha virt. eigenvalues --    0.17682   0.18298   0.18860   0.19514   0.21520

 Mulliken charges:
               1
     1  C   -0.497887
     2  C    0.026996
     3  C    0.109524
     4  C   -0.156028
     5  C   -0.393963
     6  C   -0.077511
     7  O   -0.208455
     8  C    0.192706
     9  O   -0.301864
    10  H    0.147278
    11  H    0.147477
    12  H    0.153886
    13  H    0.111420
    14  H    0.131553
    15  H    0.115070
    16  H    0.131161
    17  H    0.147614
    18  H    0.113996
    19  H    0.107028
 Sum of Mulliken charges =   0.00000

 Dipole moment (field-independent basis, Debye):
    X=              0.9526    Y=              1.2065    Z=             -1.0654  Tot=              1.8703
 Quadrupole moment (field-independent basis, Debye-Ang):
   XX=            -50.5750   YY=            -49.0445   ZZ=            -55.2584
   XY=             -4.8501   XZ=              3.2934   YZ=              3.4200

  Exact polarizability:  83.676 -10.485  95.325   1.960  -0.546  62.944
 Approx polarizability: 111.736 -22.221 133.489   3.669  -9.106 102.879

                      1                      2                      3
                      A                      A                      A
 Frequencies --     17.5299                27.0322                67.0238
 Red. masses --      7.9934                 1.0215                 3.9991
 Frc consts  --      0.0014                 0.0004                 0.0106
 IR Inten    --      1.2906                 0.0077                 1.1059

                      4                      5                      6
                      A                      A                      A
 Frequencies --    100.4840               141.1995               189.2066
 Red. masses --      3.4839                 2.9408                 2.9590
 Frc consts  --      0.0207                 0.0345                 0.0624
 IR Inten    --      0.1121                 3.0386                 7.8438

                      7                      8                      9
                      A                      A                      A
 Frequencies --    233.9705               283.1781               295.6538
 Red. masses --      1.0818                 3.1597                 3.3060
 Frc consts  --      0.0349                 0.1493                 0.1703
 IR Inten    --      0.6845                 3.7597                 2.7145

                     10                     11                     12
                      A                      A                      A
 Frequencies --    324.6423               347.2671               428.8666
 Red. masses --      3.0792                 3.7328                 4.8238
 Frc consts  --      0.1912                 0.2652                 0.5227
 IR Inten    --      8.6497                12.6795                 5.4541

                     13                     14                     15
                      A                      A                      A
 Frequencies --    509.2092               562.2550               684.8628
 Red. masses --      3.7488                 4.1222                 2.8057
 Frc consts  --      0.5727                 0.7678                 0.7754
 IR Inten    --      2.5656                 6.4362                 1.0592

                     16                     17                     18
                      A                      A                      A
 Frequencies --    772.5805               903.3106               945.7833
 Red. masses --      5.2813                 1.9485                 2.0976
 Frc consts  --      1.8573                 0.9368                 1.1055
 IR Inten    --      4.8725                 8.3315                 1.6870

                     19                     20                     21
                      A                      A                      A
 Frequencies --    962.1091              1030.1407              1047.4237
 Red. masses --      2.5135                 2.1684                 1.6945
 Frc consts  --      1.3708                 1.3558                 1.0953
 IR Inten    --     17.9332                 0.5774                 0.6459

                     22                     23                     24
                      A                      A                      A
 Frequencies --   1052.9515              1053.1506              1096.6955
 Red. masses --      1.4087                 1.4295                 2.2589
 Frc consts  --      0.9202                 0.9341                 1.6007
 IR Inten    --      0.4738                 0.8251                 2.6737

                     25                     26                     27
                      A                      A                      A
 Frequencies --   1140.1388              1194.5202              1200.9253
 Red. masses --      2.3474                 4.4536                 2.3019
 Frc consts  --      1.7978                 3.7441                 1.9560
 IR Inten    --     38.4373               306.9898                10.4770

                     28                     29                     30
                      A                      A                      A
 Frequencies --   1284.1112              1305.7729              1373.6660
 Red. masses --      1.3068                 1.2693                 1.4797
 Frc consts  --      1.2696                 1.2751                 1.6451
 IR Inten    --     21.3892                 0.0312                20.7262

                     31                     32                     33
                      A                      A                      A
 Frequencies --   1392.8004              1410.8861              1414.1736
 Red. masses --      1.3060                 1.1796                 1.2008
 Frc consts  --      1.4927                 1.3834                 1.4149
 IR Inten    --      7.4931                 3.5685                 2.9398

                     34                     35                     36
                      A                      A                      A
 Frequencies --   1415.1226              1478.3670              1478.8573
 Red. masses --      1.2307                 1.0395                 1.0398
 Frc consts  --      1.4521                 1.3386                 1.3398
 IR Inten    --      2.0947                 5.7691                 5.5671

                     37                     38                     39
                      A                      A                      A
 Frequencies --   1491.0673              1496.8312              1503.1308
 Red. masses --      1.0573                 1.0693                 1.0596
 Frc consts  --      1.3850                 1.4116                 1.4105
 IR Inten    --      1.8367                 9.9621                 1.5533

                     40                     41                     42
                      A                      A                      A
 Frequencies --   1826.0688              2371.9602              3015.6462
 Red. masses --      9.1820                11.8478                 1.0819
 Frc consts  --     18.0394                39.2736                 5.7971
 IR Inten    --    258.4863                 3.6385                14.5754

                     43                     44                     45
                      A                      A                      A
 Frequencies --   3027.6947              3031.1469              3040.4055
 Red. masses --      1.0350                 1.0901                 1.0359
 Frc consts  --      5.5901                 5.9013                 5.6418
 IR Inten    --     30.6269                66.4560                19.0605

                     46                     47                     48
                      A                      A                      A
 Frequencies --   3059.3367              3087.8264              3090.2627
 Red. masses --      1.0613                 1.1002                 1.1002
 Frc consts  --      5.8526                 6.1804                 6.1902
 IR Inten    --     37.3005                10.4892                 8.8260

                     49                     50                     51
                      A                      A                      A
 Frequencies --   3111.4773              3128.1801              3135.5629
 Red. masses --      1.1016                 1.1017                 1.1030
 Frc consts  --      6.2834                 6.3517                 6.3896
 IR Inten    --     23.4071                18.1304                10.7475

 - Thermochemistry -
 -------------------
 Temperature   298.150 Kelvin.  Pressure   1.00000 Atm.
 Atom     1 has atomic number  6 and mass  12.00000

 Molecular mass:   126.06808 amu.
 Principal axes and moments of inertia in atomic units:
                           1         2         3
     Eigenvalues --  1076.463321514.322752323.07172
           X            0.99581  -0.09111   0.00757
           Y            0.09093   0.99562   0.02157
           Z           -0.00950  -0.02079   0.99974
 This molecule is an asymmetric top.
 Rotational symmetry number  1.
 Warning -- assumption of classical behavior for rotation
           may cause significant error
 Rotational temperatures (Kelvin)      0.08046     0.05720     0.03728
 Rotational constants (GHZ):           1.67655     1.19178     0.77688
 Zero-point vibrational energy     410214.2 (Joules/Mol)
                                   98.04356 (Kcal/Mol)
 Warning -- explicit consideration of  14 degrees of freedom as
           vibrations may cause significant error
 Vibrational temperatures:     25.22    38.89    96.43   144.57   203.15
          (Kelvin)            272.23   336.63   407.43   425.38   467.09
                              499.64   617.04   732.64   808.96   985.36
                             1111.57  1299.66  1360.77  1384.26  1482.14
                             1507.01  1514.96  1515.25  1577.90  1640.40
                             1718.65  1727.86  1847.55  1878.71  1976.40
                             2003.93  2029.95  2034.68  2036.04  2127.04
                             2127.74  2145.31  2153.60  2162.67  2627.30
                             3412.72  4338.84  4356.17  4361.14  4374.46
                             4401.70  4442.69  4446.19  4476.72  4500.75
                             4511.37

 Zero-point correction=                           0.156242 (Hartree/Particle)
 Thermal correction to Energy=                    0.167084
 Thermal correction to Enthalpy=                  0.168028
 Thermal correction to Gibbs Free Energy=         0.117337
 Sum of electronic and zero-point Energies=           -423.034229
 Sum of electronic and thermal Energies=              -423.023387
 Sum of electronic and thermal Enthalpies=            -423.022443
 Sum of electronic and thermal Free Energies=         -423.073135

                     E (Thermal)             CV                S
                      KCal/Mol        Cal/Mol-Kelvin    Cal/Mol-Kelvin
 Total                  104.847             36.168            106.690
 Electronic               0.000              0.000              0.000
 Translational            0.889              2.981             40.409
 Rotational               0.889              2.981             29.717
 Vibrational            103.069             30.207             36.565
 Vibration     1          0.593              1.986              6.896
 Vibration     2          0.593              1.984              6.036
 Vibration     3          0.598              1.970              4.239
 Vibration     4          0.604              1.949              3.445
 Vibration     5          0.615              1.912              2.788
 Vibration     6          0.633              1.855              2.236
 Vibration     7          0.654              1.789              1.848
 Vibration     8          0.682              1.705              1.514
 Vibration     9          0.690              1.682              1.441
 Vibration    10          0.709              1.626              1.287
 Vibration    11          0.725              1.581              1.179
 Vibration    12          0.790              1.407              0.862
 Vibration    13          0.864              1.230              0.635
 Vibration    14          0.918              1.113              0.519

 Optimization completed on the basis of negligible forces.
    -- Stationary point found.
 Normal termination of Gaussian 09 at Mon Jan 27 14:34:20 2020.
