 Gaussian 09, Revision D.01,
 Gaussian 09:  ES64L-G09RevD.01 24-Apr-2013

 -----------------------------
 # b3lyp 6-31G(2df,p) opt Freq
 -----------------------------

 -----
 titel
 -----
 Symbolic Z-matrix:
 Charge =  0 Multiplicity = 1

 SCF Done:  E(RB3LYP) =  -423.138590205     A.U. after   13 cycles
 SCF Done:  E(RB3LYP) =  -423.138591097     A.U. after    7 cycles
 Optimization completed.
    -- Stationary point found.
 Normal termination of Gaussian 09 at Mon Jan 27 17:10:18 2020.

 ----------------------------------------------------------------------
 #N Geom=AllCheck Guess=TCheck SCRF=Check GenChk RB3LYP/6-31G(2df,p) Fr
 eq
 ----------------------------------------------------------------------

 Structure from the checkpoint file:  "/scratch/puck/g09_6fcd65bd-00ea-4d2b-a988-978bb7d6c844/Gau-62500.chk"
 -----
 titel
 -----
 Charge =  0 Multiplicity = 1

                         Standard orientation:
 ---------------------------------------------------------------------
 Center     Atomic      Atomic             Coordinates (Angstroms)
 Number     Number       Type             X           Y           Z
 ---------------------------------------------------------------------
      1          6           0        2.380343   -0.874844   -0.038017
      2          6           0        0.986741   -0.318330    0.018135
      3          6           0        0.000092   -0.497256    1.195838
      4          6           0       -0.986733   -0.318337    0.018241
      5          6           0       -2.380329   -0.874869   -0.037955
      6          8           0       -0.000061   -1.015520   -0.836125
      7          6           0       -0.728007    1.149825   -0.435503
      8          8           0        0.000004    1.960621    0.502918
      9          6           0        0.727940    1.149827   -0.435575
     10          1           0        2.800839   -0.760898   -1.042984
     11          1           0        3.028708   -0.342757    0.665510
     12          1           0        2.385175   -1.937630    0.217041
     13          1           0        0.000081   -1.530995    1.543056
     14          1           0        0.000174    0.220565    2.013626
     15          1           0       -2.385788   -1.936848    0.220427
     16          1           0       -3.029673   -0.340428    0.662873
     17          1           0       -2.799216   -0.764034   -1.043945
     18          1           0       -1.369619    1.668055   -1.140402
     19          1           0        1.369502    1.668057   -1.140519
 ---------------------------------------------------------------------

 SCF Done:  E(RB3LYP) =  -423.138591097     A.U. after    1 cycles

 The electronic state is 1-A.
 Alpha  occ. eigenvalues --  -19.15455 -19.12747 -10.24554 -10.24554 -10.23386
 Alpha  occ. eigenvalues --  -10.23350 -10.18373 -10.18373 -10.18198  -1.08270
 Alpha  occ. eigenvalues --   -1.02755  -0.77208  -0.76565  -0.71174  -0.68868
 Alpha  occ. eigenvalues --   -0.63727  -0.55411  -0.55322  -0.50098  -0.48315
 Alpha  occ. eigenvalues --   -0.45746  -0.44121  -0.43005  -0.41389  -0.39792
 Alpha  occ. eigenvalues --   -0.38921  -0.38221  -0.35827  -0.35033  -0.34741
 Alpha  occ. eigenvalues --   -0.30835  -0.29468  -0.27325  -0.23409
 Alpha virt. eigenvalues --    0.07584   0.09025   0.10437   0.10543   0.12176
 Alpha virt. eigenvalues --    0.13105   0.13689   0.14800   0.15669   0.17024
 Alpha virt. eigenvalues --    0.17320   0.18219   0.19071   0.20182   0.21783

 Mulliken charges:
               1
     1  C   -0.510687
     2  C    0.376100
     3  C   -0.314184
     4  C    0.376055
     5  C   -0.510665
     6  O   -0.364146
     7  C   -0.002974
     8  O   -0.252354
     9  C   -0.003002
    10  H    0.129427
    11  H    0.129759
    12  H    0.130182
    13  H    0.101690
    14  H    0.117275
    15  H    0.130137
    16  H    0.129734
    17  H    0.129496
    18  H    0.104079
    19  H    0.104078
 Sum of Mulliken charges =   0.00000

 Dipole moment (field-independent basis, Debye):
    X=              0.0000    Y=             -0.3842    Z=              0.0078  Tot=              0.3843
 Quadrupole moment (field-independent basis, Debye-Ang):
   XX=            -47.3837   YY=            -57.1418   ZZ=            -53.7687
   XY=             -0.0004   XZ=              0.0006   YZ=             -4.8823

  Exact polarizability:  86.267   0.000  71.472   0.000  -3.117  64.270
 Approx polarizability: 116.615   0.000 107.624   0.001   3.586 102.282

                      1                      2                      3
                      A                      A                      A
 Frequencies --    189.8133               195.0231               226.4148
 Red. masses --      1.0987                 1.0138                 2.5162
 Frc consts  --      0.0233                 0.0227                 0.0760
 IR Inten    --      0.6954                 0.0001                 1.0672

                      4                      5                      6
                      A                      A                      A
 Frequencies --    246.1281               262.2394               324.1227
 Red. masses --      2.3159                 3.4962                 2.4216
 Frc consts  --      0.0827                 0.1417                 0.1499
 IR Inten    --      0.8212                 0.3724                 0.0026

                      7                      8                      9
                      A                      A                      A
 Frequencies --    417.0094               467.3852               560.6178
 Red. masses --      4.4748                 3.1368                 2.1726
 Frc consts  --      0.4585                 0.4037                 0.4023
 IR Inten    --     15.6126                 8.6163                 6.5955

                     10                     11                     12
                      A                      A                      A
 Frequencies --    590.6905               595.8125               613.0239
 Red. masses --      4.8499                 3.5398                 5.5454
 Frc consts  --      0.9970                 0.7404                 1.2278
 IR Inten    --      2.3966                 0.0867                 0.3986

                     13                     14                     15
                      A                      A                      A
 Frequencies --    722.6095               784.5255               797.2805
 Red. masses --      4.6286                 3.8280                 2.5241
 Frc consts  --      1.4240                 1.3882                 0.9453
 IR Inten    --     19.5301                18.3766                 0.1056

                     16                     17                     18
                      A                      A                      A
 Frequencies --    843.9622               862.3901               880.9923
 Red. masses --      7.2427                 1.7371                 2.1039
 Frc consts  --      3.0395                 0.7612                 0.9621
 IR Inten    --     11.1119                28.9443                 0.9253

                     19                     20                     21
                      A                      A                      A
 Frequencies --    909.0103               941.2532               984.8983
 Red. masses --      2.8507                 2.0708                 2.4209
 Frc consts  --      1.3878                 1.0809                 1.3836
 IR Inten    --     11.1694                 5.8316                34.8125

                     22                     23                     24
                      A                      A                      A
 Frequencies --   1012.5543              1041.2274              1067.8590
 Red. masses --      1.8542                 1.1935                 1.5098
 Frc consts  --      1.1201                 0.7624                 1.0144
 IR Inten    --      5.0537                 0.8719                 1.6155

                     25                     26                     27
                      A                      A                      A
 Frequencies --   1086.6806              1167.4204              1176.5764
 Red. masses --      1.5358                 2.4482                 1.8220
 Frc consts  --      1.0686                 1.9659                 1.4860
 IR Inten    --     12.2530                16.3772                 4.5894

                     28                     29                     30
                      A                      A                      A
 Frequencies --   1212.8487              1231.5885              1235.6569
 Red. masses --      1.6190                 1.6817                 1.6464
 Frc consts  --      1.4032                 1.5029                 1.4811
 IR Inten    --      0.1902                16.4583                16.7234

                     31                     32                     33
                      A                      A                      A
 Frequencies --   1244.9199              1322.1443              1323.7220
 Red. masses --      2.1537                 3.8638                 1.9047
 Frc consts  --      1.9666                 3.9794                 1.9664
 IR Inten    --      0.7066                14.6938                33.3230

                     34                     35                     36
                      A                      A                      A
 Frequencies --   1399.3031              1409.9750              1424.6526
 Red. masses --      1.7072                 1.3732                 1.9367
 Frc consts  --      1.9695                 1.6084                 2.3160
 IR Inten    --      4.4411                16.2626                 4.0896

                     37                     38                     39
                      A                      A                      A
 Frequencies --   1478.8076              1479.4616              1481.6680
 Red. masses --      1.0486                 1.0655                 1.3714
 Frc consts  --      1.3510                 1.3741                 1.7739
 IR Inten    --      0.6233                 9.4587                 0.8797

                     40                     41                     42
                      A                      A                      A
 Frequencies --   1490.9394              1493.2587              3037.5630
 Red. masses --      1.0465                 1.0751                 1.0358
 Frc consts  --      1.3706                 1.4125                 5.6307
 IR Inten    --      1.0885                 6.5785                30.0901

                     43                     44                     45
                      A                      A                      A
 Frequencies --   3037.7354              3093.7337              3105.4746
 Red. masses --      1.0357                 1.0572                 1.1003
 Frc consts  --      5.6309                 5.9616                 6.2520
 IR Inten    --      2.7388                18.2561                27.1966

                     46                     47                     48
                      A                      A                      A
 Frequencies --   3105.5389              3121.2271              3121.3637
 Red. masses --      1.1006                 1.1016                 1.1014
 Frc consts  --      6.2537                 6.3230                 6.3223
 IR Inten    --      1.0964                 0.8110                26.7351

                     49                     50                     51
                      A                      A                      A
 Frequencies --   3167.2336              3168.4950              3180.1944
 Red. masses --      1.0877                 1.1098                 1.0993
 Frc consts  --      6.4286                 6.5647                 6.5503
 IR Inten    --     13.2223                11.8599                18.5492

 - Thermochemistry -
 -------------------
 Temperature   298.150 Kelvin.  Pressure   1.00000 Atm.
 Atom     1 has atomic number  6 and mass  12.00000

 Molecular mass:   126.06808 amu.
 Principal axes and moments of inertia in atomic units:
                           1         2         3
     Eigenvalues --   712.80605 966.312531329.33045
           X            1.00000   0.00000   0.00000
           Y            0.00000   0.99858  -0.05331
           Z            0.00000   0.05331   0.99858
 This molecule is an asymmetric top.
 Rotational symmetry number  1.
 Warning -- assumption of classical behavior for rotation
           may cause significant error
 Rotational temperatures (Kelvin)      0.12151     0.08963     0.06516
 Rotational constants (GHZ):           2.53188     1.86766     1.35763
 Zero-point vibrational energy     414715.5 (Joules/Mol)
                                   99.11940 (Kcal/Mol)
 Warning -- explicit consideration of  12 degrees of freedom as
           vibrations may cause significant error
 Vibrational temperatures:    273.10   280.59   325.76   354.12   377.30
          (Kelvin)            466.34   599.98   672.46   806.60   849.87
                              857.24   882.00  1039.67  1128.76  1147.11
                             1214.27  1240.79  1267.55  1307.86  1354.25
                             1417.05  1456.84  1498.09  1536.41  1563.49
                             1679.66  1692.83  1745.02  1771.98  1777.83
                             1791.16  1902.27  1904.54  2013.28  2028.64
                             2049.75  2127.67  2128.61  2131.79  2145.13
                             2148.46  4370.37  4370.62  4451.19  4468.08
                             4468.17  4490.74  4490.94  4556.94  4558.75
                             4575.58

 Zero-point correction=                           0.157957 (Hartree/Particle)
 Thermal correction to Energy=                    0.165889
 Thermal correction to Enthalpy=                  0.166834
 Thermal correction to Gibbs Free Energy=         0.126209
 Sum of electronic and zero-point Energies=           -422.980634
 Sum of electronic and thermal Energies=              -422.972702
 Sum of electronic and thermal Enthalpies=            -422.971757
 Sum of electronic and thermal Free Energies=         -423.012383

                     E (Thermal)             CV                S
                      KCal/Mol        Cal/Mol-Kelvin    Cal/Mol-Kelvin
 Total                  104.097             32.142             85.503
 Electronic               0.000              0.000              0.000
 Translational            0.889              2.981             40.409
 Rotational               0.889              2.981             28.306
 Vibrational            102.320             26.180             16.788
 Vibration     1          0.633              1.854              2.230
 Vibration     2          0.636              1.847              2.180
 Vibration     3          0.650              1.801              1.907
 Vibration     4          0.661              1.769              1.758
 Vibration     5          0.670              1.742              1.647
 Vibration     6          0.709              1.627              1.289
 Vibration     7          0.780              1.433              0.902
 Vibration     8          0.825              1.322              0.745
 Vibration     9          0.916              1.117              0.523
 Vibration    10          0.948              1.052              0.466
 Vibration    11          0.954              1.041              0.457
 Vibration    12          0.972              1.004              0.428

 Normal termination of Gaussian 09 at Mon Jan 27 17:52:51 2020.
