 Gaussian 09, Revision D.01,
 Gaussian 09:  ES64L-G09RevD.01 24-Apr-2013

 -----------------------------
 # b3lyp 6-31G(2df,p) opt Freq
 -----------------------------

 -----
 titel
 -----
 Symbolic Z-matrix:
 Charge =  0 Multiplicity = 1

 SCF Done:  E(RB3LYP) =  -423.032094980     A.U. after   13 cycles
 Optimization completed.
    -- Stationary point found.
 Normal termination of Gaussian 09 at Mon Jan 27 22:04:22 2020.

 ----------------------------------------------------------------------
 #N Geom=AllCheck Guess=TCheck SCRF=Check GenChk RB3LYP/6-31G(2df,p) Fr
 eq
 ----------------------------------------------------------------------

 Structure from the checkpoint file:  "/scratch/puck/g09_affe7e0b-571b-4030-ba47-0d96c8c15848/Gau-189466.chk"
 -----
 titel
 -----
 Charge =  0 Multiplicity = 1

                         Standard orientation:
 ---------------------------------------------------------------------
 Center     Atomic      Atomic             Coordinates (Angstroms)
 Number     Number       Type             X           Y           Z
 ---------------------------------------------------------------------
      1          6           0       -1.708128    1.591281   -0.127985
      2          6           0       -0.811385    0.687550    0.707291
      3          6           0       -0.926898   -0.887138    0.311846
      4          8           0       -2.122852   -1.341864   -0.243857
      5          6           0        0.307247   -0.674051   -0.655656
      6          6           0        1.861690   -0.580364   -0.476449
      7          6           0        1.688043   -0.347301    1.022112
      8          6           0        0.639652    0.495812    0.234206
      9          8           0        1.748174    0.923232   -0.682547
     10          1           0       -2.761184    1.375663    0.078274
     11          1           0       -1.524870    2.643073    0.108489
     12          1           0       -1.534000    1.466231   -1.201995
     13          1           0       -0.929882    0.909304    1.772703
     14          1           0       -0.736429   -1.521565    1.177367
     15          1           0       -2.286838   -0.859654   -1.061199
     16          1           0       -0.021898   -0.383766   -1.657184
     17          1           0        2.673348   -1.053088   -1.034414
     18          1           0        1.339328   -1.176459    1.641391
     19          1           0        2.478529    0.234585    1.495610
 ---------------------------------------------------------------------

 SCF Done:  E(RB3LYP) =  -423.032094980     A.U. after    1 cycles

 The electronic state is 1-A.
 Alpha  occ. eigenvalues --  -19.15254 -19.13346 -10.25942 -10.25451 -10.24578
 Alpha  occ. eigenvalues --  -10.20846 -10.19206 -10.18890 -10.18354  -1.04735
 Alpha  occ. eigenvalues --   -1.03515  -0.84823  -0.76753  -0.70903  -0.66363
 Alpha  occ. eigenvalues --   -0.63443  -0.58892  -0.54299  -0.49787  -0.48573
 Alpha  occ. eigenvalues --   -0.47304  -0.44547  -0.42200  -0.40723  -0.40177
 Alpha  occ. eigenvalues --   -0.38863  -0.38216  -0.36219  -0.34191  -0.33543
 Alpha  occ. eigenvalues --   -0.30669  -0.27095  -0.25908  -0.22718
 Alpha virt. eigenvalues --    0.04874   0.06745   0.08276   0.09430   0.11608
 Alpha virt. eigenvalues --    0.12115   0.12916   0.13993   0.15139   0.15352
 Alpha virt. eigenvalues --    0.16902   0.17624   0.18117   0.19900   0.21531

 Mulliken charges:
               1
     1  C   -0.416674
     2  C   -0.158715
     3  C    0.091294
     4  O   -0.422136
     5  C   -0.094853
     6  C    0.007248
     7  C   -0.262623
     8  C    0.392322
     9  O   -0.379269
    10  H    0.129665
    11  H    0.133251
    12  H    0.119537
    13  H    0.081950
    14  H    0.107540
    15  H    0.287324
    16  H    0.079050
    17  H    0.094277
    18  H    0.101938
    19  H    0.108874
 Sum of Mulliken charges =   0.00000

 Dipole moment (field-independent basis, Debye):
    X=             -0.7389    Y=             -0.1573    Z=              0.4454  Tot=              0.8770
 Quadrupole moment (field-independent basis, Debye-Ang):
   XX=            -55.2967   YY=            -56.6477   ZZ=            -50.7809
   XY=             -6.8233   XZ=              3.5284   YZ=              1.3935

  Exact polarizability:  89.119  -3.847  68.869   0.271  -0.015  70.225
 Approx polarizability: 125.245   1.642 108.279  -3.657  -1.186 111.453

                      1                      2                      3
                      A                      A                      A
 Frequencies --    156.1132               209.1608               224.1192
 Red. masses --      3.4089                 3.8592                 1.3263
 Frc consts  --      0.0489                 0.0995                 0.0393
 IR Inten    --      1.2636                 5.7675                 2.4653

                      4                      5                      6
                      A                      A                      A
 Frequencies --    232.4828               290.7777               348.2047
 Red. masses --      1.9538                 1.5750                 2.0108
 Frc consts  --      0.0622                 0.0785                 0.1436
 IR Inten    --      2.8327                38.2363                61.1867

                      7                      8                      9
                      A                      A                      A
 Frequencies --    380.6249               405.5543               512.0709
 Red. masses --      4.2030                 3.1518                 3.1529
 Frc consts  --      0.3588                 0.3054                 0.4871
 IR Inten    --      1.2532                 5.8944                 7.0566

                     10                     11                     12
                      A                      A                      A
 Frequencies --    552.4736               586.6386               640.7903
 Red. masses --      3.4541                 3.5698                 3.7125
 Frc consts  --      0.6212                 0.7238                 0.8982
 IR Inten    --      0.2973                 4.5963                 7.2202

                     13                     14                     15
                      A                      A                      A
 Frequencies --    729.2020               745.7237               826.4898
 Red. masses --      3.0466                 3.1087                 3.3970
 Frc consts  --      0.9545                 1.0186                 1.3672
 IR Inten    --      0.8898                20.2793                 9.4599

                     16                     17                     18
                      A                      A                      A
 Frequencies --    845.9148               926.6131               928.8401
 Red. masses --      3.7021                 5.0471                 2.0614
 Frc consts  --      1.5608                 2.5532                 1.0478
 IR Inten    --      6.1811                34.1757                11.8346

                     19                     20                     21
                      A                      A                      A
 Frequencies --    972.4033               988.6705              1017.4828
 Red. masses --      2.7940                 1.7154                 1.3730
 Frc consts  --      1.5566                 0.9879                 0.8375
 IR Inten    --      1.5175                15.9187                 5.3493

                     22                     23                     24
                      A                      A                      A
 Frequencies --   1028.6253              1055.9264              1071.5172
 Red. masses --      1.3905                 1.6242                 2.0086
 Frc consts  --      0.8668                 1.0670                 1.3588
 IR Inten    --      7.2748                 1.8606                12.5525

                     25                     26                     27
                      A                      A                      A
 Frequencies --   1105.1459              1124.1201              1151.9682
 Red. masses --      2.1385                 1.8973                 1.9492
 Frc consts  --      1.5389                 1.4126                 1.5240
 IR Inten    --     88.4149                42.6272                81.8240

                     28                     29                     30
                      A                      A                      A
 Frequencies --   1180.8048              1188.8057              1196.8164
 Red. masses --      1.5838                 1.3818                 1.5089
 Frc consts  --      1.3011                 1.1506                 1.2734
 IR Inten    --      8.8112                 6.9276                 1.8958

                     31                     32                     33
                      A                      A                      A
 Frequencies --   1213.2610              1237.9634              1266.1294
 Red. masses --      1.5161                 1.7007                 1.5219
 Frc consts  --      1.3149                 1.5357                 1.4375
 IR Inten    --     13.3918                 6.2612                 3.8899

                     34                     35                     36
                      A                      A                      A
 Frequencies --   1276.8611              1349.6687              1356.4293
 Red. masses --      2.8344                 1.4867                 1.5737
 Frc consts  --      2.7227                 1.5956                 1.7059
 IR Inten    --     10.8911                 3.7505                 2.8858

                     37                     38                     39
                      A                      A                      A
 Frequencies --   1409.0134              1438.4074              1493.8276
 Red. masses --      1.2518                 1.2118                 1.1821
 Frc consts  --      1.4642                 1.4772                 1.5542
 IR Inten    --      4.6031                51.3560                 4.8038

                     40                     41                     42
                      A                      A                      A
 Frequencies --   1497.1982              1502.5927              3036.9474
 Red. masses --      1.0464                 1.0487                 1.0358
 Frc consts  --      1.3820                 1.3951                 5.6287
 IR Inten    --      6.1428                 4.0281                16.9189

                     43                     44                     45
                      A                      A                      A
 Frequencies --   3054.7656              3069.6371              3073.1628
 Red. masses --      1.0861                 1.0583                 1.0832
 Frc consts  --      5.9714                 5.8752                 6.0277
 IR Inten    --     27.1287                27.5411                36.7947

                     46                     47                     48
                      A                      A                      A
 Frequencies --   3090.2347              3105.0554              3113.5904
 Red. masses --      1.0924                 1.1002                 1.1003
 Frc consts  --      6.1463                 6.2496                 6.2849
 IR Inten    --     56.8443                28.9445                15.2860

                     49                     50                     51
                      A                      A                      A
 Frequencies --   3116.9683              3153.1390              3810.5494
 Red. masses --      1.0878                 1.1093                 1.0657
 Frc consts  --      6.2266                 6.4983                 9.1174
 IR Inten    --     31.9323                22.0114                17.8925

 - Thermochemistry -
 -------------------
 Temperature   298.150 Kelvin.  Pressure   1.00000 Atm.
 Atom     1 has atomic number  6 and mass  12.00000

 Molecular mass:   126.06808 amu.
 Principal axes and moments of inertia in atomic units:
                           1         2         3
     Eigenvalues --   612.469591227.769941463.63000
           X            0.99756  -0.06701   0.01935
           Y            0.06722   0.99768  -0.01040
           Z           -0.01861   0.01167   0.99976
 This molecule is an asymmetric top.
 Rotational symmetry number  1.
 Warning -- assumption of classical behavior for rotation
           may cause significant error
 Rotational temperatures (Kelvin)      0.14142     0.07055     0.05918
 Rotational constants (GHZ):           2.94666     1.46993     1.23306
 Zero-point vibrational energy     414443.1 (Joules/Mol)
                                   99.05429 (Kcal/Mol)
 Warning -- explicit consideration of  11 degrees of freedom as
           vibrations may cause significant error
 Vibrational temperatures:    224.61   300.94   322.46   334.49   418.36
          (Kelvin)            500.99   547.63   583.50   736.75   794.89
                              844.04   921.95  1049.16  1072.93  1189.13
                             1217.08  1333.19  1336.39  1399.07  1422.47
                             1463.93  1479.96  1519.24  1541.67  1590.06
                             1617.36  1657.42  1698.91  1710.42  1721.95
                             1745.61  1781.15  1821.68  1837.12  1941.87
                             1951.60  2027.25  2069.54  2149.28  2154.13
                             2161.89  4369.48  4395.12  4416.52  4421.59
                             4446.15  4467.48  4479.76  4484.62  4536.66
                             5482.52

 Zero-point correction=                           0.157853 (Hartree/Particle)
 Thermal correction to Energy=                    0.165896
 Thermal correction to Enthalpy=                  0.166840
 Thermal correction to Gibbs Free Energy=         0.125892
 Sum of electronic and zero-point Energies=           -422.874242
 Sum of electronic and thermal Energies=              -422.866199
 Sum of electronic and thermal Enthalpies=            -422.865255
 Sum of electronic and thermal Free Energies=         -422.906203

                     E (Thermal)             CV                S
                      KCal/Mol        Cal/Mol-Kelvin    Cal/Mol-Kelvin
 Total                  104.101             32.429             86.181
 Electronic               0.000              0.000              0.000
 Translational            0.889              2.981             40.409
 Rotational               0.889              2.981             28.489
 Vibrational            102.324             26.467             17.284
 Vibration     1          0.620              1.896              2.596
 Vibration     2          0.642              1.827              2.051
 Vibration     3          0.649              1.804              1.926
 Vibration     4          0.653              1.791              1.860
 Vibration     5          0.687              1.691              1.469
 Vibration     6          0.726              1.579              1.174
 Vibration     7          0.750              1.511              1.037
 Vibration     8          0.771              1.458              0.942
 Vibration     9          0.867              1.223              0.629
 Vibration    10          0.908              1.134              0.539
 Vibration    11          0.944              1.060              0.473

 Normal termination of Gaussian 09 at Mon Jan 27 22:50:18 2020.
