 Gaussian 09, Revision D.01,
 Gaussian 09:  ES64L-G09RevD.01 24-Apr-2013

 -----------------------------
 # b3lyp 6-31G(2df,p) opt Freq
 -----------------------------

 -----
 titel
 -----
 Symbolic Z-matrix:
 Charge =  0 Multiplicity = 1

 SCF Done:  E(RB3LYP) =  -423.171709586     A.U. after   14 cycles
 Optimization completed.
    -- Stationary point found.
 Normal termination of Gaussian 09 at Mon Jan 27 14:07:52 2020.

 ----------------------------------------------------------------------
 #N Geom=AllCheck Guess=TCheck SCRF=Check GenChk RB3LYP/6-31G(2df,p) Fr
 eq
 ----------------------------------------------------------------------

 Structure from the checkpoint file:  "/scratch/puck/g09_96ab3185-efc9-4e7c-9ef8-379ea310cea1/Gau-171890.chk"
 -----
 titel
 -----
 Charge =  0 Multiplicity = 1

                         Standard orientation:
 ---------------------------------------------------------------------
 Center     Atomic      Atomic             Coordinates (Angstroms)
 Number     Number       Type             X           Y           Z
 ---------------------------------------------------------------------
      1          6           0        2.842794   -1.183152   -0.357672
      2          6           0        1.930476   -0.094096    0.170054
      3          8           0        2.162285    0.501625    1.201858
      4          6           0        0.713478    0.203673   -0.644193
      5          6           0        0.141478    1.607352   -0.574684
      6          6           0       -0.572253    0.501968    0.129699
      7          6           0       -1.864956   -0.017406   -0.394381
      8          6           0       -3.075870   -0.076132    0.435188
      9          8           0       -2.329696   -1.258819    0.144228
     10          1           0        2.287666   -2.123100   -0.457044
     11          1           0        3.204869   -0.921384   -1.358734
     12          1           0        3.688503   -1.322137    0.316327
     13          1           0        0.605114   -0.338366   -1.577636
     14          1           0        0.693877    2.310471    0.037611
     15          1           0       -0.291582    2.009952   -1.484110
     16          1           0       -0.456026    0.465430    1.208380
     17          1           0       -1.995180    0.072412   -1.475205
     18          1           0       -3.031152    0.262037    1.469757
     19          1           0       -4.057685   -0.011003   -0.032114
 ---------------------------------------------------------------------

 SCF Done:  E(RB3LYP) =  -423.171709586     A.U. after    1 cycles

 The electronic state is 1-A.
 Alpha  occ. eigenvalues --  -19.15246 -19.12312 -10.26883 -10.24629 -10.23696
 Alpha  occ. eigenvalues --  -10.20883 -10.20316 -10.20180 -10.18833  -1.07317
 Alpha  occ. eigenvalues --   -1.03489  -0.87592  -0.75083  -0.69534  -0.65338
 Alpha  occ. eigenvalues --   -0.63648  -0.58732  -0.54101  -0.51196  -0.49465
 Alpha  occ. eigenvalues --   -0.47141  -0.44643  -0.43741  -0.42060  -0.41463
 Alpha  occ. eigenvalues --   -0.39587  -0.38154  -0.37507  -0.35890  -0.33815
 Alpha  occ. eigenvalues --   -0.31150  -0.28083  -0.26966  -0.24550
 Alpha virt. eigenvalues --   -0.01335   0.08687   0.09817   0.10254   0.11001
 Alpha virt. eigenvalues --    0.11346   0.13025   0.13935   0.15248   0.15652
 Alpha virt. eigenvalues --    0.17568   0.18073   0.18448   0.20336   0.21749

 Mulliken charges:
               1
     1  C   -0.486177
     2  C    0.384788
     3  O   -0.326847
     4  C   -0.134764
     5  C   -0.296230
     6  C   -0.016210
     7  C    0.083637
     8  C   -0.185693
     9  O   -0.237211
    10  H    0.145774
    11  H    0.139167
    12  H    0.141755
    13  H    0.090165
    14  H    0.141506
    15  H    0.117037
    16  H    0.115692
    17  H    0.089780
    18  H    0.117738
    19  H    0.116092
 Sum of Mulliken charges =   0.00000

 Dipole moment (field-independent basis, Debye):
    X=             -0.8428    Y=              0.6231    Z=             -2.3435  Tot=              2.5672
 Quadrupole moment (field-independent basis, Debye-Ang):
   XX=            -51.6892   YY=            -55.1275   ZZ=            -53.1162
   XY=             -7.0755   XZ=             -4.6845   YZ=             -0.7318

  Exact polarizability:  97.626  -4.128  68.500  -1.661   1.918  69.355
 Approx polarizability: 120.212  -2.038 105.895  -0.405   5.614 111.642

                      1                      2                      3
                      A                      A                      A
 Frequencies --     46.2073                77.7711               114.7714
 Red. masses --      3.7259                 4.0244                 3.4045
 Frc consts  --      0.0047                 0.0143                 0.0264
 IR Inten    --      5.4298                 0.7036                 4.5138

                      4                      5                      6
                      A                      A                      A
 Frequencies --    137.8203               162.7161               262.6443
 Red. masses --      1.1949                 2.7389                 3.8491
 Frc consts  --      0.0134                 0.0427                 0.1564
 IR Inten    --      0.8742                 2.0105                 2.3184

                      7                      8                      9
                      A                      A                      A
 Frequencies --    312.0447               339.4078               408.6164
 Red. masses --      2.9594                 3.2298                 3.2865
 Frc consts  --      0.1698                 0.2192                 0.3233
 IR Inten    --      2.9899                 1.7378                 6.9521

                     10                     11                     12
                      A                      A                      A
 Frequencies --    488.0849               594.5027               602.2805
 Red. masses --      3.6194                 3.8164                 2.2511
 Frc consts  --      0.5080                 0.7947                 0.4811
 IR Inten    --      7.5701                 9.4041                 1.3539

                     13                     14                     15
                      A                      A                      A
 Frequencies --    786.2757               794.6768               851.1638
 Red. masses --      2.0176                 1.7077                 5.2547
 Frc consts  --      0.7349                 0.6354                 2.2430
 IR Inten    --      1.7853                 3.0621                16.8647

                     16                     17                     18
                      A                      A                      A
 Frequencies --    868.3585               896.6933               940.3632
 Red. masses --      4.1550                 2.2222                 2.2305
 Frc consts  --      1.8460                 1.0528                 1.1621
 IR Inten    --     31.9527                 6.5654                 0.1623

                     19                     20                     21
                      A                      A                      A
 Frequencies --    966.4555               984.2518               989.4418
 Red. masses --      2.2366                 1.4214                 1.9738
 Frc consts  --      1.2309                 0.8113                 1.1385
 IR Inten    --     34.2731                10.6173                34.9984

                     22                     23                     24
                      A                      A                      A
 Frequencies --   1052.4865              1081.5538              1098.7357
 Red. masses --      1.9146                 1.3035                 1.2653
 Frc consts  --      1.2496                 0.8984                 0.9000
 IR Inten    --      3.9868                 5.9368                 0.6405

                     25                     26                     27
                      A                      A                      A
 Frequencies --   1119.4991              1131.5079              1157.3353
 Red. masses --      1.1682                 1.3708                 1.3613
 Frc consts  --      0.8626                 1.0340                 1.0743
 IR Inten    --      6.9550                 4.1525                 1.1593

                     28                     29                     30
                      A                      A                      A
 Frequencies --   1167.3152              1191.1673              1209.5439
 Red. masses --      1.3463                 2.1122                 1.9886
 Frc consts  --      1.0809                 1.7657                 1.7141
 IR Inten    --      3.9385                94.2343                16.7977

                     31                     32                     33
                      A                      A                      A
 Frequencies --   1225.4492              1290.9041              1307.5304
 Red. masses --      1.7735                 1.9041                 1.3418
 Frc consts  --      1.5692                 1.8695                 1.3516
 IR Inten    --      5.6530                15.6231                 8.3359

                     34                     35                     36
                      A                      A                      A
 Frequencies --   1376.7753              1404.1072              1455.1886
 Red. masses --      1.2869                 1.9053                 1.2464
 Frc consts  --      1.4372                 2.2131                 1.5551
 IR Inten    --     12.4953               117.5489                13.7399

                     37                     38                     39
                      A                      A                      A
 Frequencies --   1463.7233              1474.9611              1484.3845
 Red. masses --      1.0608                 1.0498                 1.8212
 Frc consts  --      1.3391                 1.3456                 2.3643
 IR Inten    --     10.6253                 7.4940                 5.7250

                     40                     41                     42
                      A                      A                      A
 Frequencies --   1532.1483              1791.5532              3033.7625
 Red. masses --      1.4469                10.1049                 1.0372
 Frc consts  --      2.0011                19.1092                 5.6244
 IR Inten    --      4.6799               129.4802                 2.3357

                     43                     44                     45
                      A                      A                      A
 Frequencies --   3079.9888              3085.4115              3093.5471
 Red. masses --      1.0560                 1.0813                 1.0982
 Frc consts  --      5.9021                 6.0651                 6.1919
 IR Inten    --     29.4041                20.2063                 7.0236

                     46                     47                     48
                      A                      A                      A
 Frequencies --   3136.6643              3154.4503              3165.8893
 Red. masses --      1.0539                 1.1014                 1.0984
 Frc consts  --      6.1093                 6.4572                 6.4863
 IR Inten    --     11.2287                10.6828                13.5010

                     49                     50                     51
                      A                      A                      A
 Frequencies --   3167.9475              3170.7498              3233.3347
 Red. masses --      1.1030                 1.0953                 1.1169
 Frc consts  --      6.5222                 6.4879                 6.8794
 IR Inten    --      5.3057                18.6426                 1.9650

 - Thermochemistry -
 -------------------
 Temperature   298.150 Kelvin.  Pressure   1.00000 Atm.
 Atom     1 has atomic number  6 and mass  12.00000

 Molecular mass:   126.06808 amu.
 Principal axes and moments of inertia in atomic units:
                           1         2         3
     Eigenvalues --   530.937192074.177322239.69326
           X            0.99946  -0.02961  -0.01410
           Y            0.02975   0.99951   0.00971
           Z            0.01380  -0.01012   0.99985
 This molecule is an asymmetric top.
 Rotational symmetry number  1.
 Warning -- assumption of classical behavior for rotation
           may cause significant error
 Rotational temperatures (Kelvin)      0.16313     0.04176     0.03867
 Rotational constants (GHZ):           3.39916     0.87010     0.80580
 Zero-point vibrational energy     412485.3 (Joules/Mol)
                                   98.58636 (Kcal/Mol)
 Warning -- explicit consideration of  12 degrees of freedom as
           vibrations may cause significant error
 Vibrational temperatures:     66.48   111.90   165.13   198.29   234.11
          (Kelvin)            377.89   448.96   488.33   587.91   702.24
                              855.36   866.55  1131.27  1143.36  1224.63
                             1249.37  1290.14  1352.97  1390.51  1416.12
                             1423.58  1514.29  1556.11  1580.83  1610.71
                             1627.99  1665.15  1679.50  1713.82  1740.26
                             1763.15  1857.32  1881.24  1980.87  2020.19
                             2093.69  2105.97  2122.14  2135.70  2204.42
                             2577.64  4364.90  4431.41  4439.21  4450.92
                             4512.95  4538.54  4555.00  4557.96  4562.00
                             4652.04

 Zero-point correction=                           0.157107 (Hartree/Particle)
 Thermal correction to Energy=                    0.166446
 Thermal correction to Enthalpy=                  0.167391
 Thermal correction to Gibbs Free Energy=         0.121821
 Sum of electronic and zero-point Energies=           -423.014602
 Sum of electronic and thermal Energies=              -423.005263
 Sum of electronic and thermal Enthalpies=            -423.004319
 Sum of electronic and thermal Free Energies=         -423.049889

                     E (Thermal)             CV                S
                      KCal/Mol        Cal/Mol-Kelvin    Cal/Mol-Kelvin
 Total                  104.447             33.453             95.910
 Electronic               0.000              0.000              0.000
 Translational            0.889              2.981             40.409
 Rotational               0.889              2.981             29.291
 Vibrational            102.669             27.492             26.211
 Vibration     1          0.595              1.979              4.973
 Vibration     2          0.599              1.964              3.946
 Vibration     3          0.608              1.937              3.187
 Vibration     4          0.614              1.916              2.834
 Vibration     5          0.623              1.888              2.518
 Vibration     6          0.670              1.741              1.644
 Vibration     7          0.700              1.651              1.351
 Vibration     8          0.719              1.597              1.215
 Vibration     9          0.773              1.452              0.932
 Vibration    10          0.844              1.276              0.689
 Vibration    11          0.952              1.043              0.459
 Vibration    12          0.961              1.027              0.446

 Normal termination of Gaussian 09 at Mon Jan 27 14:45:34 2020.
