 Gaussian 09, Revision D.01,
 Gaussian 09:  ES64L-G09RevD.01 24-Apr-2013

 -----------------------------
 # b3lyp 6-31G(2df,p) opt Freq
 -----------------------------

 -----
 titel
 -----
 Symbolic Z-matrix:
 Charge =  0 Multiplicity = 1

 SCF Done:  E(RB3LYP) =  -423.153351073     A.U. after   14 cycles
 Optimization completed.
    -- Stationary point found.
 Normal termination of Gaussian 09 at Mon Jan 27 23:08:59 2020.

 ----------------------------------------------------------------------
 #N Geom=AllCheck Guess=TCheck SCRF=Check GenChk RB3LYP/6-31G(2df,p) Fr
 eq
 ----------------------------------------------------------------------

 Structure from the checkpoint file:  "/scratch/puck/g09_0c9a3128-2e2e-4486-9117-35574a1b03fd/Gau-114543.chk"
 -----
 titel
 -----
 Charge =  0 Multiplicity = 1

                         Standard orientation:
 ---------------------------------------------------------------------
 Center     Atomic      Atomic             Coordinates (Angstroms)
 Number     Number       Type             X           Y           Z
 ---------------------------------------------------------------------
      1          6           0        2.129156   -0.981693   -0.560803
      2          6           0        0.865088   -0.365878   -0.047570
      3          8           0        0.007294   -1.238479    0.730687
      4          6           0       -0.648245    0.006530    1.137396
      5          6           0        0.686835    0.808579    0.951692
      6          6           0        0.519413    1.792299   -0.220344
      7          6           0       -0.067712    0.565895   -0.964052
      8          6           0       -1.387352    0.345252   -0.181709
      9          8           0       -2.208175   -0.699328   -0.627620
     10          1           0        2.747408   -0.229115   -1.059699
     11          1           0        2.707268   -1.424251    0.255623
     12          1           0        1.902229   -1.768135   -1.288763
     13          1           0       -1.200866   -0.076807    2.071663
     14          1           0        1.324579    0.967995    1.820094
     15          1           0       -0.127568    2.665973   -0.100900
     16          1           0        1.491361    2.110176   -0.606406
     17          1           0       -0.105084    0.488396   -2.049154
     18          1           0       -1.999181    1.249795   -0.133727
     19          1           0       -1.716193   -1.507491   -0.420938
 ---------------------------------------------------------------------

 SCF Done:  E(RB3LYP) =  -423.153351073     A.U. after    1 cycles

 The electronic state is 1-A.
 Alpha  occ. eigenvalues --  -19.14353 -19.12577 -10.24623 -10.23770 -10.22906
 Alpha  occ. eigenvalues --  -10.19669 -10.19089 -10.18882 -10.18710  -1.06376
 Alpha  occ. eigenvalues --   -1.00606  -0.85871  -0.75642  -0.69393  -0.68025
 Alpha  occ. eigenvalues --   -0.62996  -0.57757  -0.52821  -0.50806  -0.48568
 Alpha  occ. eigenvalues --   -0.47101  -0.45783  -0.43087  -0.41479  -0.40261
 Alpha  occ. eigenvalues --   -0.38090  -0.37151  -0.35231  -0.33915  -0.32998
 Alpha  occ. eigenvalues --   -0.30738  -0.29287  -0.26793  -0.23915
 Alpha virt. eigenvalues --    0.07817   0.09331   0.11043   0.12273   0.12411
 Alpha virt. eigenvalues --    0.13284   0.14101   0.14833   0.15780   0.16920
 Alpha virt. eigenvalues --    0.17324   0.18384   0.19237   0.20637   0.21980

 Mulliken charges:
               1
     1  C   -0.513187
     2  C    0.471382
     3  O   -0.350752
     4  C    0.015296
     5  C   -0.119593
     6  C   -0.261274
     7  C   -0.172276
     8  C    0.191767
     9  O   -0.457406
    10  H    0.128356
    11  H    0.131430
    12  H    0.133047
    13  H    0.083862
    14  H    0.077744
    15  H    0.099133
    16  H    0.104494
    17  H    0.072088
    18  H    0.082943
    19  H    0.282946
 Sum of Mulliken charges =   0.00000

 Dipole moment (field-independent basis, Debye):
    X=              2.0073    Y=              1.2532    Z=              0.2796  Tot=              2.3829
 Quadrupole moment (field-independent basis, Debye-Ang):
   XX=            -55.9922   YY=            -52.8616   ZZ=            -52.4329
   XY=             -1.2802   XZ=             -3.0727   YZ=              1.4371

  Exact polarizability:  78.500  -0.915  73.555  -1.524   0.471  69.128
 Approx polarizability: 110.117  -0.007 112.189  -0.639  -0.608 106.086

                      1                      2                      3
                      A                      A                      A
 Frequencies --    177.7121               208.7956               270.1248
 Red. masses --      3.5770                 1.0478                 2.6469
 Frc consts  --      0.0666                 0.0269                 0.1138
 IR Inten    --      0.8328                 0.3612                 0.3185

                      4                      5                      6
                      A                      A                      A
 Frequencies --    303.3602               356.7274               433.9250
 Red. masses --      3.3887                 3.4325                 2.1665
 Frc consts  --      0.1837                 0.2574                 0.2403
 IR Inten    --      8.1423                 1.1157                 0.5152

                      7                      8                      9
                      A                      A                      A
 Frequencies --    496.6463               552.4343               599.3577
 Red. masses --      4.3153                 1.2136                 3.6758
 Frc consts  --      0.6271                 0.2182                 0.7780
 IR Inten    --      0.4869                48.2061                25.1679

                     10                     11                     12
                      A                      A                      A
 Frequencies --    613.0434               712.6427               750.5813
 Red. masses --      3.3291                 4.8868                 3.7059
 Frc consts  --      0.7372                 1.4622                 1.2301
 IR Inten    --      1.3550                 1.2035                 4.9427

                     13                     14                     15
                      A                      A                      A
 Frequencies --    814.7385               846.6128               862.1368
 Red. masses --      2.4877                 2.8558                 2.0481
 Frc consts  --      0.9729                 1.2060                 0.8969
 IR Inten    --      1.0750                24.2334                14.7436

                     16                     17                     18
                      A                      A                      A
 Frequencies --    873.0017               888.0732               925.7331
 Red. masses --      2.6364                 2.6701                 2.6477
 Frc consts  --      1.1838                 1.2407                 1.3369
 IR Inten    --     17.0103                10.7486                17.7499

                     19                     20                     21
                      A                      A                      A
 Frequencies --    937.4340               969.5443               989.5397
 Red. masses --      1.8413                 2.1013                 2.3796
 Frc consts  --      0.9533                 1.1638                 1.3728
 IR Inten    --      0.6206                12.5288                 4.0247

                     22                     23                     24
                      A                      A                      A
 Frequencies --   1038.0388              1064.7764              1105.7190
 Red. masses --      1.3225                 1.5524                 1.8633
 Frc consts  --      0.8396                 1.0370                 1.3422
 IR Inten    --      3.8385                25.0824                18.8724

                     25                     26                     27
                      A                      A                      A
 Frequencies --   1122.2424              1138.7821              1155.0688
 Red. masses --      2.2780                 2.1373                 1.9205
 Frc consts  --      1.6904                 1.6330                 1.5097
 IR Inten    --     24.0585                71.7390                33.6806

                     28                     29                     30
                      A                      A                      A
 Frequencies --   1163.8063              1202.8464              1213.9436
 Red. masses --      1.6675                 1.6237                 1.6807
 Frc consts  --      1.3307                 1.3842                 1.4592
 IR Inten    --      5.3462                 4.4525                 2.4476

                     31                     32                     33
                      A                      A                      A
 Frequencies --   1251.4518              1268.2653              1280.6728
 Red. masses --      1.7254                 1.5857                 1.5144
 Frc consts  --      1.5921                 1.5027                 1.4634
 IR Inten    --      5.4310                 7.0568                22.1065

                     34                     35                     36
                      A                      A                      A
 Frequencies --   1299.4253              1323.5961              1357.2313
 Red. masses --      1.6694                 1.6197                 2.2641
 Frc consts  --      1.6608                 1.6719                 2.4573
 IR Inten    --      6.3952                 5.0808                12.8239

                     37                     38                     39
                      A                      A                      A
 Frequencies --   1416.9789              1450.8876              1476.7254
 Red. masses --      1.6325                 1.2555                 1.0505
 Frc consts  --      1.9313                 1.5571                 1.3498
 IR Inten    --     19.0066                86.2753                 4.0073

                     40                     41                     42
                      A                      A                      A
 Frequencies --   1493.4236              1503.7550              3036.7549
 Red. masses --      1.0554                 1.1063                 1.0354
 Frc consts  --      1.3869                 1.4740                 5.6256
 IR Inten    --      2.5112                 7.8160                17.8149

                     43                     44                     45
                      A                      A                      A
 Frequencies --   3054.9864              3081.8878              3104.8073
 Red. masses --      1.0577                 1.0863                 1.1006
 Frc consts  --      5.8161                 6.0787                 6.2513
 IR Inten    --     31.3592                28.4034                13.2420

                     46                     47                     48
                      A                      A                      A
 Frequencies --   3108.1345              3116.4862              3126.1997
 Red. masses --      1.1073                 1.1016                 1.0900
 Frc consts  --      6.3026                 6.3041                 6.2764
 IR Inten    --     30.1143                13.0101                29.4353

                     49                     50                     51
                      A                      A                      A
 Frequencies --   3137.6355              3141.8145              3729.7200
 Red. masses --      1.0899                 1.0936                 1.0641
 Frc consts  --      6.3220                 6.3604                 8.7210
 IR Inten    --     38.0064                26.8448                35.4114

 - Thermochemistry -
 -------------------
 Temperature   298.150 Kelvin.  Pressure   1.00000 Atm.
 Atom     1 has atomic number  6 and mass  12.00000

 Molecular mass:   126.06808 amu.
 Principal axes and moments of inertia in atomic units:
                           1         2         3
     Eigenvalues --   683.209061006.882241173.83785
           X            0.99877  -0.03675  -0.03338
           Y            0.03799   0.99858   0.03734
           Z            0.03196  -0.03856   0.99874
 This molecule is an asymmetric top.
 Rotational symmetry number  1.
 Warning -- assumption of classical behavior for rotation
           may cause significant error
 Rotational temperatures (Kelvin)      0.12677     0.08602     0.07379
 Rotational constants (GHZ):           2.64157     1.79241     1.53747
 Zero-point vibrational energy     421972.1 (Joules/Mol)
                                  100.85376 (Kcal/Mol)
 Warning -- explicit consideration of  10 degrees of freedom as
           vibrations may cause significant error
 Vibrational temperatures:    255.69   300.41   388.65   436.47   513.25
          (Kelvin)            624.32   714.56   794.83   862.34   882.03
                             1025.33  1079.92  1172.23  1218.09  1240.42
                             1256.05  1277.74  1331.92  1348.76  1394.96
                             1423.73  1493.50  1531.97  1590.88  1614.65
                             1638.45  1661.88  1674.46  1730.63  1746.59
                             1800.56  1824.75  1842.60  1869.58  1904.36
                             1952.75  2038.71  2087.50  2124.68  2148.70
                             2163.57  4369.21  4395.44  4434.14  4467.12
                             4471.91  4483.92  4497.90  4514.35  4520.36
                             5366.23

 Zero-point correction=                           0.160721 (Hartree/Particle)
 Thermal correction to Energy=                    0.167925
 Thermal correction to Enthalpy=                  0.168869
 Thermal correction to Gibbs Free Energy=         0.129615
 Sum of electronic and zero-point Energies=           -422.992630
 Sum of electronic and thermal Energies=              -422.985426
 Sum of electronic and thermal Enthalpies=            -422.984482
 Sum of electronic and thermal Free Energies=         -423.023736

                     E (Thermal)             CV                S
                      KCal/Mol        Cal/Mol-Kelvin    Cal/Mol-Kelvin
 Total                  105.375             30.135             82.618
 Electronic               0.000              0.000              0.000
 Translational            0.889              2.981             40.409
 Rotational               0.889              2.981             28.181
 Vibrational            103.597             24.173             14.028
 Vibration     1          0.628              1.870              2.352
 Vibration     2          0.642              1.827              2.054
 Vibration     3          0.674              1.728              1.595
 Vibration     4          0.695              1.667              1.398
 Vibration     5          0.732              1.561              1.136
 Vibration     6          0.795              1.396              0.846
 Vibration     7          0.852              1.257              0.667
 Vibration     8          0.908              1.134              0.539
 Vibration     9          0.957              1.033              0.451
 Vibration    10          0.972              1.004              0.428

 Optimization completed.
    -- Stationary point found.
 Normal termination of Gaussian 09 at Mon Jan 27 23:54:55 2020.
