 Gaussian 09, Revision D.01,
 Gaussian 09:  ES64L-G09RevD.01 24-Apr-2013

 -----------------------------
 # b3lyp 6-31G(2df,p) opt Freq
 -----------------------------

 -----
 titel
 -----
 Symbolic Z-matrix:
 Charge =  0 Multiplicity = 1

 SCF Done:  E(RB3LYP) =  -423.207224973     A.U. after   14 cycles
 Optimization completed.
    -- Stationary point found.
 Normal termination of Gaussian 09 at Mon Jan 27 13:16:04 2020.

 ----------------------------------------------------------------------
 #N Geom=AllCheck Guess=TCheck SCRF=Check GenChk RB3LYP/6-31G(2df,p) Fr
 eq
 ----------------------------------------------------------------------

 Structure from the checkpoint file:  "/scratch/puck/g09_d6a845c8-61cb-4764-8895-a877de66853a/Gau-169531.chk"
 -----
 titel
 -----
 Charge =  0 Multiplicity = 1

                         Standard orientation:
 ---------------------------------------------------------------------
 Center     Atomic      Atomic             Coordinates (Angstroms)
 Number     Number       Type             X           Y           Z
 ---------------------------------------------------------------------
      1          8           0        2.997794   -0.489660    0.076277
      2          6           0        1.965611    0.107453   -0.108887
      3          6           0        0.606343   -0.537846   -0.054234
      4          6           0       -0.327928   -0.087131    1.111713
      5          6           0       -1.600603   -0.906848    0.792698
      6          6           0       -1.674880   -0.825547   -0.766547
      7          6           0       -0.403286   -0.024535   -1.106520
      8          8           0       -0.600931    1.344856   -0.729873
      9          6           0       -0.604644    1.371591    0.710834
     10          1           0        1.967474    1.193316   -0.345004
     11          1           0        0.737389   -1.622715   -0.065969
     12          1           0        0.064007   -0.211498    2.121456
     13          1           0       -1.493789   -1.939414    1.136309
     14          1           0       -2.483768   -0.486090    1.281457
     15          1           0       -1.663052   -1.814987   -1.232822
     16          1           0       -2.558284   -0.292894   -1.125710
     17          1           0       -0.096073   -0.043162   -2.152796
     18          1           0        0.164835    2.070330    1.060795
     19          1           0       -1.577324    1.722725    1.076713
 ---------------------------------------------------------------------

 SCF Done:  E(RB3LYP) =  -423.207224973     A.U. after    1 cycles

 The electronic state is 1-A.
 Alpha  occ. eigenvalues --  -19.14495 -19.13623 -10.26695 -10.24381 -10.23503
 Alpha  occ. eigenvalues --  -10.20886 -10.19880 -10.19534 -10.19042  -1.04675
 Alpha  occ. eigenvalues --   -1.04031  -0.84424  -0.75910  -0.74153  -0.64344
 Alpha  occ. eigenvalues --   -0.62255  -0.57385  -0.55466  -0.53054  -0.49492
 Alpha  occ. eigenvalues --   -0.47874  -0.43442  -0.42853  -0.41501  -0.40389
 Alpha  occ. eigenvalues --   -0.38971  -0.38645  -0.36873  -0.36295  -0.34360
 Alpha  occ. eigenvalues --   -0.33754  -0.30816  -0.25918  -0.24357
 Alpha virt. eigenvalues --   -0.02484   0.07532   0.09308   0.11406   0.12459
 Alpha virt. eigenvalues --    0.13501   0.14111   0.14432   0.14889   0.16321
 Alpha virt. eigenvalues --    0.17790   0.18640   0.19766   0.20298   0.21093

 Mulliken charges:
               1
     1  O   -0.263612
     2  C    0.134207
     3  C   -0.081303
     4  C   -0.059374
     5  C   -0.222405
     6  C   -0.221099
     7  C    0.084380
     8  O   -0.278852
     9  C   -0.085678
    10  H    0.093418
    11  H    0.092712
    12  H    0.083165
    13  H    0.106166
    14  H    0.105523
    15  H    0.105087
    16  H    0.114432
    17  H    0.084627
    18  H    0.105064
    19  H    0.103542
 Sum of Mulliken charges =   0.00000

 Dipole moment (field-independent basis, Debye):
    X=             -2.7188    Y=             -0.3755    Z=              0.6822  Tot=              2.8281
 Quadrupole moment (field-independent basis, Debye-Ang):
   XX=            -62.9175   YY=            -53.9230   ZZ=            -51.0177
   XY=              3.8408   XZ=             -1.5941   YZ=              2.8096

  Exact polarizability:  85.198   0.168  71.876  -0.479   2.126  67.509
 Approx polarizability: 121.314  -6.733 109.411   0.559   0.569 101.425

                      1                      2                      3
                      A                      A                      A
 Frequencies --     69.4676               165.4232               199.0180
 Red. masses --      4.0830                 5.0137                 2.1525
 Frc consts  --      0.0116                 0.0808                 0.0502
 IR Inten    --      7.1679                 4.0763                 2.6018

                      4                      5                      6
                      A                      A                      A
 Frequencies --    258.4992               363.7297               374.0681
 Red. masses --      2.1991                 3.9367                 2.0020
 Frc consts  --      0.0866                 0.3069                 0.1651
 IR Inten    --      1.7028                 1.0819                 2.2725

                      7                      8                      9
                      A                      A                      A
 Frequencies --    479.7154               507.1122               609.8250
 Red. masses --      3.8419                 3.6388                 4.5428
 Frc consts  --      0.5209                 0.5513                 0.9954
 IR Inten    --      9.7957                10.2175                 2.1270

                     10                     11                     12
                      A                      A                      A
 Frequencies --    752.0382               800.5830               834.8653
 Red. masses --      3.4919                 1.7162                 2.6349
 Frc consts  --      1.1636                 0.6481                 1.0820
 IR Inten    --      0.5086                 1.3349                 2.2517

                     13                     14                     15
                      A                      A                      A
 Frequencies --    858.4950               880.7191               907.8752
 Red. masses --      3.6808                 2.2467                 3.2906
 Frc consts  --      1.5983                 1.0268                 1.5980
 IR Inten    --      4.8556                12.4648                15.9755

                     16                     17                     18
                      A                      A                      A
 Frequencies --    943.0854               953.5682               970.5689
 Red. masses --      2.5352                 2.1480                 2.1837
 Frc consts  --      1.3285                 1.1507                 1.2120
 IR Inten    --      0.2115                 2.3398                10.1788

                     19                     20                     21
                      A                      A                      A
 Frequencies --    974.4664              1021.0254              1039.8264
 Red. masses --      1.8038                 1.8456                 4.7046
 Frc consts  --      1.0092                 1.1336                 2.9970
 IR Inten    --      0.6793                 2.5946                69.2703

                     22                     23                     24
                      A                      A                      A
 Frequencies --   1070.0513              1090.9016              1110.0573
 Red. masses --      1.8574                 1.7034                 1.6482
 Frc consts  --      1.2530                 1.1943                 1.1966
 IR Inten    --     17.3140                16.7934                12.5446

                     25                     26                     27
                      A                      A                      A
 Frequencies --   1156.5066              1183.4114              1206.4995
 Red. masses --      1.6227                 1.4348                 1.4079
 Frc consts  --      1.2787                 1.1839                 1.2075
 IR Inten    --      9.0597                20.7624                 4.2871

                     28                     29                     30
                      A                      A                      A
 Frequencies --   1228.3258              1234.5144              1268.3085
 Red. masses --      1.3051                 1.3787                 1.2781
 Frc consts  --      1.1601                 1.2380                 1.2113
 IR Inten    --      0.3991                10.6811                 0.4053

                     31                     32                     33
                      A                      A                      A
 Frequencies --   1299.7810              1308.1818              1317.1288
 Red. masses --      1.3869                 1.6028                 1.3394
 Frc consts  --      1.3805                 1.6161                 1.3690
 IR Inten    --      0.8236                 3.6457                 1.7450

                     34                     35                     36
                      A                      A                      A
 Frequencies --   1323.0859              1356.9698              1385.1566
 Red. masses --      1.5231                 1.4841                 1.3994
 Frc consts  --      1.5709                 1.6101                 1.5820
 IR Inten    --      3.4277                 2.0135                 2.4560

                     37                     38                     39
                      A                      A                      A
 Frequencies --   1432.2511              1481.7342              1502.0476
 Red. masses --      1.2508                 1.0819                 1.0980
 Frc consts  --      1.5118                 1.3995                 1.4596
 IR Inten    --      6.4737                 0.9257                 2.8774

                     40                     41                     42
                      A                      A                      A
 Frequencies --   1537.1298              1820.3365              2902.6730
 Red. masses --      1.0893                 9.9430                 1.0826
 Frc consts  --      1.5165                19.4120                 5.3744
 IR Inten    --      0.9632               205.7890                67.0003

                     43                     44                     45
                      A                      A                      A
 Frequencies --   3017.9798              3052.6576              3054.8757
 Red. masses --      1.0566                 1.0979                 1.0707
 Frc consts  --      5.6701                 6.0281                 5.8870
 IR Inten    --     65.0098                21.1704                34.3982

                     46                     47                     48
                      A                      A                      A
 Frequencies --   3064.1231              3090.2435              3095.1006
 Red. masses --      1.0621                 1.0860                 1.1053
 Frc consts  --      5.8751                 6.1104                 6.2388
 IR Inten    --     35.6842                 8.2336                 7.4635

                     49                     50                     51
                      A                      A                      A
 Frequencies --   3115.2356              3117.6205              3120.1020
 Red. masses --      1.0872                 1.1032                 1.0925
 Frc consts  --      6.2165                 6.3179                 6.2662
 IR Inten    --     49.4230                24.2891                11.2974

 - Thermochemistry -
 -------------------
 Temperature   298.150 Kelvin.  Pressure   1.00000 Atm.
 Atom     1 has atomic number  8 and mass  15.99491

 Molecular mass:   126.06808 amu.
 Principal axes and moments of inertia in atomic units:
                           1         2         3
     Eigenvalues --   614.459771331.679941404.28125
           X            0.99941   0.03421  -0.00414
           Y           -0.03320   0.98809   0.15028
           Z            0.00923  -0.15006   0.98863
 This molecule is an asymmetric top.
 Rotational symmetry number  1.
 Warning -- assumption of classical behavior for rotation
           may cause significant error
 Rotational temperatures (Kelvin)      0.14096     0.06504     0.06168
 Rotational constants (GHZ):           2.93712     1.35524     1.28517
 Zero-point vibrational energy     424117.8 (Joules/Mol)
                                  101.36660 (Kcal/Mol)
 Warning -- explicit consideration of   9 degrees of freedom as
           vibrations may cause significant error
 Vibrational temperatures:     99.95   238.01   286.34   371.92   523.33
          (Kelvin)            538.20   690.20   729.62   877.40  1082.01
                             1151.86  1201.18  1235.18  1267.16  1306.23
                             1356.89  1371.97  1396.43  1402.04  1469.03
                             1496.08  1539.56  1569.56  1597.12  1663.95
                             1702.66  1735.88  1767.28  1776.19  1824.81
                             1870.09  1882.18  1895.05  1903.62  1952.37
                             1992.93  2060.69  2131.88  2161.11  2211.58
                             2619.05  4176.29  4342.19  4392.09  4395.28
                             4408.58  4446.17  4453.15  4482.12  4485.55
                             4489.13

 Zero-point correction=                           0.161538 (Hartree/Particle)
 Thermal correction to Energy=                    0.169021
 Thermal correction to Enthalpy=                  0.169966
 Thermal correction to Gibbs Free Energy=         0.129253
 Sum of electronic and zero-point Energies=           -423.045687
 Sum of electronic and thermal Energies=              -423.038204
 Sum of electronic and thermal Enthalpies=            -423.037259
 Sum of electronic and thermal Free Energies=         -423.077972

                     E (Thermal)             CV                S
                      KCal/Mol        Cal/Mol-Kelvin    Cal/Mol-Kelvin
 Total                  106.063             29.148             85.687
 Electronic               0.000              0.000              0.000
 Translational            0.889              2.981             40.409
 Rotational               0.889              2.981             28.532
 Vibrational            104.285             23.186             16.747
 Vibration     1          0.598              1.969              4.168
 Vibration     2          0.624              1.885              2.487
 Vibration     3          0.637              1.841              2.142
 Vibration     4          0.667              1.748              1.672
 Vibration     5          0.737              1.547              1.106
 Vibration     6          0.745              1.525              1.063
 Vibration     7          0.836              1.295              0.711
 Vibration     8          0.862              1.234              0.641
 Vibration     9          0.969              1.011              0.433

 Optimization completed.
    -- Stationary point found.
 Normal termination of Gaussian 09 at Mon Jan 27 14:03:06 2020.
