 Gaussian 09, Revision D.01,
 Gaussian 09:  ES64L-G09RevD.01 24-Apr-2013

 -----------------------------
 # b3lyp 6-31G(2df,p) opt Freq
 -----------------------------

 -----
 titel
 -----
 Symbolic Z-matrix:
 Charge =  0 Multiplicity = 1

 SCF Done:  E(RB3LYP) =  -423.073688320     A.U. after   14 cycles
 SCF Done:  E(RB3LYP) =  -423.073688505     A.U. after    7 cycles
 Optimization completed.
    -- Stationary point found.
 Normal termination of Gaussian 09 at Mon Jan 27 15:37:53 2020.

 ----------------------------------------------------------------------
 #N Geom=AllCheck Guess=TCheck SCRF=Check GenChk RB3LYP/6-31G(2df,p) Fr
 eq
 ----------------------------------------------------------------------

 Structure from the checkpoint file:  "/scratch/puck/g09_2e1c864d-d891-4648-8239-f53ad0b94058/Gau-163007.chk"
 -----
 titel
 -----
 Charge =  0 Multiplicity = 1

                         Standard orientation:
 ---------------------------------------------------------------------
 Center     Atomic      Atomic             Coordinates (Angstroms)
 Number     Number       Type             X           Y           Z
 ---------------------------------------------------------------------
      1          6           0        2.092650   -1.272616   -0.065493
      2          6           0        1.349630    0.000215   -0.500948
      3          6           0        2.092597    1.272731   -0.064481
      4          6           0       -0.052994   -0.000032    0.029550
      5          8           0       -0.285264   -0.000771    1.478458
      6          6           0       -1.635761   -0.000480    0.945777
      7          6           0       -1.298237    0.909043   -0.273203
      8          8           0       -1.862270    0.000651   -1.260355
      9          6           0       -1.298262   -0.908763   -0.274132
     10          1           0        3.112520   -1.276565   -0.461589
     11          1           0        2.148138   -1.330913    1.025666
     12          1           0        1.586359   -2.173354   -0.425995
     13          1           0        1.254910    0.000647   -1.595604
     14          1           0        3.112479    1.277025   -0.460544
     15          1           0        1.586286    2.173733   -0.424295
     16          1           0        2.148059    1.330177    1.026725
     17          1           0       -2.479149   -0.000823    1.634967
     18          1           0       -1.393507    1.984309   -0.422272
     19          1           0       -1.393562   -1.983873   -0.424303
 ---------------------------------------------------------------------

 SCF Done:  E(RB3LYP) =  -423.073688505     A.U. after    1 cycles

 The electronic state is 1-A.
 Alpha  occ. eigenvalues --  -19.14100 -19.13883 -10.25150 -10.25105 -10.24954
 Alpha  occ. eigenvalues --  -10.24954 -10.20016 -10.17849 -10.17849  -1.09632
 Alpha  occ. eigenvalues --   -1.01816  -0.80763  -0.75398  -0.68996  -0.66603
 Alpha  occ. eigenvalues --   -0.66497  -0.59180  -0.53492  -0.49959  -0.47674
 Alpha  occ. eigenvalues --   -0.46726  -0.44215  -0.43511  -0.41030  -0.40549
 Alpha  occ. eigenvalues --   -0.38717  -0.37227  -0.35052  -0.34951  -0.33814
 Alpha  occ. eigenvalues --   -0.31193  -0.30571  -0.24327  -0.24219
 Alpha virt. eigenvalues --    0.05095   0.08906   0.09641   0.11289   0.11654
 Alpha virt. eigenvalues --    0.13193   0.14062   0.15404   0.15656   0.15915
 Alpha virt. eigenvalues --    0.17378   0.18165   0.18372   0.19343   0.19601

 Mulliken charges:
               1
     1  C   -0.393042
     2  C   -0.137908
     3  C   -0.393045
     4  C    0.477276
     5  O   -0.358959
     6  C    0.035364
     7  C   -0.020065
     8  O   -0.327722
     9  C   -0.020065
    10  H    0.113475
    11  H    0.136676
    12  H    0.115170
    13  H    0.096006
    14  H    0.113476
    15  H    0.115171
    16  H    0.136673
    17  H    0.104474
    18  H    0.103522
    19  H    0.103522
 Sum of Mulliken charges =   0.00000

 Dipole moment (field-independent basis, Debye):
    X=              0.5877    Y=              0.0000    Z=             -0.0450  Tot=              0.5894
 Quadrupole moment (field-independent basis, Debye-Ang):
   XX=            -52.3943   YY=            -49.8473   ZZ=            -58.1829
   XY=              0.0026   XZ=             -5.0157   YZ=              0.0044

  Exact polarizability:  83.339   0.001  73.940  -2.652   0.003  66.084
 Approx polarizability: 111.193   0.000 108.859   0.770   0.000 108.972

                      1                      2                      3
                      A                      A                      A
 Frequencies --     65.8002               158.9083               163.2623
 Red. masses --      3.2400                 2.9319                 2.9180
 Frc consts  --      0.0083                 0.0436                 0.0458
 IR Inten    --      0.0084                 0.3409                 0.0374

                      4                      5                      6
                      A                      A                      A
 Frequencies --    208.0017               239.5150               284.0109
 Red. masses --      1.0295                 1.2900                 2.5095
 Frc consts  --      0.0262                 0.0436                 0.1193
 IR Inten    --      0.0035                 0.4147                 0.4048

                      7                      8                      9
                      A                      A                      A
 Frequencies --    393.4318               413.6865               545.2341
 Red. masses --      3.3799                 2.5501                 4.1903
 Frc consts  --      0.3082                 0.2571                 0.7339
 IR Inten    --      3.4920                 1.8553                 4.3458

                     10                     11                     12
                      A                      A                      A
 Frequencies --    583.5486               639.7219               770.9746
 Red. masses --      3.6957                 3.1347                 2.8702
 Frc consts  --      0.7415                 0.7558                 1.0052
 IR Inten    --     15.2474                 2.0525                 4.1773

                     13                     14                     15
                      A                      A                      A
 Frequencies --    775.7045               808.1719               841.0470
 Red. masses --      3.2845                 4.1377                 6.9340
 Frc consts  --      1.1644                 1.5923                 2.8898
 IR Inten    --     16.2115                 7.4033                16.4669

                     16                     17                     18
                      A                      A                      A
 Frequencies --    857.9251               869.2899               909.8435
 Red. masses --      2.8062                 2.6186                 2.4989
 Frc consts  --      1.2169                 1.1659                 1.2188
 IR Inten    --      7.0476                 4.7819                 0.4342

                     19                     20                     21
                      A                      A                      A
 Frequencies --    931.8858               934.2600               972.1929
 Red. masses --      2.7602                 1.1915                 1.5433
 Frc consts  --      1.4122                 0.6127                 0.8594
 IR Inten    --     14.9043                 1.5551                 0.0122

                     22                     23                     24
                      A                      A                      A
 Frequencies --    992.6461              1033.3791              1090.7665
 Red. masses --      2.4398                 1.5184                 2.8931
 Frc consts  --      1.4164                 0.9553                 2.0280
 IR Inten    --     66.3467                 0.0511                 6.8559

                     25                     26                     27
                      A                      A                      A
 Frequencies --   1121.3541              1124.3022              1147.6977
 Red. masses --      1.6918                 1.9598                 1.6894
 Frc consts  --      1.2534                 1.4596                 1.3111
 IR Inten    --      0.0320                 8.5719                 0.0091

                     28                     29                     30
                      A                      A                      A
 Frequencies --   1167.1894              1178.8517              1186.8808
 Red. masses --      1.7546                 2.0171                 1.9834
 Frc consts  --      1.4084                 1.6516                 1.6462
 IR Inten    --      4.4920                 8.8961                 1.7275

                     31                     32                     33
                      A                      A                      A
 Frequencies --   1236.1093              1292.4071              1322.8079
 Red. masses --      1.8441                 2.0741                 1.5802
 Frc consts  --      1.6601                 2.0411                 1.6291
 IR Inten    --     22.5751                 9.2440                 4.4812

                     34                     35                     36
                      A                      A                      A
 Frequencies --   1337.0642              1397.5456              1406.8786
 Red. masses --      1.3548                 1.2307                 2.1313
 Frc consts  --      1.4270                 1.4162                 2.4854
 IR Inten    --      1.5554                 4.1951                 1.5443

                     37                     38                     39
                      A                      A                      A
 Frequencies --   1424.4564              1487.5993              1490.7723
 Red. masses --      1.4787                 1.0402                 1.0498
 Frc consts  --      1.7677                 1.3563                 1.3746
 IR Inten    --      2.4745                 0.7138                 1.3721

                     40                     41                     42
                      A                      A                      A
 Frequencies --   1501.0948              1514.6863              3019.5326
 Red. masses --      1.0433                 1.0938                 1.0823
 Frc consts  --      1.3851                 1.4785                 5.8138
 IR Inten    --      7.2808                 9.3958                10.9177

                     43                     44                     45
                      A                      A                      A
 Frequencies --   3037.1717              3040.6780              3106.9095
 Red. masses --      1.0342                 1.0350                 1.1022
 Frc consts  --      5.6205                 5.6379                 6.2684
 IR Inten    --     26.8738                14.2218                 8.5872

                     46                     47                     48
                      A                      A                      A
 Frequencies --   3109.7296              3114.1402              3118.5469
 Red. masses --      1.1014                 1.1023                 1.1015
 Frc consts  --      6.2755                 6.2983                 6.3119
 IR Inten    --     41.9618                 2.1776                33.5791

                     49                     50                     51
                      A                      A                      A
 Frequencies --   3122.8318              3125.1089              3142.7134
 Red. masses --      1.0889                 1.0913                 1.1022
 Frc consts  --      6.2565                 6.2797                 6.4138
 IR Inten    --     18.4286                65.3130                26.8917

 - Thermochemistry -
 -------------------
 Temperature   298.150 Kelvin.  Pressure   1.00000 Atm.
 Atom     1 has atomic number  6 and mass  12.00000

 Molecular mass:   126.06808 amu.
 Principal axes and moments of inertia in atomic units:
                           1         2         3
     Eigenvalues --   598.042861372.356151377.52411
           X            0.99977  -0.02159  -0.00009
           Y           -0.00001  -0.00460   0.99999
           Z            0.02159   0.99976   0.00460
 This molecule is an asymmetric top.
 Rotational symmetry number  1.
 Warning -- assumption of classical behavior for rotation
           may cause significant error
 Rotational temperatures (Kelvin)      0.14483     0.06311     0.06288
 Rotational constants (GHZ):           3.01775     1.31507     1.31013
 Zero-point vibrational energy     411265.8 (Joules/Mol)
                                   98.29488 (Kcal/Mol)
 Warning -- explicit consideration of  10 degrees of freedom as
           vibrations may cause significant error
 Vibrational temperatures:     94.67   228.63   234.90   299.27   344.61
          (Kelvin)            408.63   566.06   595.20   784.47   839.60
                              920.42  1109.26  1116.06  1162.78  1210.08
                             1234.36  1250.71  1309.06  1340.77  1344.19
                             1398.77  1428.19  1486.80  1569.37  1613.38
                             1617.62  1651.28  1679.32  1696.10  1707.65
                             1778.48  1859.48  1903.22  1923.73  2010.75
                             2024.18  2049.47  2140.32  2144.89  2159.74
                             2179.29  4344.43  4369.81  4374.85  4470.14
                             4474.20  4480.55  4486.89  4493.05  4496.33
                             4521.66

 Zero-point correction=                           0.156643 (Hartree/Particle)
 Thermal correction to Energy=                    0.165063
 Thermal correction to Enthalpy=                  0.166007
 Thermal correction to Gibbs Free Energy=         0.123545
 Sum of electronic and zero-point Energies=           -422.917046
 Sum of electronic and thermal Energies=              -422.908626
 Sum of electronic and thermal Enthalpies=            -422.907681
 Sum of electronic and thermal Free Energies=         -422.950144

                     E (Thermal)             CV                S
                      KCal/Mol        Cal/Mol-Kelvin    Cal/Mol-Kelvin
 Total                  103.578             32.292             89.370
 Electronic               0.000              0.000              0.000
 Translational            0.889              2.981             40.409
 Rotational               0.889              2.981             28.516
 Vibrational            101.801             26.331             20.446
 Vibration     1          0.597              1.971              4.275
 Vibration     2          0.621              1.893              2.563
 Vibration     3          0.623              1.888              2.512
 Vibration     4          0.641              1.828              2.061
 Vibration     5          0.657              1.780              1.806
 Vibration     6          0.682              1.703              1.509
 Vibration     7          0.761              1.484              0.987
 Vibration     8          0.777              1.441              0.914
 Vibration     9          0.900              1.150              0.554
 Vibration    10          0.940              1.067              0.479

 Optimization completed.
    -- Stationary point found.
 Normal termination of Gaussian 09 at Mon Jan 27 16:20:33 2020.
