 Gaussian 09, Revision D.01,
 Gaussian 09:  ES64L-G09RevD.01 24-Apr-2013

 -----------------------------
 # b3lyp 6-31G(2df,p) opt Freq
 -----------------------------

 -----
 titel
 -----
 Symbolic Z-matrix:
 Charge =  0 Multiplicity = 1

 SCF Done:  E(RB3LYP) =  -423.151177997     A.U. after   14 cycles
 SCF Done:  E(RB3LYP) =  -423.151178615     A.U. after    7 cycles
 SCF Done:  E(RB3LYP) =  -423.151177149     A.U. after    7 cycles
 SCF Done:  E(RB3LYP) =  -423.151178756     A.U. after    7 cycles
 Optimization completed.
    -- Stationary point found.
 Normal termination of Gaussian 09 at Mon Jan 27 17:10:40 2020.

 ----------------------------------------------------------------------
 #N Geom=AllCheck Guess=TCheck SCRF=Check GenChk RB3LYP/6-31G(2df,p) Fr
 eq
 ----------------------------------------------------------------------

 Structure from the checkpoint file:  "/scratch/puck/g09_dbb45758-1ccc-4a9b-b9a1-66288c536201/Gau-41694.chk"
 -----
 titel
 -----
 Charge =  0 Multiplicity = 1

                         Standard orientation:
 ---------------------------------------------------------------------
 Center     Atomic      Atomic             Coordinates (Angstroms)
 Number     Number       Type             X           Y           Z
 ---------------------------------------------------------------------
      1          6           0       -1.683901   -1.580961   -0.000065
      2          6           0       -0.671330   -0.420107   -0.000008
      3          6           0        0.255757   -0.520730   -1.238422
      4          8           0        1.317294    0.411594   -1.168341
      5          6           0        2.073696    0.236469   -0.000005
      6          8           0        1.317321    0.411463    1.168368
      7          6           0        0.255787   -0.520872    1.238370
      8          6           0       -1.377328    0.861393    0.000077
      9          6           0       -1.992112    1.893984    0.000114
     10          1           0       -1.166855   -2.546358   -0.000127
     11          1           0       -2.326467   -1.532830    0.883504
     12          1           0       -2.326484   -1.532727   -0.883617
     13          1           0        0.653921   -1.548834   -1.293554
     14          1           0       -0.294497   -0.309206   -2.157927
     15          1           0        2.531222   -0.773080   -0.000066
     16          1           0        2.847609    1.005616    0.000030
     17          1           0        0.653955   -1.548982    1.293373
     18          1           0       -0.294443   -0.309455    2.157915
     19          1           0       -2.518300    2.816343   -0.000118
 ---------------------------------------------------------------------

 SCF Done:  E(RB3LYP) =  -423.151178756     A.U. after    1 cycles

 The electronic state is 1-A.
 Alpha  occ. eigenvalues --  -19.14905 -19.14905 -10.27484 -10.23828 -10.23828
 Alpha  occ. eigenvalues --  -10.22193 -10.19083 -10.17635 -10.16875  -1.07937
 Alpha  occ. eigenvalues --   -1.01165  -0.83637  -0.73252  -0.71741  -0.68421
 Alpha  occ. eigenvalues --   -0.64797  -0.60126  -0.52815  -0.51088  -0.50512
 Alpha  occ. eigenvalues --   -0.48931  -0.46058  -0.44173  -0.42726  -0.41123
 Alpha  occ. eigenvalues --   -0.39167  -0.38650  -0.38259  -0.33363  -0.32129
 Alpha  occ. eigenvalues --   -0.28334  -0.27261  -0.26220  -0.25017
 Alpha virt. eigenvalues --    0.05562   0.05651   0.08238   0.10452   0.11766
 Alpha virt. eigenvalues --    0.12537   0.13451   0.14616   0.14701   0.16189
 Alpha virt. eigenvalues --    0.16300   0.18468   0.20397   0.20647   0.21861

 Mulliken charges:
               1
     1  C   -0.430595
     2  C    0.013004
     3  C   -0.094931
     4  O   -0.232596
     5  C    0.017928
     6  O   -0.232597
     7  C   -0.094934
     8  C    0.379121
     9  C   -0.508380
    10  H    0.115996
    11  H    0.131760
    12  H    0.131760
    13  H    0.085786
    14  H    0.120710
    15  H    0.073376
    16  H    0.121486
    17  H    0.085784
    18  H    0.120711
    19  H    0.196611
 Sum of Mulliken charges =   0.00000

 Dipole moment (field-independent basis, Debye):
    X=             -0.5365    Y=             -1.9197    Z=             -0.0004  Tot=              1.9932
 Quadrupole moment (field-independent basis, Debye-Ang):
   XX=            -51.1691   YY=            -50.4349   ZZ=            -55.1973
   XY=             -2.1962   XZ=              0.0006   YZ=             -0.0006

  Exact polarizability:  82.426  -7.916  83.473   0.000   0.001  63.927
 Approx polarizability: 110.856 -17.376 130.411  -0.001   0.002  94.842

                      1                      2                      3
                      A                      A                      A
 Frequencies --    115.7669               143.2624               205.5908
 Red. masses --      4.0272                 4.6862                 2.5684
 Frc consts  --      0.0318                 0.0567                 0.0640
 IR Inten    --      0.6533                 1.3075                 0.0039

                      4                      5                      6
                      A                      A                      A
 Frequencies --    218.7825               275.5673               288.1511
 Red. masses --      1.0579                 3.0810                 2.3197
 Frc consts  --      0.0298                 0.1378                 0.1135
 IR Inten    --      0.0076                 0.1382                 0.0000

                      7                      8                      9
                      A                      A                      A
 Frequencies --    348.3796               413.6598               440.7925
 Red. masses --      2.8005                 4.1074                 1.8655
 Frc consts  --      0.2003                 0.4141                 0.2136
 IR Inten    --      3.0594                 0.6536                 8.0429

                     10                     11                     12
                      A                      A                      A
 Frequencies --    455.9520               576.3340               585.3621
 Red. masses --      4.8826                 5.0704                 5.2407
 Frc consts  --      0.5981                 0.9923                 1.0580
 IR Inten    --      1.4473                 2.8510                 8.5530

                     13                     14                     15
                      A                      A                      A
 Frequencies --    632.2144               634.5878               654.3752
 Red. masses --      1.2369                 1.2098                 5.4283
 Frc consts  --      0.2913                 0.2870                 1.3695
 IR Inten    --     40.3331                45.1996                 6.5186

                     16                     17                     18
                      A                      A                      A
 Frequencies --    756.1149               900.7256               911.0029
 Red. masses --      3.7430                 1.9450                 2.1198
 Frc consts  --      1.2608                 0.9297                 1.0365
 IR Inten    --     10.3646                 0.3338                 6.7815

                     19                     20                     21
                      A                      A                      A
 Frequencies --    957.1110               962.5562              1019.3162
 Red. masses --      2.5541                 4.1687                 1.6648
 Frc consts  --      1.3785                 2.2757                 1.0192
 IR Inten    --     44.1284                25.8263                18.2343

                     22                     23                     24
                      A                      A                      A
 Frequencies --   1034.6950              1067.7746              1110.5733
 Red. masses --      1.6595                10.0047                 2.9735
 Frc consts  --      1.0468                 6.7207                 2.1608
 IR Inten    --     11.3115                78.4833                43.9943

                     25                     26                     27
                      A                      A                      A
 Frequencies --   1147.8240              1199.3648              1212.5380
 Red. masses --      2.9292                 3.2981                 2.5201
 Frc consts  --      2.2738                 2.7952                 2.1830
 IR Inten    --     13.7642               167.8564                 6.6351

                     28                     29                     30
                      A                      A                      A
 Frequencies --   1249.7433              1258.5601              1337.6892
 Red. masses --      2.4218                 1.1583                 1.1506
 Frc consts  --      2.2286                 1.0809                 1.2130
 IR Inten    --      3.2246                 3.4229                 0.4699

                     31                     32                     33
                      A                      A                      A
 Frequencies --   1340.5474              1372.8820              1395.3865
 Red. masses --      1.4097                 1.2149                 1.2752
 Frc consts  --      1.4925                 1.3491                 1.4629
 IR Inten    --     14.9437                 2.0060                 5.6759

                     34                     35                     36
                      A                      A                      A
 Frequencies --   1420.4880              1442.8488              1485.9038
 Red. masses --      1.2500                 1.1989                 1.0890
 Frc consts  --      1.4860                 1.4706                 1.4166
 IR Inten    --     19.4112                 8.7605                 0.9040

                     37                     38                     39
                      A                      A                      A
 Frequencies --   1490.2093              1492.7500              1498.6603
 Red. masses --      1.0724                 1.0613                 1.0613
 Frc consts  --      1.4032                 1.3934                 1.4045
 IR Inten    --      0.5230                10.1921                 2.3906

                     40                     41                     42
                      A                      A                      A
 Frequencies --   1507.5736              2235.4547              2906.0133
 Red. masses --      1.1107                 5.9264                 1.0703
 Frc consts  --      1.4873                17.4490                 5.3255
 IR Inten    --      5.3347                 1.6709                79.3249

                     43                     44                     45
                      A                      A                      A
 Frequencies --   2953.0783              2963.4432              3037.3476
 Red. masses --      1.0696                 1.0703                 1.0350
 Frc consts  --      5.4959                 5.5381                 5.6259
 IR Inten    --     13.1273               101.0285                24.2479

                     46                     47                     48
                      A                      A                      A
 Frequencies --   3102.8819              3103.6351              3110.8312
 Red. masses --      1.0923                 1.0943                 1.1002
 Frc consts  --      6.1962                 6.2103                 6.2727
 IR Inten    --     24.7833                 5.5619                33.2704

                     49                     50                     51
                      A                      A                      A
 Frequencies --   3118.7896              3122.0851              3502.6341
 Red. masses --      1.1022                 1.0933                 1.1620
 Frc consts  --      6.3167                 6.2788                 8.3992
 IR Inten    --     17.5050                28.6796                66.0807

 - Thermochemistry -
 -------------------
 Temperature   298.150 Kelvin.  Pressure   1.00000 Atm.
 Atom     1 has atomic number  6 and mass  12.00000

 Molecular mass:   126.06808 amu.
 Principal axes and moments of inertia in atomic units:
                           1         2         3
     Eigenvalues --   775.052961241.478611339.40925
           X            0.99986   0.01663   0.00000
           Y           -0.01663   0.99986  -0.00001
           Z            0.00000   0.00001   1.00000
 This molecule is an asymmetric top.
 Rotational symmetry number  1.
 Warning -- assumption of classical behavior for rotation
           may cause significant error
 Rotational temperatures (Kelvin)      0.11175     0.06977     0.06467
 Rotational constants (GHZ):           2.32854     1.45370     1.34742
 Zero-point vibrational energy     417005.1 (Joules/Mol)
                                   99.66661 (Kcal/Mol)
 Warning -- explicit consideration of  12 degrees of freedom as
           vibrations may cause significant error
 Vibrational temperatures:    166.56   206.12   295.80   314.78   396.48
          (Kelvin)            414.58   501.24   595.16   634.20   656.01
                              829.22   842.20   909.61   913.03   941.50
                             1087.88  1295.94  1310.73  1377.07  1384.90
                             1466.57  1488.69  1536.29  1597.87  1651.46
                             1725.62  1744.57  1798.10  1810.78  1924.63
                             1928.75  1975.27  2007.65  2043.76  2075.93
                             2137.88  2144.08  2147.73  2156.24  2169.06
                             3216.32  4181.10  4248.82  4263.73  4370.06
                             4464.35  4465.43  4475.79  4487.24  4491.98
                             5039.50

 Zero-point correction=                           0.158829 (Hartree/Particle)
 Thermal correction to Energy=                    0.167497
 Thermal correction to Enthalpy=                  0.168441
 Thermal correction to Gibbs Free Energy=         0.126008
 Sum of electronic and zero-point Energies=           -422.992350
 Sum of electronic and thermal Energies=              -422.983682
 Sum of electronic and thermal Enthalpies=            -422.982737
 Sum of electronic and thermal Free Energies=         -423.025170

                     E (Thermal)             CV                S
                      KCal/Mol        Cal/Mol-Kelvin    Cal/Mol-Kelvin
 Total                  105.106             33.486             89.308
 Electronic               0.000              0.000              0.000
 Translational            0.889              2.981             40.409
 Rotational               0.889              2.981             28.646
 Vibrational            103.329             27.524             20.253
 Vibration     1          0.608              1.936              3.170
 Vibration     2          0.616              1.910              2.760
 Vibration     3          0.640              1.832              2.082
 Vibration     4          0.647              1.812              1.969
 Vibration     5          0.677              1.719              1.561
 Vibration     6          0.685              1.696              1.485
 Vibration     7          0.726              1.579              1.174
 Vibration     8          0.777              1.441              0.914
 Vibration     9          0.801              1.381              0.824
 Vibration    10          0.814              1.348              0.778
 Vibration    11          0.933              1.082              0.492
 Vibration    12          0.942              1.063              0.476

 Optimization completed.
    -- Stationary point found.
 Normal termination of Gaussian 09 at Mon Jan 27 17:52:37 2020.
