 Gaussian 09, Revision D.01,
 Gaussian 09:  ES64L-G09RevD.01 24-Apr-2013

 -----------------------------
 # b3lyp 6-31G(2df,p) opt Freq
 -----------------------------

 -----
 titel
 -----
 Symbolic Z-matrix:
 Charge =  0 Multiplicity = 1

 SCF Done:  E(RB3LYP) =  -423.173833501     A.U. after   13 cycles
 Optimization completed.
    -- Stationary point found.
 Normal termination of Gaussian 09 at Tue Jan 28 00:02:52 2020.

 ----------------------------------------------------------------------
 #N Geom=AllCheck Guess=TCheck SCRF=Check GenChk RB3LYP/6-31G(2df,p) Fr
 eq
 ----------------------------------------------------------------------

 Structure from the checkpoint file:  "/scratch/puck/g09_7c1ad87d-3970-4e84-8d50-d29f5ee6101c/Gau-116683.chk"
 -----
 titel
 -----
 Charge =  0 Multiplicity = 1

                         Standard orientation:
 ---------------------------------------------------------------------
 Center     Atomic      Atomic             Coordinates (Angstroms)
 Number     Number       Type             X           Y           Z
 ---------------------------------------------------------------------
      1          8           0        2.401305   -0.151676   -0.151726
      2          6           0        1.149357   -0.357764    0.499406
      3          6           0        0.603075   -1.750468    0.281909
      4          6           0       -0.602974   -1.750508   -0.281854
      5          6           0       -1.149319   -0.357838   -0.499417
      6          8           0       -2.401303   -0.151786    0.151652
      7          6           0       -0.000012    0.541004    0.000001
      8          6           0        0.314867    1.849353   -0.682156
      9          6           0       -0.314982    1.849314    0.682195
     10          1           0        2.262146   -0.312646   -1.092250
     11          1           0        1.379639   -0.174376    1.555920
     12          1           0        1.186449   -2.627117    0.542118
     13          1           0       -1.186306   -2.627194   -0.542032
     14          1           0       -1.379562   -0.174503   -1.555949
     15          1           0       -2.262177   -0.312720    1.092187
     16          1           0        1.361782    2.120344   -0.762685
     17          1           0       -0.300322    2.138564   -1.528565
     18          1           0        0.300182    2.138543    1.528615
     19          1           0       -1.361915    2.120234    0.762724
 ---------------------------------------------------------------------

 SCF Done:  E(RB3LYP) =  -423.173833501     A.U. after    1 cycles

 The electronic state is 1-A.
 Alpha  occ. eigenvalues --  -19.13744 -19.13744 -10.23597 -10.23596 -10.19185
 Alpha  occ. eigenvalues --  -10.18931 -10.18841 -10.18460 -10.18434  -1.02088
 Alpha  occ. eigenvalues --   -1.01644  -0.86483  -0.81008  -0.69311  -0.66528
 Alpha  occ. eigenvalues --   -0.60025  -0.57086  -0.56141  -0.51067  -0.49584
 Alpha  occ. eigenvalues --   -0.45314  -0.44651  -0.44152  -0.43552  -0.42077
 Alpha  occ. eigenvalues --   -0.37104  -0.36451  -0.35104  -0.31625  -0.30118
 Alpha  occ. eigenvalues --   -0.29109  -0.27478  -0.27409  -0.25200
 Alpha virt. eigenvalues --   -0.00110   0.08399   0.09697   0.10163   0.11667
 Alpha virt. eigenvalues --    0.12030   0.12198   0.15325   0.16450   0.17788
 Alpha virt. eigenvalues --    0.18674   0.20104   0.21348   0.23476   0.23666

 Mulliken charges:
               1
     1  O   -0.422464
     2  C    0.004032
     3  C   -0.111434
     4  C   -0.111436
     5  C    0.004034
     6  O   -0.422463
     7  C    0.270132
     8  C   -0.312642
     9  C   -0.312643
    10  H    0.275662
    11  H    0.091217
    12  H    0.105933
    13  H    0.105933
    14  H    0.091218
    15  H    0.275662
    16  H    0.122606
    17  H    0.112024
    18  H    0.112023
    19  H    0.122605
 Sum of Mulliken charges =   0.00000

 Dipole moment (field-independent basis, Debye):
    X=              0.0000    Y=             -0.8065    Z=              0.0001  Tot=              0.8065
 Quadrupole moment (field-independent basis, Debye-Ang):
   XX=            -61.5622   YY=            -51.8870   ZZ=            -48.2883
   XY=             -0.0002   XZ=             -2.9736   YZ=              0.0000

  Exact polarizability:  82.028   0.000  81.199   3.566   0.000  65.572
 Approx polarizability: 128.492   0.001 108.179   8.844   0.000 105.160

                      1                      2                      3
                      A                      A                      A
 Frequencies --     44.6355               180.9783               244.2437
 Red. masses --      4.5245                 3.5178                 3.6456
 Frc consts  --      0.0053                 0.0679                 0.1281
 IR Inten    --      2.0725                 0.1511                 1.2293

                      4                      5                      6
                      A                      A                      A
 Frequencies --    263.1005               286.1042               335.5092
 Red. masses --      2.0433                 2.6537                 1.1666
 Frc consts  --      0.0833                 0.1280                 0.0774
 IR Inten    --      3.0959                 3.4809                10.7266

                      7                      8                      9
                      A                      A                      A
 Frequencies --    336.2426               387.7022               447.9000
 Red. masses --      2.1078                 1.7759                 2.7558
 Frc consts  --      0.1404                 0.1573                 0.3257
 IR Inten    --     28.8731               162.9464                 0.9531

                     10                     11                     12
                      A                      A                      A
 Frequencies --    485.3469               598.6050               604.3081
 Red. masses --      4.3885                 4.2490                 3.4380
 Frc consts  --      0.6091                 0.8971                 0.7397
 IR Inten    --      3.2528                 1.6206                 2.3885

                     13                     14                     15
                      A                      A                      A
 Frequencies --    736.7996               788.5413               791.7616
 Red. masses --      3.4377                 3.0559                 1.1879
 Frc consts  --      1.0996                 1.1195                 0.4387
 IR Inten    --      5.2631                 1.8941                 2.2617

                     16                     17                     18
                      A                      A                      A
 Frequencies --    811.6654               887.6977               950.4549
 Red. masses --      1.3957                 2.1730                 1.5994
 Frc consts  --      0.5417                 1.0089                 0.8513
 IR Inten    --     18.1004                52.6419                 0.4705

                     19                     20                     21
                      A                      A                      A
 Frequencies --    953.9851               967.0474               986.5483
 Red. masses --      3.5986                 2.1751                 1.4173
 Frc consts  --      1.9296                 1.1985                 0.8127
 IR Inten    --      6.6047                 4.1008                 9.1156

                     22                     23                     24
                      A                      A                      A
 Frequencies --   1010.1013              1031.3274              1049.7625
 Red. masses --      2.7610                 1.9758                 1.4514
 Frc consts  --      1.6597                 1.2382                 0.9424
 IR Inten    --     13.5131                15.5054                 9.1364

                     25                     26                     27
                      A                      A                      A
 Frequencies --   1058.0793              1079.1507              1088.2335
 Red. masses --      4.3332                 1.8124                 1.3767
 Frc consts  --      2.8582                 1.2435                 0.9605
 IR Inten    --    193.4821                 0.3688                 0.0370

                     28                     29                     30
                      A                      A                      A
 Frequencies --   1138.8281              1200.8245              1255.1084
 Red. masses --      1.3972                 1.2752                 3.0539
 Frc consts  --      1.0677                 1.0834                 2.8345
 IR Inten    --      0.0394                 0.1428                 1.9421

                     31                     32                     33
                      A                      A                      A
 Frequencies --   1262.3489              1265.6491              1271.5948
 Red. masses --      1.3032                 1.5646                 1.3734
 Frc consts  --      1.2236                 1.4767                 1.3084
 IR Inten    --     19.5833                 0.7085                 2.3039

                     34                     35                     36
                      A                      A                      A
 Frequencies --   1284.2672              1365.4641              1367.6417
 Red. masses --      1.3505                 1.6523                 2.6260
 Frc consts  --      1.3124                 1.8151                 2.8939
 IR Inten    --     11.8363                 3.7826                20.2301

                     37                     38                     39
                      A                      A                      A
 Frequencies --   1430.4309              1433.6216              1460.7810
 Red. masses --      1.2361                 1.1933                 1.0863
 Frc consts  --      1.4901                 1.4450                 1.3658
 IR Inten    --    123.0042                 0.4276                 1.8043

                     40                     41                     42
                      A                      A                      A
 Frequencies --   1494.5692              1684.9278              3032.9373
 Red. masses --      1.3612                 6.6386                 1.0840
 Frc consts  --      1.7915                11.1042                 5.8751
 IR Inten    --      0.0116                 0.6574                 1.3458

                     43                     44                     45
                      A                      A                      A
 Frequencies --   3032.9579              3125.6351              3127.0898
 Red. masses --      1.0843                 1.0498                 1.0580
 Frc consts  --      5.8768                 6.0427                 6.0954
 IR Inten    --     59.4478                18.2370                12.1112

                     46                     47                     48
                      A                      A                      A
 Frequencies --   3182.5367              3207.3782              3209.0278
 Red. masses --      1.0847                 1.1050                 1.1175
 Frc consts  --      6.4729                 6.6974                 6.7800
 IR Inten    --      6.1517                18.3930                 0.0116

                     49                     50                     51
                      A                      A                      A
 Frequencies --   3222.9437              3793.4091              3793.9150
 Red. masses --      1.1154                 1.0659                 1.0658
 Frc consts  --      6.8261                 9.0370                 9.0387
 IR Inten    --      8.8429                27.4009                 1.0791

 - Thermochemistry -
 -------------------
 Temperature   298.150 Kelvin.  Pressure   1.00000 Atm.
 Atom     1 has atomic number  8 and mass  15.99491

 Molecular mass:   126.06808 amu.
 Principal axes and moments of inertia in atomic units:
                           1         2         3
     Eigenvalues --   817.444461006.102751583.89120
           X            1.00000  -0.00001  -0.00243
           Y            0.00001   1.00000   0.00000
           Z            0.00243   0.00000   1.00000
 This molecule is an asymmetric top.
 Rotational symmetry number  1.
 Warning -- assumption of classical behavior for rotation
           may cause significant error
 Rotational temperatures (Kelvin)      0.10596     0.08609     0.05468
 Rotational constants (GHZ):           2.20778     1.79379     1.13944
 Zero-point vibrational energy     418990.4 (Joules/Mol)
                                  100.14110 (Kcal/Mol)
 Warning -- explicit consideration of  12 degrees of freedom as
           vibrations may cause significant error
 Vibrational temperatures:     64.22   260.39   351.41   378.54   411.64
          (Kelvin)            482.72   483.78   557.82   644.43   698.31
                              861.26   869.46  1060.09  1134.53  1139.17
                             1167.80  1277.20  1367.49  1372.57  1391.36
                             1419.42  1453.31  1483.85  1510.37  1522.34
                             1552.66  1565.72  1638.52  1727.72  1805.82
                             1816.24  1820.98  1829.54  1847.77  1964.60
                             1967.73  2058.07  2062.66  2101.74  2150.35
                             2424.23  4363.71  4363.74  4497.09  4499.18
                             4578.95  4614.70  4617.07  4637.09  5457.86
                             5458.59

 Zero-point correction=                           0.159585 (Hartree/Particle)
 Thermal correction to Energy=                    0.168039
 Thermal correction to Enthalpy=                  0.168983
 Thermal correction to Gibbs Free Energy=         0.126467
 Sum of electronic and zero-point Energies=           -423.014248
 Sum of electronic and thermal Energies=              -423.005795
 Sum of electronic and thermal Enthalpies=            -423.004850
 Sum of electronic and thermal Free Energies=         -423.047367

                     E (Thermal)             CV                S
                      KCal/Mol        Cal/Mol-Kelvin    Cal/Mol-Kelvin
 Total                  105.446             33.191             89.483
 Electronic               0.000              0.000              0.000
 Translational            0.889              2.981             40.409
 Rotational               0.889              2.981             28.656
 Vibrational            103.669             27.230             20.419
 Vibration     1          0.595              1.980              5.042
 Vibration     2          0.630              1.866              2.318
 Vibration     3          0.660              1.772              1.772
 Vibration     4          0.670              1.740              1.641
 Vibration     5          0.684              1.699              1.497
 Vibration     6          0.717              1.605              1.233
 Vibration     7          0.717              1.603              1.230
 Vibration     8          0.756              1.496              1.009
 Vibration     9          0.807              1.366              0.802
 Vibration    10          0.841              1.283              0.696
 Vibration    11          0.957              1.035              0.452
 Vibration    12          0.963              1.023              0.442

 Optimization completed.
    -- Stationary point found.
 Normal termination of Gaussian 09 at Tue Jan 28 00:58:00 2020.
