 Gaussian 09, Revision D.01,
 Gaussian 09:  ES64L-G09RevD.01 24-Apr-2013

 -----------------------------
 # b3lyp 6-31G(2df,p) opt Freq
 -----------------------------

 -----
 titel
 -----
 Symbolic Z-matrix:
 Charge =  0 Multiplicity = 1

 SCF Done:  E(RB3LYP) =  -423.145341753     A.U. after   14 cycles
 Optimization completed.
    -- Stationary point found.
 Normal termination of Gaussian 09 at Mon Jan 27 17:27:43 2020.

 ----------------------------------------------------------------------
 #N Geom=AllCheck Guess=TCheck SCRF=Check GenChk RB3LYP/6-31G(2df,p) Fr
 eq
 ----------------------------------------------------------------------

 Structure from the checkpoint file:  "/scratch/puck/g09_c84eb7d0-2555-47ec-96dd-468342534af1/Gau-79099.chk"
 -----
 titel
 -----
 Charge =  0 Multiplicity = 1

                         Standard orientation:
 ---------------------------------------------------------------------
 Center     Atomic      Atomic             Coordinates (Angstroms)
 Number     Number       Type             X           Y           Z
 ---------------------------------------------------------------------
      1          6           0        2.549167    0.115263   -0.514889
      2          6           0        1.169385   -0.052539    0.045437
      3          8           0        0.897867   -1.262987    0.784113
      4          6           0        0.122841   -0.973935   -0.393831
      5          6           0       -1.153362   -0.119265   -0.159945
      6          8           0       -2.387070   -0.624539   -0.559151
      7          6           0       -0.667092    1.235775   -0.763223
      8          6           0        0.304139    1.167748    0.467457
      9          6           0       -0.877934    0.515145    1.235921
     10          1           0        2.914648   -0.825807   -0.933350
     11          1           0        2.556685    0.877169   -1.301638
     12          1           0        3.247721    0.436623    0.265983
     13          1           0        0.191258   -1.678528   -1.217605
     14          1           0       -2.555038   -1.437932   -0.070950
     15          1           0       -0.229667    1.217745   -1.765958
     16          1           0       -1.417440    2.026031   -0.685254
     17          1           0        0.818869    2.050225    0.843901
     18          1           0       -0.648656   -0.140290    2.073962
     19          1           0       -1.647615    1.245815    1.489655
 ---------------------------------------------------------------------

 SCF Done:  E(RB3LYP) =  -423.145341753     A.U. after    1 cycles

 The electronic state is 1-A.
 Alpha  occ. eigenvalues --  -19.14500 -19.14436 -10.24419 -10.23746 -10.22604
 Alpha  occ. eigenvalues --  -10.19753 -10.18709 -10.18549 -10.17783  -1.06859
 Alpha  occ. eigenvalues --   -1.02864  -0.86706  -0.74764  -0.68235  -0.65546
 Alpha  occ. eigenvalues --   -0.64559  -0.56510  -0.54113  -0.52825  -0.48821
 Alpha  occ. eigenvalues --   -0.45785  -0.43517  -0.43050  -0.41451  -0.39216
 Alpha  occ. eigenvalues --   -0.38551  -0.36664  -0.35305  -0.34604  -0.32800
 Alpha  occ. eigenvalues --   -0.31043  -0.28464  -0.27422  -0.24006
 Alpha virt. eigenvalues --    0.07052   0.09941   0.09983   0.11272   0.12070
 Alpha virt. eigenvalues --    0.13334   0.14721   0.14864   0.15934   0.16699
 Alpha virt. eigenvalues --    0.17734   0.20330   0.21432   0.21697   0.21904

 Mulliken charges:
               1
     1  C   -0.491141
     2  C    0.441942
     3  O   -0.303202
     4  C   -0.125219
     5  C    0.384251
     6  O   -0.484676
     7  C   -0.257089
     8  C   -0.120991
     9  C   -0.288700
    10  H    0.130931
    11  H    0.125901
    12  H    0.128612
    13  H    0.098268
    14  H    0.282815
    15  H    0.094485
    16  H    0.104491
    17  H    0.066953
    18  H    0.113645
    19  H    0.098723
 Sum of Mulliken charges =   0.00000

 Dipole moment (field-independent basis, Debye):
    X=              0.4313    Y=              0.5049    Z=             -0.4028  Tot=              0.7766
 Quadrupole moment (field-independent basis, Debye-Ang):
   XX=            -53.7223   YY=            -51.1784   ZZ=            -54.2160
   XY=              3.8438   XZ=             -4.2175   YZ=              1.6959

  Exact polarizability:  82.308   1.366  72.507  -1.360   0.923  66.938
 Approx polarizability: 112.300   3.725 112.075   3.674  -2.021 104.846

                      1                      2                      3
                      A                      A                      A
 Frequencies --    178.6737               204.7188               240.8177
 Red. masses --      2.4536                 1.1505                 1.7703
 Frc consts  --      0.0462                 0.0284                 0.0605
 IR Inten    --      1.4842                 0.2275                24.5807

                      4                      5                      6
                      A                      A                      A
 Frequencies --    282.0299               318.1580               383.0992
 Red. masses --      1.4321                 3.5115                 3.4297
 Frc consts  --      0.0671                 0.2094                 0.2966
 IR Inten    --     64.7321                10.2996                 9.3932

                      7                      8                      9
                      A                      A                      A
 Frequencies --    438.4720               471.2756               524.8251
 Red. masses --      3.5641                 3.2929                 2.1917
 Frc consts  --      0.4037                 0.4309                 0.3557
 IR Inten    --     13.5925                 1.3173                 3.0986

                     10                     11                     12
                      A                      A                      A
 Frequencies --    552.7103               593.0881               641.5832
 Red. masses --      4.3234                 3.3938                 3.4526
 Frc consts  --      0.7782                 0.7034                 0.8373
 IR Inten    --      5.3833                 8.3499                 0.3054

                     13                     14                     15
                      A                      A                      A
 Frequencies --    726.2445               810.9103               843.1967
 Red. masses --      3.6984                 3.9607                 2.8255
 Frc consts  --      1.1493                 1.5345                 1.1836
 IR Inten    --      3.1690                 5.5496                 7.7862

                     16                     17                     18
                      A                      A                      A
 Frequencies --    855.4610               894.5086               925.2668
 Red. masses --      2.6262                 2.3119                 2.3453
 Frc consts  --      1.1323                 1.0899                 1.1830
 IR Inten    --      2.1424                18.0930                13.9103

                     19                     20                     21
                      A                      A                      A
 Frequencies --    949.5113               979.6770               999.3222
 Red. masses --      2.3161                 2.0121                 1.5813
 Frc consts  --      1.2303                 1.1378                 0.9304
 IR Inten    --      2.4156                 2.9079                 6.3419

                     22                     23                     24
                      A                      A                      A
 Frequencies --   1013.5751              1021.9063              1053.1751
 Red. masses --      1.8331                 1.8159                 1.1768
 Frc consts  --      1.1096                 1.1173                 0.7691
 IR Inten    --      7.8535                 3.5423                 5.1610

                     25                     26                     27
                      A                      A                      A
 Frequencies --   1091.1953              1107.5212              1138.9806
 Red. masses --      1.5606                 1.6673                 1.5568
 Frc consts  --      1.0948                 1.2049                 1.1899
 IR Inten    --      1.3905                12.4630                34.7320

                     28                     29                     30
                      A                      A                      A
 Frequencies --   1181.8086              1208.0322              1218.1359
 Red. masses --      2.2102                 1.8818                 1.6028
 Frc consts  --      1.8188                 1.6180                 1.4012
 IR Inten    --     29.4824                11.4847                58.9652

                     31                     32                     33
                      A                      A                      A
 Frequencies --   1228.9013              1234.9411              1289.1505
 Red. masses --      1.5730                 1.6130                 1.9908
 Frc consts  --      1.3996                 1.4493                 1.9493
 IR Inten    --      2.9685                 1.7695                 6.5293

                     34                     35                     36
                      A                      A                      A
 Frequencies --   1322.2309              1361.2006              1408.9032
 Red. masses --      2.0423                 1.9272                 1.2924
 Frc consts  --      2.1037                 2.1038                 1.5115
 IR Inten    --    136.4327                 4.9174                 3.0795

                     37                     38                     39
                      A                      A                      A
 Frequencies --   1454.5479              1473.8869              1486.1695
 Red. masses --      2.6589                 1.1032                 1.1402
 Frc consts  --      3.3144                 1.4120                 1.4838
 IR Inten    --     18.5350                 4.5247                 7.5910

                     40                     41                     42
                      A                      A                      A
 Frequencies --   1496.8890              1519.2139              3033.1558
 Red. masses --      1.1542                 1.1997                 1.0364
 Frc consts  --      1.5237                 1.6314                 5.6178
 IR Inten    --      1.4782                 7.1945                22.1069

                     43                     44                     45
                      A                      A                      A
 Frequencies --   3054.0818              3088.8967              3093.8669
 Red. masses --      1.0577                 1.0583                 1.0998
 Frc consts  --      5.8129                 5.9494                 6.2027
 IR Inten    --     35.5217                19.0101                17.3308

                     46                     47                     48
                      A                      A                      A
 Frequencies --   3120.2153              3122.1307              3129.2323
 Red. masses --      1.1064                 1.1013                 1.0910
 Frc consts  --      6.3466                 6.3249                 6.2943
 IR Inten    --     32.8011                 7.3642                41.0924

                     49                     50                     51
                      A                      A                      A
 Frequencies --   3160.5824              3161.9539              3805.7642
 Red. masses --      1.0938                 1.1071                 1.0659
 Frc consts  --      6.4378                 6.5214                 9.0956
 IR Inten    --     14.2589                13.7393                27.0996

 - Thermochemistry -
 -------------------
 Temperature   298.150 Kelvin.  Pressure   1.00000 Atm.
 Atom     1 has atomic number  6 and mass  12.00000

 Molecular mass:   126.06808 amu.
 Principal axes and moments of inertia in atomic units:
                           1         2         3
     Eigenvalues --   579.396961184.306601314.46467
           X            0.99940   0.00917  -0.03342
           Y           -0.00775   0.99906   0.04255
           Z            0.03378  -0.04226   0.99854
 This molecule is an asymmetric top.
 Rotational symmetry number  1.
 Warning -- assumption of classical behavior for rotation
           may cause significant error
 Rotational temperatures (Kelvin)      0.14949     0.07313     0.06589
 Rotational constants (GHZ):           3.11486     1.52388     1.37299
 Zero-point vibrational energy     418057.7 (Joules/Mol)
                                   99.91820 (Kcal/Mol)
 Warning -- explicit consideration of  11 degrees of freedom as
           vibrations may cause significant error
 Vibrational temperatures:    257.07   294.54   346.48   405.78   457.76
          (Kelvin)            551.19   630.86   678.06   755.11   795.23
                              853.32   923.09  1044.90  1166.72  1213.17
                             1230.82  1287.00  1331.25  1366.13  1409.53
                             1437.80  1458.31  1470.29  1515.28  1569.98
                             1593.47  1638.74  1700.36  1738.09  1752.62
                             1768.11  1776.80  1854.80  1902.39  1958.46
                             2027.09  2092.77  2120.59  2138.26  2153.69
                             2185.81  4364.03  4394.14  4444.23  4451.38
                             4489.29  4492.04  4502.26  4547.37  4549.34
                             5475.64

 Zero-point correction=                           0.159230 (Hartree/Particle)
 Thermal correction to Energy=                    0.166942
 Thermal correction to Enthalpy=                  0.167886
 Thermal correction to Gibbs Free Energy=         0.127728
 Sum of electronic and zero-point Energies=           -422.986112
 Sum of electronic and thermal Energies=              -422.978400
 Sum of electronic and thermal Enthalpies=            -422.977456
 Sum of electronic and thermal Free Energies=         -423.017613

                     E (Thermal)             CV                S
                      KCal/Mol        Cal/Mol-Kelvin    Cal/Mol-Kelvin
 Total                  104.757             31.798             84.518
 Electronic               0.000              0.000              0.000
 Translational            0.889              2.981             40.409
 Rotational               0.889              2.981             28.291
 Vibrational            102.980             25.837             15.819
 Vibration     1          0.629              1.869              2.342
 Vibration     2          0.640              1.833              2.090
 Vibration     3          0.658              1.778              1.797
 Vibration     4          0.681              1.707              1.521
 Vibration     5          0.705              1.639              1.320
 Vibration     6          0.752              1.506              1.027
 Vibration     7          0.799              1.386              0.831
 Vibration     8          0.828              1.314              0.734
 Vibration     9          0.880              1.195              0.599
 Vibration    10          0.908              1.134              0.539
 Vibration    11          0.951              1.047              0.462

 Normal termination of Gaussian 09 at Mon Jan 27 18:22:33 2020.
