 Gaussian 09, Revision D.01,
 Gaussian 09:  ES64L-G09RevD.01 24-Apr-2013

 -----------------------------
 # b3lyp 6-31G(2df,p) opt Freq
 -----------------------------

 -----
 titel
 -----
 Symbolic Z-matrix:
 Charge =  0 Multiplicity = 1

 SCF Done:  E(RB3LYP) =  -423.165621373     A.U. after   14 cycles
 Optimization completed.
    -- Stationary point found.
 Normal termination of Gaussian 09 at Mon Jan 27 13:16:25 2020.

 ----------------------------------------------------------------------
 #N Geom=AllCheck Guess=TCheck SCRF=Check GenChk RB3LYP/6-31G(2df,p) Fr
 eq
 ----------------------------------------------------------------------

 Structure from the checkpoint file:  "/scratch/puck/g09_b7c9a9a4-a4b2-456a-b00b-0cdf5d6b28d1/Gau-28285.chk"
 -----
 titel
 -----
 Charge =  0 Multiplicity = 1

                         Standard orientation:
 ---------------------------------------------------------------------
 Center     Atomic      Atomic             Coordinates (Angstroms)
 Number     Number       Type             X           Y           Z
 ---------------------------------------------------------------------
      1          8           0       -1.782834    1.878207   -0.169693
      2          6           0       -1.881425    0.695217    0.056932
      3          6           0       -0.768082   -0.271968   -0.050439
      4          6           0       -0.783264   -1.432557    0.938111
      5          6           0       -1.140906   -1.685752   -0.485594
      6          6           0        0.548927    0.312799   -0.507113
      7          6           0        1.382080    1.142938    0.494894
      8          6           0        2.494931    0.122434    0.191606
      9          8           0        1.594963   -0.683178   -0.607122
     10          1           0       -2.852991    0.247311    0.373903
     11          1           0        0.190255   -1.767803    1.275068
     12          1           0       -1.567444   -1.448497    1.687474
     13          1           0       -0.407500   -2.186390   -1.106285
     14          1           0       -2.177605   -1.877949   -0.741191
     15          1           0        0.401313    0.822187   -1.467847
     16          1           0        1.572390    2.178711    0.215872
     17          1           0        1.003482    1.105954    1.517753
     18          1           0        3.327134    0.507600   -0.410576
     19          1           0        2.900364   -0.440021    1.039977
 ---------------------------------------------------------------------

 SCF Done:  E(RB3LYP) =  -423.165621374     A.U. after    1 cycles

 The electronic state is 1-A.
 Alpha  occ. eigenvalues --  -19.13772 -19.13579 -10.27009 -10.23978 -10.23398
 Alpha  occ. eigenvalues --  -10.20947 -10.20432 -10.20376 -10.18863  -1.04489
 Alpha  occ. eigenvalues --   -1.03995  -0.87983  -0.74814  -0.70979  -0.65916
 Alpha  occ. eigenvalues --   -0.61662  -0.58528  -0.53655  -0.50373  -0.49974
 Alpha  occ. eigenvalues --   -0.48761  -0.45767  -0.43395  -0.42655  -0.41047
 Alpha  occ. eigenvalues --   -0.39473  -0.37855  -0.37448  -0.34747  -0.32055
 Alpha  occ. eigenvalues --   -0.31191  -0.28676  -0.26088  -0.24572
 Alpha virt. eigenvalues --   -0.01927   0.07655   0.09461   0.10010   0.11045
 Alpha virt. eigenvalues --    0.11596   0.12772   0.13752   0.15490   0.16733
 Alpha virt. eigenvalues --    0.17043   0.18538   0.20148   0.21617   0.22649

 Mulliken charges:
               1
     1  O   -0.275972
     2  C    0.109228
     3  C    0.222688
     4  C   -0.303599
     5  C   -0.307658
     6  C    0.072579
     7  C   -0.278973
     8  C   -0.069899
     9  O   -0.305166
    10  H    0.068741
    11  H    0.138955
    12  H    0.120729
    13  H    0.150676
    14  H    0.122366
    15  H    0.090491
    16  H    0.121575
    17  H    0.111963
    18  H    0.105783
    19  H    0.105494
 Sum of Mulliken charges =   0.00000

 Dipole moment (field-independent basis, Debye):
    X=              0.4870    Y=             -1.4249    Z=              1.1335  Tot=              1.8848
 Quadrupole moment (field-independent basis, Debye-Ang):
   XX=            -50.8925   YY=            -58.6711   ZZ=            -52.0759
   XY=              7.2370   XZ=              0.9345   YZ=             -0.4355

  Exact polarizability:  84.414   1.898  80.601   0.492  -2.485  63.101
 Approx polarizability: 108.454  -0.703 129.004   0.973  -5.209  97.859

                      1                      2                      3
                      A                      A                      A
 Frequencies --     64.0414                90.7304               144.7786
 Red. masses --      3.6011                 2.4016                 3.3782
 Frc consts  --      0.0087                 0.0116                 0.0417
 IR Inten    --      3.2887                 1.4777                 3.1618

                      4                      5                      6
                      A                      A                      A
 Frequencies --    161.2739               234.6845               256.2462
 Red. masses --      4.5749                 2.8025                 3.8729
 Frc consts  --      0.0701                 0.0909                 0.1498
 IR Inten    --      9.5677                 1.8238                 0.6244

                      7                      8                      9
                      A                      A                      A
 Frequencies --    325.8249               424.8243               474.2414
 Red. masses --      1.9453                 4.3353                 3.3686
 Frc consts  --      0.1217                 0.4610                 0.4464
 IR Inten    --      1.2060                 2.2352                 2.4008

                     10                     11                     12
                      A                      A                      A
 Frequencies --    595.0105               670.4481               785.7315
 Red. masses --      4.8702                 2.3827                 1.3281
 Frc consts  --      1.0159                 0.6310                 0.4831
 IR Inten    --     24.7683                 2.3681                 2.0839

                     13                     14                     15
                      A                      A                      A
 Frequencies --    789.9608               838.2798               854.1612
 Red. masses --      1.0505                 3.2557                 3.8573
 Frc consts  --      0.3863                 1.3480                 1.6581
 IR Inten    --      0.1688                 1.0275                10.7480

                     16                     17                     18
                      A                      A                      A
 Frequencies --    926.0059               936.2246               944.0555
 Red. masses --      1.6262                 2.2117                 1.4965
 Frc consts  --      0.8216                 1.1422                 0.7858
 IR Inten    --     41.9007                32.3333                 1.2687

                     19                     20                     21
                      A                      A                      A
 Frequencies --    956.2025              1019.0941              1032.5317
 Red. masses --      2.4889                 4.5801                 4.0483
 Frc consts  --      1.3408                 2.8026                 2.5429
 IR Inten    --      4.5538                73.2564                49.4086

                     22                     23                     24
                      A                      A                      A
 Frequencies --   1051.4504              1066.7583              1083.0120
 Red. masses --      1.6866                 1.3757                 2.1758
 Frc consts  --      1.0986                 0.9224                 1.5036
 IR Inten    --      1.1956                 7.7872                 5.8517

                     25                     26                     27
                      A                      A                      A
 Frequencies --   1093.1872              1114.3361              1169.5341
 Red. masses --      1.6285                 2.1511                 1.1743
 Frc consts  --      1.1466                 1.5737                 0.9464
 IR Inten    --      3.4002                 1.5755                 0.3873

                     28                     29                     30
                      A                      A                      A
 Frequencies --   1201.2063              1213.6495              1255.1515
 Red. masses --      1.2933                 1.2469                 1.4461
 Frc consts  --      1.0994                 1.0821                 1.3423
 IR Inten    --      0.0513                 1.3935                 3.5178

                     31                     32                     33
                      A                      A                      A
 Frequencies --   1264.3914              1300.7047              1327.8014
 Red. masses --      1.4115                 2.1473                 1.9270
 Frc consts  --      1.3295                 2.1404                 2.0017
 IR Inten    --      6.2239                16.8247                 6.2524

                     34                     35                     36
                      A                      A                      A
 Frequencies --   1357.2889              1401.5867              1440.1837
 Red. masses --      1.4219                 1.9285                 1.2840
 Frc consts  --      1.5434                 2.2320                 1.5691
 IR Inten    --      3.4388                36.5884                 1.3411

                     37                     38                     39
                      A                      A                      A
 Frequencies --   1451.7963              1486.6845              1490.4977
 Red. masses --      1.0888                 1.2170                 1.2310
 Frc consts  --      1.3521                 1.5848                 1.6113
 IR Inten    --      4.4341                 2.0579                 4.6464

                     40                     41                     42
                      A                      A                      A
 Frequencies --   1530.9782              1804.3184              2852.0565
 Red. masses --      1.1142                10.5346                 1.0823
 Frc consts  --      1.5387                20.2067                 5.1870
 IR Inten    --      0.2444               224.1873               116.0535

                     43                     44                     45
                      A                      A                      A
 Frequencies --   3018.1752              3025.2324              3063.7075
 Red. masses --      1.0632                 1.0781                 1.1093
 Frc consts  --      5.7065                 5.8131                 6.1345
 IR Inten    --     88.3028                34.0230                30.7711

                     46                     47                     48
                      A                      A                      A
 Frequencies --   3088.3952              3138.8203              3139.9545
 Red. masses --      1.0613                 1.0517                 1.0572
 Frc consts  --      5.9640                 6.1046                 6.1411
 IR Inten    --     19.2203                10.5210                 9.0050

                     49                     50                     51
                      A                      A                      A
 Frequencies --   3148.3295              3227.2450              3239.8993
 Red. masses --      1.1078                 1.1170                 1.1160
 Frc consts  --      6.4692                 6.8542                 6.9018
 IR Inten    --     18.4961                 0.3574                 3.8569

 - Thermochemistry -
 -------------------
 Temperature   298.150 Kelvin.  Pressure   1.00000 Atm.
 Atom     1 has atomic number  8 and mass  15.99491

 Molecular mass:   126.06808 amu.
 Principal axes and moments of inertia in atomic units:
                           1         2         3
     Eigenvalues --   730.844801227.101241683.24141
           X            0.99663   0.08179   0.00566
           Y           -0.08176   0.99664  -0.00391
           Z           -0.00596   0.00344   0.99998
 This molecule is an asymmetric top.
 Rotational symmetry number  1.
 Warning -- assumption of classical behavior for rotation
           may cause significant error
 Rotational temperatures (Kelvin)      0.11851     0.07058     0.05146
 Rotational constants (GHZ):           2.46939     1.47074     1.07218
 Zero-point vibrational energy     416125.1 (Joules/Mol)
                                   99.45629 (Kcal/Mol)
 Warning -- explicit consideration of  10 degrees of freedom as
           vibrations may cause significant error
 Vibrational temperatures:     92.14   130.54   208.30   232.04   337.66
          (Kelvin)            368.68   468.79   611.23   682.33   856.09
                              964.62  1130.49  1136.58  1206.10  1228.95
                             1332.31  1347.02  1358.28  1375.76  1466.25
                             1485.58  1512.80  1534.83  1558.21  1572.85
                             1603.28  1682.70  1728.27  1746.17  1805.88
                             1819.17  1871.42  1910.41  1952.83  2016.57
                             2072.10  2088.81  2139.00  2144.49  2202.73
                             2596.01  4103.47  4342.48  4352.63  4407.99
                             4443.51  4516.06  4517.69  4529.74  4643.28
                             4661.49

 Zero-point correction=                           0.158494 (Hartree/Particle)
 Thermal correction to Energy=                    0.167180
 Thermal correction to Enthalpy=                  0.168124
 Thermal correction to Gibbs Free Energy=         0.124514
 Sum of electronic and zero-point Energies=           -423.007128
 Sum of electronic and thermal Energies=              -422.998442
 Sum of electronic and thermal Enthalpies=            -422.997497
 Sum of electronic and thermal Free Energies=         -423.041107

                     E (Thermal)             CV                S
                      KCal/Mol        Cal/Mol-Kelvin    Cal/Mol-Kelvin
 Total                  104.907             31.876             91.785
 Electronic               0.000              0.000              0.000
 Translational            0.889              2.981             40.409
 Rotational               0.889              2.981             28.803
 Vibrational            103.129             25.914             22.573
 Vibration     1          0.597              1.971              4.329
 Vibration     2          0.602              1.956              3.644
 Vibration     3          0.616              1.908              2.740
 Vibration     4          0.622              1.890              2.535
 Vibration     5          0.654              1.788              1.843
 Vibration     6          0.666              1.752              1.687
 Vibration     7          0.710              1.624              1.281
 Vibration     8          0.787              1.416              0.876
 Vibration     9          0.831              1.307              0.726
 Vibration    10          0.953              1.042              0.458

 Optimization completed.
    -- Stationary point found.
 Normal termination of Gaussian 09 at Mon Jan 27 14:32:13 2020.
