 Gaussian 09, Revision D.01,
 Gaussian 09:  ES64L-G09RevD.01 24-Apr-2013

 -----------------------------
 # b3lyp 6-31G(2df,p) opt Freq
 -----------------------------

 -----
 titel
 -----
 Symbolic Z-matrix:
 Charge =  0 Multiplicity = 1

 SCF Done:  E(RB3LYP) =  -423.173218296     A.U. after   14 cycles
 Optimization completed.
    -- Stationary point found.
 Normal termination of Gaussian 09 at Tue Jan 28 13:59:57 2020.

 ----------------------------------------------------------------------
 #N Geom=AllCheck Guess=TCheck SCRF=Check GenChk RB3LYP/6-31G(2df,p) Fr
 eq
 ----------------------------------------------------------------------

 Structure from the checkpoint file:  "/scratch/puck/g09_aeb54a63-5537-46a9-8487-63e055c4c867/Gau-120025.chk"
 -----
 titel
 -----
 Charge =  0 Multiplicity = 1

                         Standard orientation:
 ---------------------------------------------------------------------
 Center     Atomic      Atomic             Coordinates (Angstroms)
 Number     Number       Type             X           Y           Z
 ---------------------------------------------------------------------
      1          6           0        0.157029    1.690524    0.842819
      2          6           0       -0.299914    0.386359    0.252153
      3          6           0        0.630642   -0.701049   -0.295098
      4          6           0        2.100123   -0.619830    0.063486
      5          8           0        2.794017    0.417564   -0.611789
      6          6           0       -0.352069   -1.086938    0.759745
      7          6           0       -1.721869   -1.320728    0.109760
      8          6           0       -1.662150    0.163665   -0.344268
      9          8           0       -2.480744    0.910097   -0.803572
     10          1           0       -0.574045    2.065203    1.566382
     11          1           0        1.124802    1.606440    1.340138
     12          1           0        0.258571    2.442971    0.054323
     13          1           0        0.452643   -1.065804   -1.308291
     14          1           0        2.223070   -0.411113    1.130670
     15          1           0        2.565071   -1.600129   -0.126161
     16          1           0        2.706645    0.267361   -1.558597
     17          1           0       -0.050388   -1.445529    1.735783
     18          1           0       -1.779600   -2.094801   -0.661590
     19          1           0       -2.543710   -1.457907    0.818659
 ---------------------------------------------------------------------

 SCF Done:  E(RB3LYP) =  -423.173218296     A.U. after    1 cycles

 The electronic state is 1-A.
 Alpha  occ. eigenvalues --  -19.14361 -19.12772 -10.26456 -10.24144 -10.21307
 Alpha  occ. eigenvalues --  -10.21089 -10.20895 -10.19584 -10.18308  -1.03821
 Alpha  occ. eigenvalues --   -1.02504  -0.91111  -0.75368  -0.73250  -0.67139
 Alpha  occ. eigenvalues --   -0.61945  -0.58952  -0.52162  -0.49940  -0.47772
 Alpha  occ. eigenvalues --   -0.47021  -0.45405  -0.42528  -0.41548  -0.40936
 Alpha  occ. eigenvalues --   -0.40144  -0.39194  -0.37392  -0.35715  -0.34348
 Alpha  occ. eigenvalues --   -0.30108  -0.28044  -0.27078  -0.23751
 Alpha virt. eigenvalues --   -0.00807   0.06540   0.09455   0.09956   0.10336
 Alpha virt. eigenvalues --    0.12145   0.13012   0.14410   0.16022   0.16684
 Alpha virt. eigenvalues --    0.17400   0.18475   0.19566   0.20448   0.22499

 Mulliken charges:
               1
     1  C   -0.492773
     2  C    0.218546
     3  C   -0.086031
     4  C   -0.107157
     5  O   -0.411754
     6  C   -0.123996
     7  C   -0.369915
     8  C    0.359298
     9  O   -0.316754
    10  H    0.124378
    11  H    0.133297
    12  H    0.141275
    13  H    0.082435
    14  H    0.112295
    15  H    0.098922
    16  H    0.285224
    17  H    0.103349
    18  H    0.117697
    19  H    0.131664
 Sum of Mulliken charges =   0.00000

 Dipole moment (field-independent basis, Debye):
    X=              1.6674    Y=             -2.4536    Z=              0.6422  Tot=              3.0353
 Quadrupole moment (field-independent basis, Debye-Ang):
   XX=            -62.9238   YY=            -53.6265   ZZ=            -49.0561
   XY=              1.7199   XZ=             -5.4810   YZ=              1.6527

  Exact polarizability:  87.155  -0.453  78.160   1.208  -1.089  65.694
 Approx polarizability: 119.740  -6.481 117.868   4.720  -6.836 104.093

                      1                      2                      3
                      A                      A                      A
 Frequencies --     69.9412                92.4871                94.2019
 Red. masses --      1.0554                 4.3871                 3.7472
 Frc consts  --      0.0030                 0.0221                 0.0196
 IR Inten    --      0.8415                 5.2931                 1.9655

                      4                      5                      6
                      A                      A                      A
 Frequencies --    164.7570               243.1646               254.3849
 Red. masses --      3.5045                 1.4625                 3.0234
 Frc consts  --      0.0560                 0.0509                 0.1153
 IR Inten    --      2.8453                49.9212                 1.3836

                      7                      8                      9
                      A                      A                      A
 Frequencies --    284.5233               308.4647               382.0704
 Red. masses --      2.6171                 1.5732                 4.6138
 Frc consts  --      0.1248                 0.0882                 0.3968
 IR Inten    --      1.1592                73.6285                 1.7558

                     10                     11                     12
                      A                      A                      A
 Frequencies --    457.1924               556.3091               568.4763
 Red. masses --      3.0882                 2.7063                 3.0532
 Frc consts  --      0.3803                 0.4935                 0.5813
 IR Inten    --      7.3298                 2.3434                 8.9923

                     13                     14                     15
                      A                      A                      A
 Frequencies --    657.9357               681.7516               766.9863
 Red. masses --      3.5777                 3.5665                 3.5756
 Frc consts  --      0.9125                 0.9767                 1.2393
 IR Inten    --      0.9045                 0.1931                11.4906

                     16                     17                     18
                      A                      A                      A
 Frequencies --    822.2666               916.7475               942.1788
 Red. masses --      2.9495                 1.4695                 2.1418
 Frc consts  --      1.1750                 0.7277                 1.1202
 IR Inten    --     15.2956                 6.4324                 4.0092

                     19                     20                     21
                      A                      A                      A
 Frequencies --    972.8130               994.7518              1003.3180
 Red. masses --      1.7258                 1.9210                 2.0878
 Frc consts  --      0.9623                 1.1200                 1.2383
 IR Inten    --     50.6602                 4.8848                 8.8940

                     22                     23                     24
                      A                      A                      A
 Frequencies --   1047.1220              1074.9885              1092.5880
 Red. masses --      3.3863                 2.1670                 1.8492
 Frc consts  --      2.1876                 1.4754                 1.3006
 IR Inten    --     77.1438                11.8511                28.9813

                     25                     26                     27
                      A                      A                      A
 Frequencies --   1102.6037              1113.0918              1146.3944
 Red. masses --      1.8426                 1.5164                 1.3183
 Frc consts  --      1.3198                 1.1070                 1.0208
 IR Inten    --     11.3026                 1.2049                 0.1389

                     28                     29                     30
                      A                      A                      A
 Frequencies --   1206.7508              1213.8244              1242.8254
 Red. masses --      1.4419                 1.6278                 2.0279
 Frc consts  --      1.2372                 1.4131                 1.8455
 IR Inten    --     23.2172                 1.4566                13.2866

                     31                     32                     33
                      A                      A                      A
 Frequencies --   1275.5706              1344.6633              1384.8289
 Red. masses --      1.7845                 1.6412                 1.4551
 Frc consts  --      1.7107                 1.7484                 1.6442
 IR Inten    --      4.2647                11.6759                 7.9830

                     34                     35                     36
                      A                      A                      A
 Frequencies --   1416.3898              1418.6066              1433.8565
 Red. masses --      1.4934                 1.4173                 1.6822
 Frc consts  --      1.7652                 1.6805                 2.0376
 IR Inten    --     19.4174                 6.4760                24.6074

                     37                     38                     39
                      A                      A                      A
 Frequencies --   1463.1549              1477.3231              1490.8375
 Red. masses --      1.1513                 1.0483                 1.0661
 Frc consts  --      1.4522                 1.3480                 1.3961
 IR Inten    --      1.6466                 5.6716                 3.6265

                     40                     41                     42
                      A                      A                      A
 Frequencies --   1508.9012              1873.9978              2982.2584
 Red. masses --      1.0775                12.6641                 1.0713
 Frc consts  --      1.4454                26.2037                 5.6139
 IR Inten    --      3.3297               334.0108                60.7528

                     43                     44                     45
                      A                      A                      A
 Frequencies --   3042.9504              3052.5488              3072.1732
 Red. masses --      1.0373                 1.0585                 1.0875
 Frc consts  --      5.6590                 5.8114                 6.0476
 IR Inten    --     22.5527                24.0583                 0.8892

                     46                     47                     48
                      A                      A                      A
 Frequencies --   3087.8908              3101.5756              3107.6486
 Red. masses --      1.0914                 1.1009                 1.1057
 Frc consts  --      6.1311                 6.2394                 6.2916
 IR Inten    --     43.4449                15.0305                12.7788

                     49                     50                     51
                      A                      A                      A
 Frequencies --   3133.3970              3197.8203              3816.2405
 Red. masses --      1.0989                 1.0927                 1.0663
 Frc consts  --      6.3571                 6.5836                 9.1492
 IR Inten    --     11.9100                 6.7787                21.0305

 - Thermochemistry -
 -------------------
 Temperature   298.150 Kelvin.  Pressure   1.00000 Atm.
 Atom     1 has atomic number  6 and mass  12.00000

 Molecular mass:   126.06808 amu.
 Principal axes and moments of inertia in atomic units:
                           1         2         3
     Eigenvalues --   616.163351542.463021809.96845
           X            0.99985   0.01554  -0.00797
           Y           -0.01512   0.99859   0.05092
           Z            0.00875  -0.05079   0.99867
 This molecule is an asymmetric top.
 Rotational symmetry number  1.
 Warning -- assumption of classical behavior for rotation
           may cause significant error
 Rotational temperatures (Kelvin)      0.14057     0.05615     0.04785
 Rotational constants (GHZ):           2.92900     1.17004     0.99711
 Zero-point vibrational energy     413654.0 (Joules/Mol)
                                   98.86567 (Kcal/Mol)
 Warning -- explicit consideration of  12 degrees of freedom as
           vibrations may cause significant error
 Vibrational temperatures:    100.63   133.07   135.54   237.05   349.86
          (Kelvin)            366.00   409.37   443.81   549.71   657.80
                              800.40   817.91   946.62   980.89  1103.52
                             1183.06  1318.99  1355.58  1399.66  1431.22
                             1443.55  1506.57  1546.67  1571.99  1586.40
                             1601.49  1649.40  1736.24  1746.42  1788.15
                             1835.26  1934.67  1992.46  2037.87  2041.06
                             2063.00  2105.15  2125.54  2144.98  2170.97
                             2696.26  4290.80  4378.12  4391.93  4420.17
                             4442.78  4462.47  4471.21  4508.25  4600.94
                             5490.71

 Zero-point correction=                           0.157552 (Hartree/Particle)
 Thermal correction to Energy=                    0.166961
 Thermal correction to Enthalpy=                  0.167905
 Thermal correction to Gibbs Free Energy=         0.122913
 Sum of electronic and zero-point Energies=           -423.015666
 Sum of electronic and thermal Energies=              -423.006257
 Sum of electronic and thermal Enthalpies=            -423.005313
 Sum of electronic and thermal Free Energies=         -423.050305

                     E (Thermal)             CV                S
                      KCal/Mol        Cal/Mol-Kelvin    Cal/Mol-Kelvin
 Total                  104.770             34.188             94.694
 Electronic               0.000              0.000              0.000
 Translational            0.889              2.981             40.409
 Rotational               0.889              2.981             28.933
 Vibrational            102.992             28.226             25.353
 Vibration     1          0.598              1.968              4.155
 Vibration     2          0.602              1.955              3.607
 Vibration     3          0.603              1.953              3.571
 Vibration     4          0.623              1.886              2.494
 Vibration     5          0.659              1.774              1.780
 Vibration     6          0.665              1.755              1.700
 Vibration     7          0.683              1.702              1.506
 Vibration     8          0.698              1.658              1.371
 Vibration     9          0.752              1.508              1.031
 Vibration    10          0.815              1.345              0.774
 Vibration    11          0.912              1.126              0.531
 Vibration    12          0.924              1.099              0.507

 Optimization completed.
    -- Stationary point found.
 Normal termination of Gaussian 09 at Tue Jan 28 14:40:53 2020.
