 Gaussian 09, Revision D.01,
 Gaussian 09:  ES64L-G09RevD.01 24-Apr-2013

 -----------------------------
 # b3lyp 6-31G(2df,p) opt Freq
 -----------------------------

 -----
 titel
 -----
 Symbolic Z-matrix:
 Charge =  0 Multiplicity = 1

 SCF Done:  E(RB3LYP) =  -423.166917571     A.U. after   14 cycles
 Optimization completed.
    -- Stationary point found.
 Normal termination of Gaussian 09 at Tue Jan 28 03:58:03 2020.

 ----------------------------------------------------------------------
 #N Geom=AllCheck Guess=TCheck SCRF=Check GenChk RB3LYP/6-31G(2df,p) Fr
 eq
 ----------------------------------------------------------------------

 Structure from the checkpoint file:  "/scratch/puck/g09_7e156c73-6fbb-4cb3-8ba5-22185cf5085c/Gau-93006.chk"
 -----
 titel
 -----
 Charge =  0 Multiplicity = 1

                         Standard orientation:
 ---------------------------------------------------------------------
 Center     Atomic      Atomic             Coordinates (Angstroms)
 Number     Number       Type             X           Y           Z
 ---------------------------------------------------------------------
      1          8           0       -2.811935   -0.615723   -0.206443
      2          6           0       -1.552095   -0.201485    0.303038
      3          6           0       -1.266771    1.280405   -0.047840
      4          6           0        0.202887    1.639039   -0.053133
      5          6           0        1.097208    0.703318    0.221538
      6          6           0        2.521297    0.321409   -0.096804
      7          8           0        2.090898   -1.066125   -0.218740
      8          6           0        0.813842   -0.758309    0.414001
      9          6           0       -0.487614   -1.160365   -0.259401
     10          1           0       -3.489153   -0.045053    0.171377
     11          1           0       -1.542818   -0.305000    1.401540
     12          1           0       -1.669523    1.462774   -1.054320
     13          1           0       -1.837888    1.934205    0.627034
     14          1           0        0.484746    2.634758   -0.386229
     15          1           0        2.951428    0.711291   -1.026159
     16          1           0        3.248549    0.442932    0.718554
     17          1           0        0.833879   -1.101815    1.459922
     18          1           0       -0.783957   -2.193085   -0.055660
     19          1           0       -0.399497   -1.030296   -1.342999
 ---------------------------------------------------------------------

 SCF Done:  E(RB3LYP) =  -423.166917571     A.U. after    1 cycles

 The electronic state is 1-A.
 Alpha  occ. eigenvalues --  -19.13749 -19.13363 -10.23844 -10.23533 -10.23057
 Alpha  occ. eigenvalues --  -10.19147 -10.18850 -10.18717 -10.17929  -1.03505
 Alpha  occ. eigenvalues --   -1.02022  -0.82481  -0.75557  -0.72375  -0.67567
 Alpha  occ. eigenvalues --   -0.61750  -0.58901  -0.53262  -0.51670  -0.47805
 Alpha  occ. eigenvalues --   -0.46514  -0.45377  -0.43774  -0.42108  -0.40177
 Alpha  occ. eigenvalues --   -0.38574  -0.38131  -0.35494  -0.32890  -0.32029
 Alpha  occ. eigenvalues --   -0.30590  -0.26895  -0.25977  -0.23846
 Alpha virt. eigenvalues --    0.01330   0.07152   0.08416   0.10643   0.11821
 Alpha virt. eigenvalues --    0.12798   0.14496   0.15634   0.16568   0.16930
 Alpha virt. eigenvalues --    0.17864   0.18022   0.19432   0.19960   0.22930

 Mulliken charges:
               1
     1  O   -0.436336
     2  C    0.121293
     3  C   -0.272181
     4  C   -0.211746
     5  C    0.240532
     6  C   -0.162774
     7  O   -0.310265
     8  C    0.095894
     9  C   -0.249310
    10  H    0.280407
    11  H    0.069628
    12  H    0.120787
    13  H    0.098818
    14  H    0.092747
    15  H    0.118589
    16  H    0.105223
    17  H    0.078614
    18  H    0.108269
    19  H    0.111812
 Sum of Mulliken charges =   0.00000

 Dipole moment (field-independent basis, Debye):
    X=             -0.8962    Y=              2.3781    Z=              1.1116  Tot=              2.7739
 Quadrupole moment (field-independent basis, Debye-Ang):
   XX=            -51.4141   YY=            -54.3644   ZZ=            -52.9666
   XY=             -0.0094   XZ=             -2.1899   YZ=             -2.1495

  Exact polarizability:  96.186  -3.885  77.499   0.152  -3.919  59.671
 Approx polarizability: 129.032 -12.570 118.250   2.238  -5.675  94.984

                      1                      2                      3
                      A                      A                      A
 Frequencies --    115.5712               172.1978               256.5453
 Red. masses --      3.2345                 3.3464                 2.1605
 Frc consts  --      0.0255                 0.0585                 0.0838
 IR Inten    --      0.7127                 0.1365                 8.9417

                      4                      5                      6
                      A                      A                      A
 Frequencies --    287.9487               309.2018               324.7613
 Red. masses --      1.1125                 3.9668                 2.7233
 Frc consts  --      0.0543                 0.2234                 0.1692
 IR Inten    --     87.0731                 9.6672                 0.4419

                      7                      8                      9
                      A                      A                      A
 Frequencies --    399.7755               414.7587               468.8660
 Red. masses --      3.7145                 4.8122                 2.6756
 Frc consts  --      0.3498                 0.4877                 0.3466
 IR Inten    --      7.1112                 5.2068                 7.5285

                     10                     11                     12
                      A                      A                      A
 Frequencies --    536.7343               646.8075               751.7809
 Red. masses --      3.4353                 2.8974                 4.6839
 Frc consts  --      0.5831                 0.7142                 1.5597
 IR Inten    --      6.9800                 3.4140                 1.9326

                     13                     14                     15
                      A                      A                      A
 Frequencies --    806.1758               834.5050               865.2416
 Red. masses --      1.4776                 2.2202                 2.7750
 Frc consts  --      0.5658                 0.9110                 1.2240
 IR Inten    --     15.7289                 5.7313                 2.7078

                     16                     17                     18
                      A                      A                      A
 Frequencies --    931.6967               951.7011               972.4711
 Red. masses --      1.5259                 3.1335                 4.7148
 Frc consts  --      0.7804                 1.6722                 2.6270
 IR Inten    --      6.0223                12.3055               114.2251

                     19                     20                     21
                      A                      A                      A
 Frequencies --    980.5400              1017.2712              1057.5705
 Red. masses --      2.5105                 1.6427                 2.2216
 Frc consts  --      1.4221                 1.0016                 1.4640
 IR Inten    --     22.6551                 3.8910                33.2518

                     22                     23                     24
                      A                      A                      A
 Frequencies --   1083.0298              1095.7337              1108.8466
 Red. masses --      2.1213                 2.7615                 2.8059
 Frc consts  --      1.4660                 1.9535                 2.0326
 IR Inten    --      8.3312                28.1112                 9.7747

                     25                     26                     27
                      A                      A                      A
 Frequencies --   1130.2961              1141.1337              1160.4165
 Red. masses --      2.4799                 1.1632                 1.4932
 Frc consts  --      1.8667                 0.8924                 1.1847
 IR Inten    --     14.5496                 1.9782                 2.5801

                     28                     29                     30
                      A                      A                      A
 Frequencies --   1228.4305              1238.8082              1285.3823
 Red. masses --      1.2294                 1.3179                 1.3546
 Frc consts  --      1.0930                 1.1916                 1.3186
 IR Inten    --      7.9610                 3.4982                 2.9276

                     31                     32                     33
                      A                      A                      A
 Frequencies --   1303.4456              1310.8486              1318.7966
 Red. masses --      1.4147                 1.3549                 1.5007
 Frc consts  --      1.4161                 1.3717                 1.5378
 IR Inten    --     32.3366                17.2538                10.7876

                     34                     35                     36
                      A                      A                      A
 Frequencies --   1359.0668              1388.9382              1389.8772
 Red. masses --      1.3600                 1.4034                 1.6462
 Frc consts  --      1.4800                 1.5951                 1.8736
 IR Inten    --      4.6008                17.2580                16.8318

                     37                     38                     39
                      A                      A                      A
 Frequencies --   1441.6365              1479.2302              1498.0679
 Red. masses --      1.4630                 1.0927                 1.1002
 Frc consts  --      1.7915                 1.4087                 1.4548
 IR Inten    --      5.5476                 0.3416                 3.7539

                     40                     41                     42
                      A                      A                      A
 Frequencies --   1512.1539              1791.1535              2948.7495
 Red. masses --      1.1115                 8.8098                 1.0821
 Frc consts  --      1.4975                16.6525                 5.5438
 IR Inten    --      0.4680                 1.9563                29.3712

                     43                     44                     45
                      A                      A                      A
 Frequencies --   2977.2318              2999.5225              3000.1954
 Red. masses --      1.0814                 1.0635                 1.0602
 Frc consts  --      5.6474                 5.6377                 5.6228
 IR Inten    --     61.4459               101.0202                23.3809

                     46                     47                     48
                      A                      A                      A
 Frequencies --   3031.5028              3054.0270              3061.8319
 Red. masses --      1.1002                 1.0581                 1.1011
 Frc consts  --      5.9570                 5.8146                 6.0817
 IR Inten    --     26.9706                19.8086                34.2613

                     49                     50                     51
                      A                      A                      A
 Frequencies --   3106.7800              3157.9521              3811.4032
 Red. masses --      1.1062                 1.0910                 1.0661
 Frc consts  --      6.2908                 6.4107                 9.1251
 IR Inten    --     26.1681                18.0176                16.2241

 - Thermochemistry -
 -------------------
 Temperature   298.150 Kelvin.  Pressure   1.00000 Atm.
 Atom     1 has atomic number  8 and mass  15.99491

 Molecular mass:   126.06808 amu.
 Principal axes and moments of inertia in atomic units:
                           1         2         3
     Eigenvalues --   510.978401442.426991843.76873
           X            0.99999   0.00223  -0.00334
           Y           -0.00230   0.99979  -0.02019
           Z            0.00330   0.02020   0.99979
 This molecule is an asymmetric top.
 Rotational symmetry number  1.
 Warning -- assumption of classical behavior for rotation
           may cause significant error
 Rotational temperatures (Kelvin)      0.16951     0.06005     0.04698
 Rotational constants (GHZ):           3.53193     1.25118     0.97883
 Zero-point vibrational energy     421783.0 (Joules/Mol)
                                  100.80855 (Kcal/Mol)
 Warning -- explicit consideration of  10 degrees of freedom as
           vibrations may cause significant error
 Vibrational temperatures:    166.28   247.75   369.11   414.29   444.87
          (Kelvin)            467.26   575.19   596.74   674.59   772.24
                              930.61  1081.64  1159.91  1200.67  1244.89
                             1340.50  1369.28  1399.17  1410.78  1463.62
                             1521.61  1558.24  1576.51  1595.38  1626.24
                             1641.83  1669.58  1767.44  1782.37  1849.38
                             1875.37  1886.02  1897.45  1955.39  1998.37
                             1999.72  2074.19  2128.28  2155.38  2175.65
                             2577.07  4242.59  4283.57  4315.64  4316.61
                             4361.65  4394.06  4405.29  4469.96  4543.58
                             5483.75

 Zero-point correction=                           0.160649 (Hartree/Particle)
 Thermal correction to Energy=                    0.168488
 Thermal correction to Enthalpy=                  0.169432
 Thermal correction to Gibbs Free Energy=         0.128516
 Sum of electronic and zero-point Energies=           -423.006269
 Sum of electronic and thermal Energies=              -422.998430
 Sum of electronic and thermal Enthalpies=            -422.997485
 Sum of electronic and thermal Free Energies=         -423.038401

                     E (Thermal)             CV                S
                      KCal/Mol        Cal/Mol-Kelvin    Cal/Mol-Kelvin
 Total                  105.728             30.955             86.115
 Electronic               0.000              0.000              0.000
 Translational            0.889              2.981             40.409
 Rotational               0.889              2.981             28.698
 Vibrational            103.950             24.993             17.008
 Vibration     1          0.608              1.936              3.173
 Vibration     2          0.626              1.877              2.411
 Vibration     3          0.666              1.752              1.685
 Vibration     4          0.685              1.696              1.486
 Vibration     5          0.699              1.656              1.367
 Vibration     6          0.709              1.626              1.286
 Vibration     7          0.766              1.471              0.963
 Vibration     8          0.778              1.438              0.910
 Vibration     9          0.826              1.319              0.741
 Vibration    10          0.892              1.169              0.572

 Optimization completed.
    -- Stationary point found.
 Normal termination of Gaussian 09 at Tue Jan 28 04:40:31 2020.
