 Gaussian 09, Revision D.01,
 Gaussian 09:  ES64L-G09RevD.01 24-Apr-2013

 -----------------------------
 # b3lyp 6-31G(2df,p) opt Freq
 -----------------------------

 -----
 titel
 -----
 Symbolic Z-matrix:
 Charge =  0 Multiplicity = 1

 SCF Done:  E(RB3LYP) =  -423.159956273     A.U. after   13 cycles
 Optimization completed.
    -- Stationary point found.
 Normal termination of Gaussian 09 at Mon Jan 27 23:49:25 2020.

 ----------------------------------------------------------------------
 #N Geom=AllCheck Guess=TCheck SCRF=Check GenChk RB3LYP/6-31G(2df,p) Fr
 eq
 ----------------------------------------------------------------------

 Structure from the checkpoint file:  "/scratch/puck/g09_a91f806e-4dbf-4950-b712-cdc3591d2f0f/Gau-104219.chk"
 -----
 titel
 -----
 Charge =  0 Multiplicity = 1

                         Standard orientation:
 ---------------------------------------------------------------------
 Center     Atomic      Atomic             Coordinates (Angstroms)
 Number     Number       Type             X           Y           Z
 ---------------------------------------------------------------------
      1          8           0        2.634067   -0.174351    0.003482
      2          6           0        1.309691   -0.109308   -0.486459
      3          6           0        0.647053    1.168236    0.066625
      4          6           0       -0.691645    1.542908   -0.626092
      5          6           0       -1.487100    0.624097    0.356184
      6          6           0       -1.947785   -0.720645   -0.192801
      7          8           0       -0.767108   -1.496694   -0.408951
      8          6           0        0.311936   -0.975983    0.351715
      9          6           0       -0.161523    0.301704    1.097558
     10          1           0        2.962000   -1.067239   -0.150036
     11          1           0        1.258200   -0.268413   -1.573320
     12          1           0        1.330224    1.973151    0.333916
     13          1           0       -0.942594    2.597952   -0.497114
     14          1           0       -0.770900    1.297182   -1.690133
     15          1           0       -2.266510    1.133173    0.925240
     16          1           0       -2.608306   -1.229917    0.526316
     17          1           0       -2.480893   -0.640999   -1.147241
     18          1           0        0.786398   -1.773294    0.934470
     19          1           0       -0.087043    0.360700    2.181264
 ---------------------------------------------------------------------

 SCF Done:  E(RB3LYP) =  -423.159956273     A.U. after    1 cycles

 The electronic state is 1-A.
 Alpha  occ. eigenvalues --  -19.13679 -19.13384 -10.22406 -10.22341 -10.22287
 Alpha  occ. eigenvalues --  -10.18945 -10.18459 -10.18340 -10.18308  -1.03384
 Alpha  occ. eigenvalues --   -1.01642  -0.86046  -0.76443  -0.68488  -0.66299
 Alpha  occ. eigenvalues --   -0.61810  -0.56244  -0.52958  -0.51819  -0.49118
 Alpha  occ. eigenvalues --   -0.47494  -0.44757  -0.43688  -0.42386  -0.40831
 Alpha  occ. eigenvalues --   -0.38098  -0.34618  -0.33323  -0.31799  -0.31510
 Alpha  occ. eigenvalues --   -0.29772  -0.27942  -0.26799  -0.23248
 Alpha virt. eigenvalues --    0.07096   0.08549   0.09913   0.10953   0.12677
 Alpha virt. eigenvalues --    0.13656   0.14521   0.15676   0.16522   0.17091
 Alpha virt. eigenvalues --    0.17672   0.18953   0.20180   0.21736   0.22990

 Mulliken charges:
               1
     1  O   -0.439965
     2  C    0.104844
     3  C   -0.039609
     4  C   -0.256399
     5  C   -0.039136
     6  C   -0.085154
     7  O   -0.273868
     8  C    0.061687
     9  C   -0.067570
    10  H    0.282181
    11  H    0.064640
    12  H    0.077254
    13  H    0.105421
    14  H    0.099238
    15  H    0.073601
    16  H    0.090437
    17  H    0.104880
    18  H    0.070800
    19  H    0.066718
 Sum of Mulliken charges =   0.00000

 Dipole moment (field-independent basis, Debye):
    X=             -0.7858    Y=              0.2579    Z=              0.3668  Tot=              0.9047
 Quadrupole moment (field-independent basis, Debye-Ang):
   XX=            -52.4329   YY=            -53.1200   ZZ=            -52.5086
   XY=             -5.3727   XZ=             -1.4334   YZ=             -0.8900

  Exact polarizability:  83.098  -2.022  72.126   0.656  -1.597  65.898
 Approx polarizability: 112.441  -2.123 104.945   2.005  -0.099 101.600

                      1                      2                      3
                      A                      A                      A
 Frequencies --     93.2152               220.3344               280.4596
 Red. masses --      3.4558                 3.0625                 2.9828
 Frc consts  --      0.0177                 0.0876                 0.1382
 IR Inten    --      1.9672                 0.6781                 6.5053

                      4                      5                      6
                      A                      A                      A
 Frequencies --    293.3284               335.3501               346.9306
 Red. masses --      1.8596                 1.6406                 2.0803
 Frc consts  --      0.0943                 0.1087                 0.1475
 IR Inten    --     48.5537                31.3688                35.0308

                      7                      8                      9
                      A                      A                      A
 Frequencies --    452.8248               623.5500               672.5383
 Red. masses --      5.4212                 3.6383                 5.0362
 Frc consts  --      0.6549                 0.8335                 1.3421
 IR Inten    --      5.1463                 1.0762                 5.9995

                     10                     11                     12
                      A                      A                      A
 Frequencies --    723.0221               770.9579               831.5222
 Red. masses --      4.2550                 2.1121                 1.8417
 Frc consts  --      1.3106                 0.7397                 0.7503
 IR Inten    --      1.6056                 4.4007                 0.0739

                     13                     14                     15
                      A                      A                      A
 Frequencies --    870.6765               874.4847               909.4449
 Red. masses --      2.0522                 2.3741                 3.2154
 Frc consts  --      0.9166                 1.0697                 1.5669
 IR Inten    --      6.2442                 9.0993                 3.0848

                     16                     17                     18
                      A                      A                      A
 Frequencies --    934.9146               954.5986               962.4667
 Red. masses --      1.7220                 2.6354                 2.3738
 Frc consts  --      0.8868                 1.4149                 1.2956
 IR Inten    --      1.9525                14.3292                 2.2410

                     19                     20                     21
                      A                      A                      A
 Frequencies --    995.1744              1014.4476              1044.0180
 Red. masses --      2.5110                 2.2674                 1.8006
 Frc consts  --      1.4652                 1.3748                 1.1563
 IR Inten    --      0.7630                 0.4985                 2.5797

                     22                     23                     24
                      A                      A                      A
 Frequencies --   1060.7436              1098.6136              1124.9936
 Red. masses --      2.1987                 2.4063                 2.7871
 Frc consts  --      1.4576                 1.7112                 2.0783
 IR Inten    --    131.4568                26.8217                 2.8588

                     25                     26                     27
                      A                      A                      A
 Frequencies --   1132.3097              1154.7806              1179.1131
 Red. masses --      1.9588                 1.6669                 2.3263
 Frc consts  --      1.4797                 1.3096                 1.9055
 IR Inten    --      6.6820                47.9991                 5.6056

                     28                     29                     30
                      A                      A                      A
 Frequencies --   1200.7496              1219.3733              1227.2184
 Red. masses --      1.3155                 1.3264                 1.2673
 Frc consts  --      1.1175                 1.1620                 1.1245
 IR Inten    --     40.1425                 9.5479                 3.0971

                     31                     32                     33
                      A                      A                      A
 Frequencies --   1244.1166              1263.9148              1278.2047
 Red. masses --      1.4546                 1.4952                 1.4298
 Frc consts  --      1.3266                 1.4073                 1.3763
 IR Inten    --      1.5547                 0.7801                 4.5075

                     34                     35                     36
                      A                      A                      A
 Frequencies --   1285.3741              1292.4864              1326.3776
 Red. masses --      1.4659                 1.3085                 1.6042
 Frc consts  --      1.4270                 1.2879                 1.6628
 IR Inten    --      0.2428                18.1410                 6.9401

                     37                     38                     39
                      A                      A                      A
 Frequencies --   1329.4752              1387.9474              1415.7544
 Red. masses --      1.5491                 1.3639                 1.5451
 Frc consts  --      1.6132                 1.5480                 1.8247
 IR Inten    --      8.1714                 3.0269                 7.3352

                     40                     41                     42
                      A                      A                      A
 Frequencies --   1477.0324              1518.7086              2980.4032
 Red. masses --      1.1046                 1.0919                 1.0690
 Frc consts  --      1.4198                 1.4839                 5.5946
 IR Inten    --      1.8040                 0.5296                83.9522

                     43                     44                     45
                      A                      A                      A
 Frequencies --   2996.1903              3042.6047              3048.3771
 Red. masses --      1.0852                 1.0881                 1.0620
 Frc consts  --      5.7401                 5.9348                 5.8144
 IR Inten    --     56.6979                63.5298                27.0372

                     46                     47                     48
                      A                      A                      A
 Frequencies --   3057.1122              3093.3980              3108.7996
 Red. masses --      1.0934                 1.0917                 1.0998
 Frc consts  --      6.0209                 6.1548                 6.2628
 IR Inten    --     42.2742                14.8497                27.5981

                     49                     50                     51
                      A                      A                      A
 Frequencies --   3121.5551              3135.5300              3800.3402
 Red. masses --      1.0891                 1.0929                 1.0660
 Frc consts  --      6.2528                 6.3306                 9.0705
 IR Inten    --     28.5890                35.1016                16.5911

 - Thermochemistry -
 -------------------
 Temperature   298.150 Kelvin.  Pressure   1.00000 Atm.
 Atom     1 has atomic number  8 and mass  15.99491

 Molecular mass:   126.06808 amu.
 Principal axes and moments of inertia in atomic units:
                           1         2         3
     Eigenvalues --   596.192191071.083541367.05508
           X            0.99964  -0.02667  -0.00091
           Y            0.02664   0.99937  -0.02360
           Z            0.00154   0.02357   0.99972
 This molecule is an asymmetric top.
 Rotational symmetry number  1.
 Warning -- assumption of classical behavior for rotation
           may cause significant error
 Rotational temperatures (Kelvin)      0.14528     0.08087     0.06336
 Rotational constants (GHZ):           3.02711     1.68497     1.32017
 Zero-point vibrational energy     423513.1 (Joules/Mol)
                                  101.22205 (Kcal/Mol)
 Warning -- explicit consideration of   7 degrees of freedom as
           vibrations may cause significant error
 Vibrational temperatures:    134.12   317.01   403.52   422.03   482.49
          (Kelvin)            499.16   651.51   897.15   967.63  1040.27
                             1109.24  1196.37  1252.71  1258.19  1308.49
                             1345.13  1373.45  1384.77  1431.83  1459.56
                             1502.11  1526.17  1580.66  1618.61  1629.14
                             1661.47  1696.48  1727.61  1754.40  1765.69
                             1790.00  1818.49  1839.05  1849.36  1859.60
                             1908.36  1912.82  1996.94  2036.95  2125.12
                             2185.08  4288.13  4310.84  4377.62  4385.93
                             4398.50  4450.70  4472.86  4491.22  4511.32
                             5467.84

 Zero-point correction=                           0.161308 (Hartree/Particle)
 Thermal correction to Energy=                    0.168528
 Thermal correction to Enthalpy=                  0.169472
 Thermal correction to Gibbs Free Energy=         0.129742
 Sum of electronic and zero-point Energies=           -422.998649
 Sum of electronic and thermal Energies=              -422.991428
 Sum of electronic and thermal Enthalpies=            -422.990484
 Sum of electronic and thermal Free Energies=         -423.030214

                     E (Thermal)             CV                S
                      KCal/Mol        Cal/Mol-Kelvin    Cal/Mol-Kelvin
 Total                  105.753             29.150             83.619
 Electronic               0.000              0.000              0.000
 Translational            0.889              2.981             40.409
 Rotational               0.889              2.981             28.259
 Vibrational            103.975             23.189             14.951
 Vibration     1          0.602              1.954              3.591
 Vibration     2          0.647              1.810              1.956
 Vibration     3          0.680              1.710              1.531
 Vibration     4          0.688              1.686              1.455
 Vibration     5          0.716              1.605              1.234
 Vibration     6          0.725              1.582              1.180
 Vibration     7          0.811              1.355              0.787

 Optimization completed.
    -- Stationary point found.
 Normal termination of Gaussian 09 at Tue Jan 28 00:36:23 2020.
