 Gaussian 09, Revision D.01,
 Gaussian 09:  ES64L-G09RevD.01 24-Apr-2013

 -----------------------------
 # b3lyp 6-31G(2df,p) opt Freq
 -----------------------------

 -----
 titel
 -----
 Symbolic Z-matrix:
 Charge =  0 Multiplicity = 1

 SCF Done:  E(RB3LYP) =  -423.196891335     A.U. after   14 cycles
 Optimization completed.
    -- Stationary point found.
 Normal termination of Gaussian 09 at Mon Jan 27 17:11:49 2020.

 ----------------------------------------------------------------------
 #N Geom=AllCheck Guess=TCheck SCRF=Check GenChk RB3LYP/6-31G(2df,p) Fr
 eq
 ----------------------------------------------------------------------

 Structure from the checkpoint file:  "/scratch/puck/g09_7ae6eb06-1dae-4f18-b498-273d38ece7a6/Gau-166012.chk"
 -----
 titel
 -----
 Charge =  0 Multiplicity = 1

                         Standard orientation:
 ---------------------------------------------------------------------
 Center     Atomic      Atomic             Coordinates (Angstroms)
 Number     Number       Type             X           Y           Z
 ---------------------------------------------------------------------
      1          6           0        2.218393   -0.757255   -0.000012
      2          6           0        0.736652   -0.448918    0.000007
      3          6           0       -0.217073   -1.085107   -1.072998
      4          6           0       -1.329493   -1.001567    0.000018
      5          6           0       -0.217100   -1.085013    1.073068
      6          8           0       -1.966402    0.264065   -0.000067
      7          6           0       -1.077327    1.374026   -0.000006
      8          6           0        0.421532    1.034330   -0.000021
      9          8           0        1.250180    1.912264    0.000004
     10          1           0        2.707440   -0.331206   -0.881010
     11          1           0        2.707759   -0.329876    0.880156
     12          1           0        2.384378   -1.839161    0.000743
     13          1           0       -0.379324   -0.557171   -2.016363
     14          1           0        0.076851   -2.118361   -1.275976
     15          1           0       -2.131830   -1.740042    0.000045
     16          1           0       -0.379367   -0.557007    2.016390
     17          1           0        0.076817   -2.118252    1.276129
     18          1           0       -1.273237    1.998777   -0.881179
     19          1           0       -1.273214    1.998685    0.881240
 ---------------------------------------------------------------------

 SCF Done:  E(RB3LYP) =  -423.196891335     A.U. after    1 cycles

 The electronic state is 1-A.
 Alpha  occ. eigenvalues --  -19.14779 -19.13244 -10.27015 -10.24512 -10.23757
 Alpha  occ. eigenvalues --  -10.21008 -10.19583 -10.19583 -10.17895  -1.05187
 Alpha  occ. eigenvalues --   -1.03692  -0.86285  -0.75372  -0.71929  -0.67875
 Alpha  occ. eigenvalues --   -0.62511  -0.60187  -0.51423  -0.50041  -0.47687
 Alpha  occ. eigenvalues --   -0.47318  -0.45663  -0.43730  -0.41973  -0.39995
 Alpha  occ. eigenvalues --   -0.39243  -0.38421  -0.38246  -0.36213  -0.35272
 Alpha  occ. eigenvalues --   -0.31924  -0.29914  -0.25373  -0.24329
 Alpha virt. eigenvalues --   -0.01531   0.08069   0.08871   0.10147   0.12645
 Alpha virt. eigenvalues --    0.12795   0.14701   0.15808   0.16282   0.16928
 Alpha virt. eigenvalues --    0.17107   0.19018   0.19688   0.20384   0.21585

 Mulliken charges:
               1
     1  C   -0.481017
     2  C    0.187114
     3  C   -0.285822
     4  C    0.127910
     5  C   -0.285826
     6  O   -0.273654
     7  C   -0.173889
     8  C    0.350159
     9  O   -0.330718
    10  H    0.131311
    11  H    0.131339
    12  H    0.107037
    13  H    0.109559
    14  H    0.110047
    15  H    0.084865
    16  H    0.109561
    17  H    0.110049
    18  H    0.135989
    19  H    0.135986
 Sum of Mulliken charges =   0.00000

 Dipole moment (field-independent basis, Debye):
    X=             -0.4028    Y=             -2.3104    Z=              0.0001  Tot=              2.3452
 Quadrupole moment (field-independent basis, Debye-Ang):
   XX=            -58.9824   YY=            -54.0914   ZZ=            -51.1911
   XY=             -3.8163   XZ=             -0.0003   YZ=             -0.0001

  Exact polarizability:  78.262   0.809  81.077  -0.001   0.000  65.005
 Approx polarizability: 111.959   7.729 119.941   0.000   0.000  99.068

                      1                      2                      3
                      A                      A                      A
 Frequencies --     64.7452               153.5965               190.8723
 Red. masses --      2.7182                 2.3450                 1.1829
 Frc consts  --      0.0067                 0.0326                 0.0254
 IR Inten    --      7.2979                 0.8510                 0.2753

                      4                      5                      6
                      A                      A                      A
 Frequencies --    264.4132               303.2262               390.9112
 Red. masses --      2.9053                 2.6541                 2.5859
 Frc consts  --      0.1197                 0.1438                 0.2328
 IR Inten    --      3.1140                 0.4199                 0.5885

                      7                      8                      9
                      A                      A                      A
 Frequencies --    409.1992               419.6755               500.4869
 Red. masses --      4.7356                 2.3834                 3.4774
 Frc consts  --      0.4672                 0.2473                 0.5132
 IR Inten    --      5.7960                 2.4113                 9.8900

                     10                     11                     12
                      A                      A                      A
 Frequencies --    562.0856               592.2485               663.2388
 Red. masses --      5.6516                 2.5075                 3.1612
 Frc consts  --      1.0520                 0.5182                 0.8193
 IR Inten    --      2.0735                 2.2450                 5.7629

                     13                     14                     15
                      A                      A                      A
 Frequencies --    763.2786               828.3274               853.0900
 Red. masses --      3.2673                 1.8577                 2.7182
 Frc consts  --      1.1215                 0.7510                 1.1655
 IR Inten    --      7.7742                 0.2518                19.9102

                     16                     17                     18
                      A                      A                      A
 Frequencies --    854.8354               920.4016               952.4296
 Red. masses --      2.4507                 3.1016                 1.6089
 Frc consts  --      1.0551                 1.5481                 0.8599
 IR Inten    --      2.5207                 1.5452                 3.6617

                     19                     20                     21
                      A                      A                      A
 Frequencies --    971.4811              1010.3222              1011.0796
 Red. masses --      2.4439                 1.4670                 2.0701
 Frc consts  --      1.3590                 0.8823                 1.2468
 IR Inten    --     29.1882                 2.0622                 2.4196

                     22                     23                     24
                      A                      A                      A
 Frequencies --   1070.6010              1076.8772              1110.9051
 Red. masses --      1.0861                 2.8875                 3.6252
 Frc consts  --      0.7335                 1.9729                 2.6359
 IR Inten    --      0.6311                44.0896                25.6825

                     25                     26                     27
                      A                      A                      A
 Frequencies --   1116.8721              1196.9088              1213.1949
 Red. masses --      1.9650                 3.2105                 1.5782
 Frc consts  --      1.4442                 2.7098                 1.3686
 IR Inten    --      0.0407                89.2522                 2.3608

                     28                     29                     30
                      A                      A                      A
 Frequencies --   1232.2109              1233.7281              1258.9207
 Red. masses --      1.1226                 2.6311                 1.4727
 Frc consts  --      1.0042                 2.3595                 1.3752
 IR Inten    --      0.1438                 5.0040                 0.1163

                     31                     32                     33
                      A                      A                      A
 Frequencies --   1262.5871              1343.1399              1346.3200
 Red. masses --      1.8893                 1.2389                 3.0395
 Frc consts  --      1.7745                 1.3168                 3.2460
 IR Inten    --     19.0414                 1.5139                12.6167

                     34                     35                     36
                      A                      A                      A
 Frequencies --   1388.3574              1412.5143              1469.2019
 Red. masses --      1.3799                 1.2974                 1.0887
 Frc consts  --      1.5671                 1.5252                 1.3846
 IR Inten    --      9.3746                 2.7095                 3.7543

                     37                     38                     39
                      A                      A                      A
 Frequencies --   1476.7842              1483.0290              1487.1899
 Red. masses --      1.0813                 1.0457                 1.0572
 Frc consts  --      1.3894                 1.3550                 1.3776
 IR Inten    --      7.6676                 4.0237                 5.2446

                     40                     41                     42
                      A                      A                      A
 Frequencies --   1501.6526              1819.2307              3018.6809
 Red. masses --      1.1260                12.5683                 1.0575
 Frc consts  --      1.4959                24.5077                 5.6776
 IR Inten    --      4.6376               188.5874                30.7996

                     43                     44                     45
                      A                      A                      A
 Frequencies --   3038.9851              3049.4775              3055.1357
 Red. masses --      1.0356                 1.1021                 1.0590
 Frc consts  --      5.6348                 6.0386                 5.8236
 IR Inten    --     18.5007                 3.4171                44.9015

                     46                     47                     48
                      A                      A                      A
 Frequencies --   3059.3912              3109.0056              3110.4133
 Red. masses --      1.0581                 1.0952                 1.0994
 Frc consts  --      5.8348                 6.2373                 6.2669
 IR Inten    --      6.0379                45.7000                 3.9096

                     49                     50                     51
                      A                      A                      A
 Frequencies --   3114.0943              3115.5849              3117.8807
 Red. masses --      1.1008                 1.1098                 1.1060
 Frc consts  --      6.2895                 6.3471                 6.3348
 IR Inten    --     15.5428                 9.3253                41.3946

 - Thermochemistry -
 -------------------
 Temperature   298.150 Kelvin.  Pressure   1.00000 Atm.
 Atom     1 has atomic number  6 and mass  12.00000

 Molecular mass:   126.06808 amu.
 Principal axes and moments of inertia in atomic units:
                           1         2         3
     Eigenvalues --   749.93095 938.300951386.55496
           X            0.98963  -0.14367   0.00000
           Y            0.14367   0.98963   0.00000
           Z            0.00000   0.00000   1.00000
 This molecule is an asymmetric top.
 Rotational symmetry number  1.
 Warning -- assumption of classical behavior for rotation
           may cause significant error
 Rotational temperatures (Kelvin)      0.11550     0.09231     0.06247
 Rotational constants (GHZ):           2.40654     1.92341     1.30160
 Zero-point vibrational energy     418506.5 (Joules/Mol)
                                  100.02545 (Kcal/Mol)
 Warning -- explicit consideration of  11 degrees of freedom as
           vibrations may cause significant error
 Vibrational temperatures:     93.15   220.99   274.62   380.43   436.27
          (Kelvin)            562.43   588.75   603.82   720.09   808.71
                              852.11   954.25  1098.19  1191.78  1227.40
                             1229.92  1324.25  1370.33  1397.74  1453.63
                             1454.72  1540.35  1549.38  1598.34  1606.93
                             1722.08  1745.51  1772.87  1775.06  1811.30
                             1816.58  1932.48  1937.05  1997.53  2032.29
                             2113.85  2124.76  2133.75  2139.73  2160.54
                             2617.46  4343.20  4372.42  4387.51  4395.65
                             4401.78  4473.16  4475.19  4480.48  4482.63
                             4485.93

 Zero-point correction=                           0.159401 (Hartree/Particle)
 Thermal correction to Energy=                    0.167487
 Thermal correction to Enthalpy=                  0.168432
 Thermal correction to Gibbs Free Energy=         0.126771
 Sum of electronic and zero-point Energies=           -423.037491
 Sum of electronic and thermal Energies=              -423.029404
 Sum of electronic and thermal Enthalpies=            -423.028460
 Sum of electronic and thermal Free Energies=         -423.070120

                     E (Thermal)             CV                S
                      KCal/Mol        Cal/Mol-Kelvin    Cal/Mol-Kelvin
 Total                  105.100             31.405             87.682
 Electronic               0.000              0.000              0.000
 Translational            0.889              2.981             40.409
 Rotational               0.889              2.981             28.369
 Vibrational            103.322             25.444             18.905
 Vibration     1          0.597              1.971              4.307
 Vibration     2          0.619              1.899              2.627
 Vibration     3          0.634              1.852              2.219
 Vibration     4          0.671              1.738              1.632
 Vibration     5          0.695              1.668              1.399
 Vibration     6          0.759              1.490              0.997
 Vibration     7          0.774              1.450              0.929
 Vibration     8          0.782              1.427              0.893
 Vibration     9          0.856              1.249              0.657
 Vibration    10          0.918              1.113              0.520
 Vibration    11          0.950              1.048              0.463

 Optimization completed.
    -- Stationary point found.
 Normal termination of Gaussian 09 at Mon Jan 27 17:59:51 2020.
