 Gaussian 09, Revision D.01,
 Gaussian 09:  ES64L-G09RevD.01 24-Apr-2013

 -----------------------------
 # b3lyp 6-31G(2df,p) opt Freq
 -----------------------------

 -----
 titel
 -----
 Symbolic Z-matrix:
 Charge =  0 Multiplicity = 1

 SCF Done:  E(RB3LYP) =  -423.165342935     A.U. after   13 cycles
 Optimization completed.
    -- Stationary point found.
 Normal termination of Gaussian 09 at Mon Jan 27 18:12:24 2020.

 ----------------------------------------------------------------------
 #N Geom=AllCheck Guess=TCheck SCRF=Check GenChk RB3LYP/6-31G(2df,p) Fr
 eq
 ----------------------------------------------------------------------

 Structure from the checkpoint file:  "/scratch/puck/g09_b391c9ed-d200-4dfd-8436-c27f184effff/Gau-149691.chk"
 -----
 titel
 -----
 Charge =  0 Multiplicity = 1

                         Standard orientation:
 ---------------------------------------------------------------------
 Center     Atomic      Atomic             Coordinates (Angstroms)
 Number     Number       Type             X           Y           Z
 ---------------------------------------------------------------------
      1          6           0       -2.392243    0.028271    0.387980
      2          6           0       -0.937140   -0.022651   -0.028401
      3          6           0       -0.468952   -1.275768   -0.850428
      4          6           0        0.747640   -1.413577    0.084087
      5          8           0        1.828870   -0.529158   -0.294212
      6          6           0        1.329966    0.534549    0.556406
      7          6           0        0.693620    1.669902   -0.230894
      8          8           0       -0.590020    1.215501   -0.653093
      9          6           0        0.161043   -0.339285    1.036549
     10          1           0       -3.030951    0.181621   -0.487785
     11          1           0       -2.695053   -0.904013    0.874272
     12          1           0       -2.563222    0.857228    1.081919
     13          1           0       -1.163924   -2.114888   -0.743031
     14          1           0       -0.252017   -1.104737   -1.906437
     15          1           0        1.106947   -2.403493    0.371045
     16          1           0        2.089326    0.864106    1.272373
     17          1           0        0.585382    2.563546    0.402341
     18          1           0        1.296764    1.934110   -1.107022
     19          1           0       -0.087652   -0.452864    2.088974
 ---------------------------------------------------------------------

 SCF Done:  E(RB3LYP) =  -423.165342935     A.U. after    1 cycles

 The electronic state is 1-A.
 Alpha  occ. eigenvalues --  -19.13326 -19.13311 -10.23931 -10.23713 -10.23482
 Alpha  occ. eigenvalues --  -10.22473 -10.19066 -10.17691 -10.17640  -1.05429
 Alpha  occ. eigenvalues --   -1.01609  -0.82325  -0.75302  -0.72131  -0.67118
 Alpha  occ. eigenvalues --   -0.62886  -0.56102  -0.52956  -0.51912  -0.48666
 Alpha  occ. eigenvalues --   -0.46253  -0.45315  -0.42979  -0.42605  -0.40449
 Alpha  occ. eigenvalues --   -0.38329  -0.37862  -0.36866  -0.33596  -0.32004
 Alpha  occ. eigenvalues --   -0.30139  -0.28450  -0.24812  -0.24269
 Alpha virt. eigenvalues --    0.07315   0.08809   0.10358   0.11921   0.12473
 Alpha virt. eigenvalues --    0.13623   0.14658   0.15402   0.16646   0.17155
 Alpha virt. eigenvalues --    0.17655   0.18079   0.18576   0.20022   0.21231

 Mulliken charges:
               1
     1  C   -0.458807
     2  C    0.420082
     3  C   -0.281014
     4  C    0.110148
     5  O   -0.313589
     6  C    0.100015
     7  C   -0.098635
     8  O   -0.309739
     9  C   -0.179425
    10  H    0.129443
    11  H    0.111876
    12  H    0.119053
    13  H    0.096319
    14  H    0.111575
    15  H    0.078924
    16  H    0.080278
    17  H    0.092832
    18  H    0.115275
    19  H    0.075390
 Sum of Mulliken charges =   0.00000

 Dipole moment (field-independent basis, Debye):
    X=             -0.6685    Y=             -0.4409    Z=              1.7666  Tot=              1.9396
 Quadrupole moment (field-independent basis, Debye-Ang):
   XX=            -55.6400   YY=            -51.2360   ZZ=            -52.5766
   XY=              3.8111   XZ=              0.8328   YZ=              0.9746

  Exact polarizability:  77.472   4.293  78.480   0.929   2.165  65.851
 Approx polarizability: 106.833   4.385 111.866   0.367   2.153 100.985

                      1                      2                      3
                      A                      A                      A
 Frequencies --    101.0534               231.2490               247.2727
 Red. masses --      3.0746                 1.1788                 2.3649
 Frc consts  --      0.0185                 0.0371                 0.0852
 IR Inten    --      3.2181                 0.1338                 0.8437

                      4                      5                      6
                      A                      A                      A
 Frequencies --    293.2613               356.7781               387.2127
 Red. masses --      2.4571                 2.5521                 3.1223
 Frc consts  --      0.1245                 0.1914                 0.2758
 IR Inten    --      1.1960                 2.5154                 2.5942

                      7                      8                      9
                      A                      A                      A
 Frequencies --    420.4518               571.7584               652.9432
 Red. masses --      2.1784                 3.5288                 5.5176
 Frc consts  --      0.2269                 0.6797                 1.3860
 IR Inten    --      1.0541                 2.2855                 8.4397

                     10                     11                     12
                      A                      A                      A
 Frequencies --    711.1573               769.9325               806.2106
 Red. masses --      4.3298                 3.9529                 2.2488
 Frc consts  --      1.2902                 1.3806                 0.8612
 IR Inten    --      0.5074                 1.8444                11.9042

                     13                     14                     15
                      A                      A                      A
 Frequencies --    847.7260               869.6032               884.0630
 Red. masses --      2.1264                 2.0538                 2.3679
 Frc consts  --      0.9003                 0.9151                 1.0904
 IR Inten    --     17.6332                11.2699                 6.8440

                     16                     17                     18
                      A                      A                      A
 Frequencies --    897.8412               923.8576               947.9055
 Red. masses --      2.2357                 1.8525                 2.1178
 Frc consts  --      1.0618                 0.9316                 1.1211
 IR Inten    --      8.6470                 8.1663                 1.9632

                     19                     20                     21
                      A                      A                      A
 Frequencies --    974.0784               984.1787              1006.6766
 Red. masses --      2.3011                 2.7932                 1.9556
 Frc consts  --      1.2864                 1.5941                 1.1676
 IR Inten    --      5.9031                 4.2073                38.1065

                     22                     23                     24
                      A                      A                      A
 Frequencies --   1066.6304              1093.7998              1106.8774
 Red. masses --      2.3209                 4.2306                 1.6401
 Frc consts  --      1.5558                 2.9821                 1.1839
 IR Inten    --      9.6325                74.1636                59.8076

                     25                     26                     27
                      A                      A                      A
 Frequencies --   1153.1453              1164.3360              1190.2324
 Red. masses --      2.5176                 2.3202                 1.8433
 Frc consts  --      1.9724                 1.8533                 1.5385
 IR Inten    --      7.3054                10.3005                24.5694

                     28                     29                     30
                      A                      A                      A
 Frequencies --   1196.7184              1215.9555              1230.4913
 Red. masses --      1.9639                 1.2640                 1.4101
 Frc consts  --      1.6571                 1.1011                 1.2579
 IR Inten    --     13.6752                 5.6143                 0.2035

                     31                     32                     33
                      A                      A                      A
 Frequencies --   1246.6796              1295.2749              1308.5473
 Red. masses --      1.8703                 1.4623                 1.9009
 Frc consts  --      1.7126                 1.4454                 1.9178
 IR Inten    --     17.7195                 6.7281                21.6192

                     34                     35                     36
                      A                      A                      A
 Frequencies --   1319.2571              1348.6845              1383.1773
 Red. masses --      2.0841                 1.4436                 1.4002
 Frc consts  --      2.1372                 1.5471                 1.5783
 IR Inten    --     19.9764                 2.1673                 0.6615

                     37                     38                     39
                      A                      A                      A
 Frequencies --   1410.4927              1451.1553              1483.5924
 Red. masses --      1.3354                 1.1151                 1.0512
 Frc consts  --      1.5653                 1.3835                 1.3632
 IR Inten    --      7.2055                 3.4395                 2.0965

                     40                     41                     42
                      A                      A                      A
 Frequencies --   1492.4597              1505.4680              2990.8809
 Red. masses --      1.0503                 1.0907                 1.0670
 Frc consts  --      1.3783                 1.4565                 5.6236
 IR Inten    --      1.8130                 0.9987                62.3209

                     43                     44                     45
                      A                      A                      A
 Frequencies --   3035.3121              3051.9823              3061.3410
 Red. masses --      1.0352                 1.0610                 1.0888
 Frc consts  --      5.6191                 5.8227                 6.0121
 IR Inten    --     15.9880                27.0439                56.6348

                     46                     47                     48
                      A                      A                      A
 Frequencies --   3062.2135              3092.6541              3108.5799
 Red. masses --      1.0954                 1.0896                 1.1017
 Frc consts  --      6.0519                 6.1402                 6.2723
 IR Inten    --     28.1841                57.5831                16.6592

                     49                     50                     51
                      A                      A                      A
 Frequencies --   3111.4263              3126.6953              3143.1295
 Red. masses --      1.1016                 1.1050                 1.0926
 Frc consts  --      6.2834                 6.3646                 6.3594
 IR Inten    --     18.9922                17.0455                21.2165

 - Thermochemistry -
 -------------------
 Temperature   298.150 Kelvin.  Pressure   1.00000 Atm.
 Atom     1 has atomic number  6 and mass  12.00000

 Molecular mass:   126.06808 amu.
 Principal axes and moments of inertia in atomic units:
                           1         2         3
     Eigenvalues --   656.95963 919.365901219.63961
           X            0.99706   0.07649  -0.00358
           Y           -0.07639   0.99684   0.02168
           Z            0.00522  -0.02134   0.99976
 This molecule is an asymmetric top.
 Rotational symmetry number  1.
 Warning -- assumption of classical behavior for rotation
           may cause significant error
 Rotational temperatures (Kelvin)      0.13184     0.09421     0.07102
 Rotational constants (GHZ):           2.74711     1.96303     1.47973
 Zero-point vibrational energy     420681.2 (Joules/Mol)
                                  100.54521 (Kcal/Mol)
 Warning -- explicit consideration of   8 degrees of freedom as
           vibrations may cause significant error
 Vibrational temperatures:    145.39   332.72   355.77   421.94   513.32
          (Kelvin)            557.11   604.94   822.63   939.44  1023.20
                             1107.76  1159.96  1219.69  1251.16  1271.97
                             1291.79  1329.22  1363.82  1401.48  1416.01
                             1448.38  1534.64  1573.73  1592.55  1659.12
                             1675.22  1712.48  1721.81  1749.49  1770.40
                             1793.69  1863.61  1882.71  1898.11  1940.45
                             1990.08  2029.38  2087.89  2134.56  2147.31
                             2166.03  4303.21  4367.13  4391.12  4404.58
                             4405.84  4449.63  4472.55  4476.64  4498.61
                             4522.26

 Zero-point correction=                           0.160229 (Hartree/Particle)
 Thermal correction to Energy=                    0.167497
 Thermal correction to Enthalpy=                  0.168441
 Thermal correction to Gibbs Free Energy=         0.128780
 Sum of electronic and zero-point Energies=           -423.005114
 Sum of electronic and thermal Energies=              -422.997846
 Sum of electronic and thermal Enthalpies=            -422.996902
 Sum of electronic and thermal Free Energies=         -423.036563

                     E (Thermal)             CV                S
                      KCal/Mol        Cal/Mol-Kelvin    Cal/Mol-Kelvin
 Total                  105.106             29.431             83.474
 Electronic               0.000              0.000              0.000
 Translational            0.889              2.981             40.409
 Rotational               0.889              2.981             28.090
 Vibrational            103.328             23.469             14.975
 Vibration     1          0.604              1.948              3.434
 Vibration     2          0.653              1.793              1.869
 Vibration     3          0.661              1.767              1.750
 Vibration     4          0.688              1.686              1.455
 Vibration     5          0.732              1.561              1.136
 Vibration     6          0.756              1.497              1.011
 Vibration     7          0.783              1.426              0.890
 Vibration     8          0.928              1.092              0.501

 Optimization completed.
    -- Stationary point found.
 Normal termination of Gaussian 09 at Mon Jan 27 19:06:24 2020.
