 Gaussian 09, Revision D.01,
 Gaussian 09:  ES64L-G09RevD.01 24-Apr-2013

 -----------------------------
 # b3lyp 6-31G(2df,p) opt Freq
 -----------------------------

 -----
 titel
 -----
 Symbolic Z-matrix:
 Charge =  0 Multiplicity = 1

 SCF Done:  E(RB3LYP) =  -423.186895130     A.U. after   13 cycles
 Optimization completed.
    -- Stationary point found.
 Normal termination of Gaussian 09 at Mon Jan 27 22:06:42 2020.

 ----------------------------------------------------------------------
 #N Geom=AllCheck Guess=TCheck SCRF=Check GenChk RB3LYP/6-31G(2df,p) Fr
 eq
 ----------------------------------------------------------------------

 Structure from the checkpoint file:  "/scratch/puck/g09_9e833cca-0e4f-44f3-8909-8742fb51292a/Gau-116807.chk"
 -----
 titel
 -----
 Charge =  0 Multiplicity = 1

                         Standard orientation:
 ---------------------------------------------------------------------
 Center     Atomic      Atomic             Coordinates (Angstroms)
 Number     Number       Type             X           Y           Z
 ---------------------------------------------------------------------
      1          6           0       -2.559627   -0.649363   -0.083575
      2          6           0       -1.151605   -0.430652   -0.626716
      3          6           0       -0.022630   -1.067895    0.177815
      4          6           0        0.357932    0.005928    1.197697
      5          8           0       -0.466603    1.135507    0.973542
      6          6           0       -0.590203    1.002925   -0.439521
      7          8           0        0.746546    0.895533   -0.908582
      8          6           0        1.181773   -0.159837   -0.056816
      9          6           0        2.618134   -0.546776   -0.181550
     10          1           0       -2.838197   -1.706726   -0.132102
     11          1           0       -2.627696   -0.324431    0.957723
     12          1           0       -3.297432   -0.086646   -0.666151
     13          1           0       -1.086962   -0.702172   -1.685011
     14          1           0        0.060673   -2.128656    0.370945
     15          1           0        0.678845   -0.140124    2.218691
     16          1           0       -1.100695    1.858495   -0.874172
     17          1           0        2.868974   -1.315564    0.554836
     18          1           0        2.833614   -0.946676   -1.177735
     19          1           0        3.266692    0.318196   -0.010714
 ---------------------------------------------------------------------

 SCF Done:  E(RB3LYP) =  -423.186895130     A.U. after    1 cycles

 The electronic state is 1-A.
 Alpha  occ. eigenvalues --  -19.14892 -19.14625 -10.27448 -10.23843 -10.23206
 Alpha  occ. eigenvalues --  -10.19200 -10.18898 -10.18687 -10.17519  -1.10575
 Alpha  occ. eigenvalues --   -0.99592  -0.84162  -0.78493  -0.72234  -0.67503
 Alpha  occ. eigenvalues --   -0.60138  -0.58320  -0.55968  -0.52234  -0.48219
 Alpha  occ. eigenvalues --   -0.46228  -0.42016  -0.41728  -0.41585  -0.40954
 Alpha  occ. eigenvalues --   -0.40181  -0.38353  -0.38108  -0.35115  -0.34690
 Alpha  occ. eigenvalues --   -0.30891  -0.30117  -0.25581  -0.23347
 Alpha virt. eigenvalues --    0.09527   0.10258   0.11240   0.13383   0.13703
 Alpha virt. eigenvalues --    0.14549   0.14619   0.15296   0.16072   0.16811
 Alpha virt. eigenvalues --    0.17474   0.18828   0.19428   0.20937   0.22203

 Mulliken charges:
               1
     1  C   -0.412987
     2  C    0.005513
     3  C   -0.223555
     4  C   -0.005496
     5  O   -0.251677
     6  C    0.129026
     7  O   -0.280579
     8  C    0.410536
     9  C   -0.502738
    10  H    0.115088
    11  H    0.133378
    12  H    0.113033
    13  H    0.083336
    14  H    0.091579
    15  H    0.109925
    16  H    0.095001
    17  H    0.123748
    18  H    0.131042
    19  H    0.135827
 Sum of Mulliken charges =   0.00000

 Dipole moment (field-independent basis, Debye):
    X=              0.0220    Y=             -1.7864    Z=              0.0416  Tot=              1.7870
 Quadrupole moment (field-independent basis, Debye-Ang):
   XX=            -50.7342   YY=            -53.5279   ZZ=            -53.3555
   XY=             -2.0443   XZ=              3.3558   YZ=             -1.6643

  Exact polarizability:  85.819  -1.450  67.743   2.388  -1.390  66.368
 Approx polarizability: 109.457  -1.921 105.619   0.654  -1.264 106.071

                      1                      2                      3
                      A                      A                      A
 Frequencies --    176.8344               200.4294               211.4688
 Red. masses --      2.3201                 1.0410                 1.1029
 Frc consts  --      0.0427                 0.0246                 0.0291
 IR Inten    --      0.4056                 0.1643                 0.2135

                      4                      5                      6
                      A                      A                      A
 Frequencies --    225.3736               273.7650               329.6932
 Red. masses --      2.5552                 3.2401                 2.6373
 Frc consts  --      0.0765                 0.1431                 0.1689
 IR Inten    --      0.5211                 1.6290                 0.8665

                      7                      8                      9
                      A                      A                      A
 Frequencies --    503.7343               576.1955               613.5581
 Red. masses --      4.0675                 5.8647                 3.9468
 Frc consts  --      0.6081                 1.1472                 0.8754
 IR Inten    --      1.2253                 6.5590                 3.7574

                     10                     11                     12
                      A                      A                      A
 Frequencies --    644.1661               721.0513               730.8602
 Red. masses --      3.6963                 3.4917                 4.6740
 Frc consts  --      0.9037                 1.0696                 1.4710
 IR Inten    --      5.7575                10.1749                 5.7428

                     13                     14                     15
                      A                      A                      A
 Frequencies --    791.6710               849.7203               870.2095
 Red. masses --      3.4530                 2.0492                 2.2271
 Frc consts  --      1.2751                 0.8717                 0.9937
 IR Inten    --      0.4468                 8.2437                39.1883

                     16                     17                     18
                      A                      A                      A
 Frequencies --    887.5940               913.3961               936.3927
 Red. masses --      2.7496                 2.5780                 2.3534
 Frc consts  --      1.2763                 1.2672                 1.2158
 IR Inten    --     37.5409                22.9277                12.0575

                     19                     20                     21
                      A                      A                      A
 Frequencies --    947.1129              1006.5577              1021.3502
 Red. masses --      1.8627                 2.2067                 1.6788
 Frc consts  --      0.9844                 1.3173                 1.0318
 IR Inten    --      8.0532                10.2719                 5.6768

                     22                     23                     24
                      A                      A                      A
 Frequencies --   1029.4723              1058.6330              1087.0988
 Red. masses --      1.7761                 2.3339                 3.1155
 Frc consts  --      1.1090                 1.5411                 2.1693
 IR Inten    --     14.6300                12.9249                59.7604

                     25                     26                     27
                      A                      A                      A
 Frequencies --   1098.7976              1122.2216              1131.0348
 Red. masses --      1.7249                 1.8320                 2.3382
 Frc consts  --      1.2270                 1.3593                 1.7623
 IR Inten    --     20.9415                13.5569                 0.8292

                     28                     29                     30
                      A                      A                      A
 Frequencies --   1184.7695              1213.3645              1234.0418
 Red. masses --      1.8482                 2.0248                 1.4787
 Frc consts  --      1.5285                 1.7564                 1.3268
 IR Inten    --      5.0976                18.7258                 5.9335

                     31                     32                     33
                      A                      A                      A
 Frequencies --   1281.4598              1294.2296              1338.5799
 Red. masses --      1.7925                 1.5296                 1.5378
 Frc consts  --      1.7343                 1.5095                 1.6234
 IR Inten    --      4.8212                13.2742                12.2547

                     34                     35                     36
                      A                      A                      A
 Frequencies --   1371.4602              1407.7436              1409.4546
 Red. masses --      1.6767                 1.2722                 1.2976
 Frc consts  --      1.8581                 1.4854                 1.5188
 IR Inten    --      3.3359                 1.4493                 5.8433

                     37                     38                     39
                      A                      A                      A
 Frequencies --   1450.0970              1478.2006              1497.0370
 Red. masses --      3.9015                 1.0458                 1.0471
 Frc consts  --      4.8337                 1.3463                 1.3826
 IR Inten    --      5.9117                 3.4323                 3.7334

                     40                     41                     42
                      A                      A                      A
 Frequencies --   1501.3790              1502.7792              3035.8108
 Red. masses --      1.0582                 1.0721                 1.0369
 Frc consts  --      1.4054                 1.4265                 5.6305
 IR Inten    --      2.2442                 4.7437                38.2967

                     43                     44                     45
                      A                      A                      A
 Frequencies --   3037.7796              3064.9401              3096.9510
 Red. masses --      1.0353                 1.0843                 1.1005
 Frc consts  --      5.6291                 6.0013                 6.2190
 IR Inten    --     21.9897                15.5801                22.7984

                     46                     47                     48
                      A                      A                      A
 Frequencies --   3103.4522              3116.1071              3124.6203
 Red. masses --      1.1016                 1.1007                 1.1003
 Frc consts  --      6.2511                 6.2970                 6.3295
 IR Inten    --     16.5149                14.2032                19.0740

                     49                     50                     51
                      A                      A                      A
 Frequencies --   3170.5836              3210.9826              3230.9529
 Red. masses --      1.0932                 1.0922                 1.0961
 Frc consts  --      6.4746                 6.6349                 6.7413
 IR Inten    --     23.6948                 4.0536                 6.2606

 - Thermochemistry -
 -------------------
 Temperature   298.150 Kelvin.  Pressure   1.00000 Atm.
 Atom     1 has atomic number  6 and mass  12.00000

 Molecular mass:   126.06808 amu.
 Principal axes and moments of inertia in atomic units:
                           1         2         3
     Eigenvalues --   535.082311189.101441258.30125
           X            0.99991  -0.00397   0.01296
           Y            0.00474   0.99816  -0.06051
           Z           -0.01269   0.06056   0.99808
 This molecule is an asymmetric top.
 Rotational symmetry number  1.
 Warning -- assumption of classical behavior for rotation
           may cause significant error
 Rotational temperatures (Kelvin)      0.16187     0.07284     0.06883
 Rotational constants (GHZ):           3.37283     1.51774     1.43427
 Zero-point vibrational energy     420578.1 (Joules/Mol)
                                  100.52058 (Kcal/Mol)
 Warning -- explicit consideration of   9 degrees of freedom as
           vibrations may cause significant error
 Vibrational temperatures:    254.42   288.37   304.26   324.26   393.89
          (Kelvin)            474.35   724.76   829.02   882.77   926.81
                             1037.43  1051.54  1139.04  1222.56  1252.04
                             1277.05  1314.17  1347.26  1362.68  1448.21
                             1469.49  1481.18  1523.13  1564.09  1580.92
                             1614.62  1627.30  1704.62  1745.76  1775.51
                             1843.73  1862.11  1925.92  1973.22  2025.43
                             2027.89  2086.36  2126.80  2153.90  2160.15
                             2162.16  4367.85  4370.68  4409.76  4455.82
                             4465.17  4483.38  4495.63  4561.76  4619.88
                             4648.61

 Zero-point correction=                           0.160190 (Hartree/Particle)
 Thermal correction to Energy=                    0.167739
 Thermal correction to Enthalpy=                  0.168683
 Thermal correction to Gibbs Free Energy=         0.128628
 Sum of electronic and zero-point Energies=           -423.026705
 Sum of electronic and thermal Energies=              -423.019156
 Sum of electronic and thermal Enthalpies=            -423.018212
 Sum of electronic and thermal Free Energies=         -423.058267

                     E (Thermal)             CV                S
                      KCal/Mol        Cal/Mol-Kelvin    Cal/Mol-Kelvin
 Total                  105.258             30.360             84.303
 Electronic               0.000              0.000              0.000
 Translational            0.889              2.981             40.409
 Rotational               0.889              2.981             28.173
 Vibrational            103.480             24.398             15.721
 Vibration     1          0.628              1.871              2.362
 Vibration     2          0.638              1.839              2.129
 Vibration     3          0.643              1.823              2.031
 Vibration     4          0.650              1.802              1.916
 Vibration     5          0.676              1.722              1.572
 Vibration     6          0.712              1.616              1.262
 Vibration     7          0.859              1.242              0.649
 Vibration     8          0.933              1.083              0.492
 Vibration     9          0.973              1.003              0.427

 Normal termination of Gaussian 09 at Mon Jan 27 23:02:40 2020.
