 Gaussian 09, Revision D.01,
 Gaussian 09:  ES64L-G09RevD.01 24-Apr-2013

 -----------------------------
 # b3lyp 6-31G(2df,p) opt Freq
 -----------------------------

 -----
 titel
 -----
 Symbolic Z-matrix:
 Charge =  0 Multiplicity = 1

 SCF Done:  E(RB3LYP) =  -423.217864588     A.U. after   14 cycles
 Optimization completed.
    -- Stationary point found.
 Normal termination of Gaussian 09 at Tue Jan 28 03:57:38 2020.

 ----------------------------------------------------------------------
 #N Geom=AllCheck Guess=TCheck SCRF=Check GenChk RB3LYP/6-31G(2df,p) Fr
 eq
 ----------------------------------------------------------------------

 Structure from the checkpoint file:  "/scratch/puck/g09_6bf4dbc3-8a72-4615-a3ba-c947640cbb2c/Gau-92973.chk"
 -----
 titel
 -----
 Charge =  0 Multiplicity = 1

                         Standard orientation:
 ---------------------------------------------------------------------
 Center     Atomic      Atomic             Coordinates (Angstroms)
 Number     Number       Type             X           Y           Z
 ---------------------------------------------------------------------
      1          6           0       -2.680310   -0.774261    0.380059
      2          6           0       -1.476418   -0.108270   -0.279428
      3          6           0       -1.400607    1.434427   -0.115977
      4          6           0        0.077421    1.715695   -0.120975
      5          6           0        0.793582    0.595021    0.047148
      6          6           0        2.247619    0.500308    0.101949
      7          8           0        2.843992   -0.552668    0.236766
      8          6           0       -0.103948   -0.619570    0.215615
      9          8           0        0.296823   -1.748080   -0.534409
     10          1           0       -2.644994   -1.858250    0.236073
     11          1           0       -2.700706   -0.577016    1.458285
     12          1           0       -3.621572   -0.408846   -0.043660
     13          1           0       -1.485207   -0.330441   -1.353245
     14          1           0       -1.941664    1.980020   -0.896977
     15          1           0       -1.840286    1.757461    0.840073
     16          1           0        0.497226    2.712369   -0.224055
     17          1           0        2.802127    1.458322    0.005160
     18          1           0       -0.156426   -0.876956    1.289412
     19          1           0        1.220942   -1.910777   -0.300277
 ---------------------------------------------------------------------

 SCF Done:  E(RB3LYP) =  -423.217864588     A.U. after    1 cycles

 The electronic state is 1-A.
 Alpha  occ. eigenvalues --  -19.14439 -19.12437 -10.27522 -10.23368 -10.21750
 Alpha  occ. eigenvalues --  -10.20064 -10.19641 -10.19260 -10.17692  -1.04854
 Alpha  occ. eigenvalues --   -1.00983  -0.85950  -0.76808  -0.71636  -0.67361
 Alpha  occ. eigenvalues --   -0.61824  -0.57392  -0.55245  -0.50754  -0.48854
 Alpha  occ. eigenvalues --   -0.45872  -0.44799  -0.42064  -0.41819  -0.40890
 Alpha  occ. eigenvalues --   -0.39848  -0.38864  -0.36567  -0.34519  -0.33769
 Alpha  occ. eigenvalues --   -0.32002  -0.27439  -0.26330  -0.25478
 Alpha virt. eigenvalues --   -0.06560   0.05344   0.08864   0.11057   0.11672
 Alpha virt. eigenvalues --    0.12478   0.14191   0.15102   0.15916   0.16794
 Alpha virt. eigenvalues --    0.17164   0.18066   0.19075   0.20710   0.23000

 Mulliken charges:
               1
     1  C   -0.417514
     2  C    0.031621
     3  C   -0.282233
     4  C   -0.157765
     5  C    0.216070
     6  C    0.068624
     7  O   -0.293682
     8  C    0.022991
     9  O   -0.444993
    10  H    0.134693
    11  H    0.111844
    12  H    0.112628
    13  H    0.096491
    14  H    0.117924
    15  H    0.120194
    16  H    0.113197
    17  H    0.083801
    18  H    0.070459
    19  H    0.295652
 Sum of Mulliken charges =   0.00000

 Dipole moment (field-independent basis, Debye):
    X=             -1.6757    Y=              3.0594    Z=              0.4540  Tot=              3.5176
 Quadrupole moment (field-independent basis, Debye-Ang):
   XX=            -56.9340   YY=            -52.1159   ZZ=            -53.6042
   XY=              2.1738   XZ=             -0.6572   YZ=             -1.5206

  Exact polarizability: 100.162  -7.943  85.603   1.209  -2.804  55.215
 Approx polarizability: 140.679 -31.338 140.327   4.958  -5.137  88.403

                      1                      2                      3
                      A                      A                      A
 Frequencies --     68.7723               132.4931               184.1573
 Red. masses --      4.1569                 3.5139                 5.2422
 Frc consts  --      0.0116                 0.0363                 0.1047
 IR Inten    --      0.6030                 3.0082                 9.8659

                      4                      5                      6
                      A                      A                      A
 Frequencies --    232.9559               249.0103               287.4952
 Red. masses --      1.5180                 1.8386                 2.6454
 Frc consts  --      0.0485                 0.0672                 0.1288
 IR Inten    --      2.2423                 1.1500                 1.2050

                      7                      8                      9
                      A                      A                      A
 Frequencies --    296.9497               380.3033               435.1116
 Red. masses --      2.1432                 2.8263                 3.2336
 Frc consts  --      0.1113                 0.2408                 0.3607
 IR Inten    --      8.1986                 7.3161                 2.3246

                     10                     11                     12
                      A                      A                      A
 Frequencies --    462.2457               513.2346               589.0860
 Red. masses --      2.6084                 1.2247                 4.2017
 Frc consts  --      0.3284                 0.1901                 0.8591
 IR Inten    --     24.0352                94.7478                 6.7178

                     13                     14                     15
                      A                      A                      A
 Frequencies --    611.2028               738.6778               822.9836
 Red. masses --      4.9116                 4.7639                 1.4705
 Frc consts  --      1.0810                 1.5315                 0.5868
 IR Inten    --      5.4614                18.3398                 3.8449

                     16                     17                     18
                      A                      A                      A
 Frequencies --    842.6686               890.5660               923.2517
 Red. masses --      2.1196                 2.6682                 1.6679
 Frc consts  --      0.8868                 1.2468                 0.8376
 IR Inten    --      7.8896                10.0601                 9.3359

                     19                     20                     21
                      A                      A                      A
 Frequencies --    944.9366               989.5205              1037.1744
 Red. masses --      1.5003                 1.7825                 1.8029
 Frc consts  --      0.7893                 1.0284                 1.1427
 IR Inten    --      1.4730                15.1324                 0.1483

                     22                     23                     24
                      A                      A                      A
 Frequencies --   1075.4262              1107.2596              1111.7190
 Red. masses --      1.9719                 3.0550                 2.6508
 Frc consts  --      1.3437                 2.2068                 1.9303
 IR Inten    --     26.1906                19.0983                41.6377

                     25                     26                     27
                      A                      A                      A
 Frequencies --   1140.7177              1187.1279              1223.5950
 Red. masses --      1.7606                 1.4504                 2.0063
 Frc consts  --      1.3498                 1.2043                 1.7698
 IR Inten    --      7.1785                 0.5493                28.1257

                     28                     29                     30
                      A                      A                      A
 Frequencies --   1260.3404              1291.7422              1316.6372
 Red. masses --      1.2870                 1.3741                 1.4226
 Frc consts  --      1.2045                 1.3509                 1.4530
 IR Inten    --     12.0667                 7.9080                31.7081

                     31                     32                     33
                      A                      A                      A
 Frequencies --   1333.6593              1367.3284              1371.2742
 Red. masses --      1.4441                 1.4119                 2.0786
 Frc consts  --      1.5133                 1.5552                 2.3028
 IR Inten    --     28.1971                 0.8189                62.4468

                     34                     35                     36
                      A                      A                      A
 Frequencies --   1411.2256              1414.8850              1430.5600
 Red. masses --      1.2679                 1.2568                 1.5452
 Frc consts  --      1.4878                 1.4824                 1.8631
 IR Inten    --      1.9862                 2.0236                35.6406

                     37                     38                     39
                      A                      A                      A
 Frequencies --   1475.7242              1496.8176              1502.5196
 Red. masses --      1.1018                 1.0510                 1.0469
 Frc consts  --      1.4137                 1.3874                 1.3925
 IR Inten    --      4.1669                 3.0835                 6.0728

                     40                     41                     42
                      A                      A                      A
 Frequencies --   1683.7496              1757.0995              2901.8442
 Red. masses --      7.2971                 9.5683                 1.0839
 Frc consts  --     12.1887                17.4051                 5.3775
 IR Inten    --     45.5043               251.6681               120.6045

                     43                     44                     45
                      A                      A                      A
 Frequencies --   2929.0071              2999.0507              3028.5661
 Red. masses --      1.0806                 1.0700                 1.0383
 Frc consts  --      5.4622                 5.6700                 5.6111
 IR Inten    --     47.4932                15.2435                21.9477

                     46                     47                     48
                      A                      A                      A
 Frequencies --   3040.1709              3063.2281              3094.4605
 Red. masses --      1.0808                 1.0911                 1.1003
 Frc consts  --      5.8857                 6.0323                 6.2079
 IR Inten    --     15.5476                20.0586                37.8574

                     49                     50                     51
                      A                      A                      A
 Frequencies --   3109.8515              3176.8967              3751.8672
 Red. masses --      1.1010                 1.0932                 1.0655
 Frc consts  --      6.2734                 6.5009                 8.8367
 IR Inten    --     16.0909                13.8518                66.4543

 - Thermochemistry -
 -------------------
 Temperature   298.150 Kelvin.  Pressure   1.00000 Atm.
 Atom     1 has atomic number  6 and mass  12.00000

 Molecular mass:   126.06808 amu.
 Principal axes and moments of inertia in atomic units:
                           1         2         3
     Eigenvalues --   623.368861420.086241925.61212
           X            0.99978   0.01956  -0.00819
           Y           -0.01969   0.99968  -0.01603
           Z            0.00788   0.01619   0.99984
 This molecule is an asymmetric top.
 Rotational symmetry number  1.
 Warning -- assumption of classical behavior for rotation
           may cause significant error
 Rotational temperatures (Kelvin)      0.13894     0.06099     0.04498
 Rotational constants (GHZ):           2.89514     1.27087     0.93723
 Zero-point vibrational energy     416821.7 (Joules/Mol)
                                   99.62278 (Kcal/Mol)
 Warning -- explicit consideration of  13 degrees of freedom as
           vibrations may cause significant error
 Vibrational temperatures:     98.95   190.63   264.96   335.17   358.27
          (Kelvin)            413.64   427.24   547.17   626.03   665.07
                              738.43   847.56   879.38  1062.79  1184.09
                             1212.41  1281.32  1328.35  1359.55  1423.70
                             1492.26  1547.30  1593.10  1599.51  1641.24
                             1708.01  1760.48  1813.35  1858.53  1894.34
                             1918.84  1967.28  1972.96  2030.44  2035.70
                             2058.25  2123.24  2153.58  2161.79  2422.54
                             2528.07  4175.10  4214.18  4314.96  4357.43
                             4374.12  4407.30  4452.23  4474.38  4570.84
                             5398.09

 Zero-point correction=                           0.158759 (Hartree/Particle)
 Thermal correction to Energy=                    0.167590
 Thermal correction to Enthalpy=                  0.168534
 Thermal correction to Gibbs Free Energy=         0.125221
 Sum of electronic and zero-point Energies=           -423.059106
 Sum of electronic and thermal Energies=              -423.050275
 Sum of electronic and thermal Enthalpies=            -423.049330
 Sum of electronic and thermal Free Energies=         -423.092644

                     E (Thermal)             CV                S
                      KCal/Mol        Cal/Mol-Kelvin    Cal/Mol-Kelvin
 Total                  105.164             33.196             91.161
 Electronic               0.000              0.000              0.000
 Translational            0.889              2.981             40.409
 Rotational               0.889              2.981             28.924
 Vibrational            103.387             27.234             21.829
 Vibration     1          0.598              1.969              4.188
 Vibration     2          0.613              1.921              2.910
 Vibration     3          0.631              1.861              2.286
 Vibration     4          0.654              1.791              1.856
 Vibration     5          0.662              1.764              1.738
 Vibration     6          0.685              1.697              1.489
 Vibration     7          0.691              1.679              1.434
 Vibration     8          0.750              1.512              1.038
 Vibration     9          0.796              1.394              0.842
 Vibration    10          0.820              1.334              0.760
 Vibration    11          0.868              1.221              0.626
 Vibration    12          0.946              1.055              0.469
 Vibration    13          0.970              1.008              0.431

 Optimization completed.
    -- Stationary point found.
 Normal termination of Gaussian 09 at Tue Jan 28 04:38:22 2020.
