 Gaussian 09, Revision D.01,
 Gaussian 09:  ES64L-G09RevD.01 24-Apr-2013

 -----------------------------
 # b3lyp 6-31G(2df,p) opt Freq
 -----------------------------

 -----
 titel
 -----
 Symbolic Z-matrix:
 Charge =  0 Multiplicity = 1

 SCF Done:  E(RB3LYP) =  -423.235815703     A.U. after   14 cycles
 Optimization completed.
    -- Stationary point found.
 Normal termination of Gaussian 09 at Mon Jan 27 22:02:59 2020.

 ----------------------------------------------------------------------
 #N Geom=AllCheck Guess=TCheck SCRF=Check GenChk RB3LYP/6-31G(2df,p) Fr
 eq
 ----------------------------------------------------------------------

 Structure from the checkpoint file:  "/scratch/puck/g09_2af092d8-64c3-4fa7-b247-5a8b2f0a366b/Gau-192817.chk"
 -----
 titel
 -----
 Charge =  0 Multiplicity = 1

                         Standard orientation:
 ---------------------------------------------------------------------
 Center     Atomic      Atomic             Coordinates (Angstroms)
 Number     Number       Type             X           Y           Z
 ---------------------------------------------------------------------
      1          6           0       -3.238550   -0.502799   -0.316047
      2          6           0       -1.860989   -0.000181   -0.023805
      3          6           0       -1.351028    1.198558   -0.313301
      4          6           0        0.067928    1.362851    0.169007
      5          6           0        0.472845   -0.073270    0.576794
      6          6           0       -0.847811   -0.851988    0.714172
      7          8           0        1.216857   -0.709584   -0.498692
      8          6           0        2.532289   -0.470956   -0.536616
      9          8           0        3.155882    0.224906    0.218838
     10          1           0       -3.206834   -1.403267   -0.942669
     11          1           0       -3.762327   -0.785864    0.606264
     12          1           0       -3.842157    0.249170   -0.831224
     13          1           0       -1.891507    1.993682   -0.815743
     14          1           0        0.750334    1.765636   -0.586059
     15          1           0        0.129430    2.040840    1.031021
     16          1           0        1.100382   -0.097176    1.467476
     17          1           0       -0.745698   -1.861941    0.301846
     18          1           0       -1.127369   -0.970131    1.770082
     19          1           0        2.965731   -1.026828   -1.383380
 ---------------------------------------------------------------------

 SCF Done:  E(RB3LYP) =  -423.235815703     A.U. after    1 cycles

 The electronic state is 1-A.
 Alpha  occ. eigenvalues --  -19.18420 -19.12979 -10.30462 -10.24452 -10.18926
 Alpha  occ. eigenvalues --  -10.18877 -10.18743 -10.18489 -10.17638  -1.10076
 Alpha  occ. eigenvalues --   -1.01731  -0.85014  -0.75531  -0.72032  -0.67655
 Alpha  occ. eigenvalues --   -0.62997  -0.55581  -0.53004  -0.52581  -0.47925
 Alpha  occ. eigenvalues --   -0.46669  -0.44938  -0.43217  -0.42146  -0.40615
 Alpha  occ. eigenvalues --   -0.39051  -0.37725  -0.36661  -0.35717  -0.34772
 Alpha  occ. eigenvalues --   -0.33146  -0.29753  -0.27631  -0.23754
 Alpha virt. eigenvalues --    0.01209   0.02565   0.09400   0.10041   0.11586
 Alpha virt. eigenvalues --    0.13473   0.14321   0.15666   0.16837   0.17312
 Alpha virt. eigenvalues --    0.17602   0.17811   0.18750   0.20816   0.21835

 Mulliken charges:
               1
     1  C   -0.495024
     2  C    0.343064
     3  C   -0.163985
     4  C   -0.267640
     5  C    0.121843
     6  C   -0.326957
     7  O   -0.219111
     8  C    0.181386
     9  O   -0.310425
    10  H    0.127471
    11  H    0.124896
    12  H    0.124764
    13  H    0.087148
    14  H    0.119526
    15  H    0.114173
    16  H    0.105264
    17  H    0.116752
    18  H    0.109459
    19  H    0.107395
 Sum of Mulliken charges =   0.00000

 Dipole moment (field-independent basis, Debye):
    X=             -2.2247    Y=             -0.6712    Z=             -0.2751  Tot=              2.3400
 Quadrupole moment (field-independent basis, Debye-Ang):
   XX=            -58.6889   YY=            -51.3954   ZZ=            -51.7208
   XY=             -2.5148   XZ=             -3.3119   YZ=             -0.6635

  Exact polarizability:  96.160   6.685  77.208   0.160  -1.014  62.783
 Approx polarizability: 121.641  17.140 123.987   2.714  -0.798  98.296

                      1                      2                      3
                      A                      A                      A
 Frequencies --     47.3189                58.1367               170.2975
 Red. masses --      6.5943                 3.5597                 1.3784
 Frc consts  --      0.0087                 0.0071                 0.0236
 IR Inten    --      1.4050                 0.8676                 0.6112

                      4                      5                      6
                      A                      A                      A
 Frequencies --    206.2268               231.0413               275.2765
 Red. masses --      2.4668                 2.6595                 2.2713
 Frc consts  --      0.0618                 0.0836                 0.1014
 IR Inten    --      3.2576                 5.9981                 7.5251

                      7                      8                      9
                      A                      A                      A
 Frequencies --    313.1380               365.8355               431.2062
 Red. masses --      2.3790                 2.6027                 2.3049
 Frc consts  --      0.1374                 0.2052                 0.2525
 IR Inten    --      3.9071                 0.7232                 3.0022

                     10                     11                     12
                      A                      A                      A
 Frequencies --    468.1597               608.6071               742.3164
 Red. masses --      2.6559                 4.1306                 3.7592
 Frc consts  --      0.3430                 0.9014                 1.2205
 IR Inten    --      8.4698                 1.2328                 1.2215

                     13                     14                     15
                      A                      A                      A
 Frequencies --    767.3810               813.9042               849.9327
 Red. masses --      3.2623                 2.2577                 1.9010
 Frc consts  --      1.1319                 0.8812                 0.8091
 IR Inten    --      0.6453                 0.7517                26.8125

                     16                     17                     18
                      A                      A                      A
 Frequencies --    881.1386               902.5538               954.9517
 Red. masses --      3.2071                 2.1026                 2.1418
 Frc consts  --      1.4671                 1.0091                 1.1508
 IR Inten    --      9.0683                 1.9417                 8.5029

                     19                     20                     21
                      A                      A                      A
 Frequencies --    969.0457              1017.2072              1033.8402
 Red. masses --      2.1113                 1.6169                 1.4706
 Frc consts  --      1.1681                 0.9857                 0.9261
 IR Inten    --      6.0900                 0.7374                 7.1814

                     22                     23                     24
                      A                      A                      A
 Frequencies --   1044.2009              1060.8485              1085.9621
 Red. masses --      1.6893                 1.8075                 1.9093
 Frc consts  --      1.0852                 1.1985                 1.3266
 IR Inten    --      0.1284                 2.4892                 6.2913

                     25                     26                     27
                      A                      A                      A
 Frequencies --   1165.4258              1190.7020              1210.5216
 Red. masses --      1.3606                 1.5539                 3.5108
 Frc consts  --      1.0888                 1.2980                 3.0311
 IR Inten    --      1.0780                 6.5265               363.1424

                     28                     29                     30
                      A                      A                      A
 Frequencies --   1218.6939              1269.7088              1293.9273
 Red. masses --      1.5565                 1.9514                 1.4895
 Frc consts  --      1.3621                 1.8535                 1.4693
 IR Inten    --     48.8567                 2.5024                 6.0206

                     31                     32                     33
                      A                      A                      A
 Frequencies --   1331.2233              1359.3254              1389.3591
 Red. masses --      1.6573                 1.9041                 1.2949
 Frc consts  --      1.7304                 2.0730                 1.4727
 IR Inten    --      1.3653                 1.2543                12.2834

                     34                     35                     36
                      A                      A                      A
 Frequencies --   1409.7624              1415.6717              1468.3794
 Red. masses --      1.1452                 1.2964                 1.0827
 Frc consts  --      1.3410                 1.5307                 1.3754
 IR Inten    --      1.4790                 0.2905                 3.6431

                     37                     38                     39
                      A                      A                      A
 Frequencies --   1478.2102              1479.7948              1489.2632
 Red. masses --      1.0999                 1.0458                 1.0600
 Frc consts  --      1.4160                 1.3493                 1.3851
 IR Inten    --      0.6386                 6.3687                 6.0553

                     40                     41                     42
                      A                      A                      A
 Frequencies --   1725.8296              1814.7694              3014.3692
 Red. masses --      6.8057                 9.5089                 1.0514
 Frc consts  --     11.9432                18.4512                 5.6288
 IR Inten    --      1.9674               279.3705                13.4498

                     43                     44                     45
                      A                      A                      A
 Frequencies --   3018.3512              3020.2618              3020.8755
 Red. masses --      1.0543                 1.0707                 1.0874
 Frc consts  --      5.6590                 5.7543                 5.8467
 IR Inten    --     59.9973                10.0799                80.8197

                     46                     47                     48
                      A                      A                      A
 Frequencies --   3061.2530              3066.4238              3075.6823
 Red. masses --      1.0983                 1.0947                 1.0927
 Frc consts  --      6.0643                 6.0648                 6.0900
 IR Inten    --     17.3454                16.5411                16.2855

                     49                     50                     51
                      A                      A                      A
 Frequencies --   3111.6131              3117.3070              3188.5999
 Red. masses --      1.0988                 1.0870                 1.0936
 Frc consts  --      6.2682                 6.2237                 6.5513
 IR Inten    --     18.7109                16.9807                15.4234

 - Thermochemistry -
 -------------------
 Temperature   298.150 Kelvin.  Pressure   1.00000 Atm.
 Atom     1 has atomic number  6 and mass  12.00000

 Molecular mass:   126.06808 amu.
 Principal axes and moments of inertia in atomic units:
                           1         2         3
     Eigenvalues --   409.932611956.847502135.25057
           X            0.99996   0.00839   0.00072
           Y           -0.00837   0.99980  -0.01816
           Z           -0.00087   0.01815   0.99983
 This molecule is an asymmetric top.
 Rotational symmetry number  1.
 Rotational temperatures (Kelvin)      0.21129     0.04426     0.04056
 Rotational constants (GHZ):           4.40253     0.92227     0.84521
 Zero-point vibrational energy     416921.5 (Joules/Mol)
                                   99.64663 (Kcal/Mol)
 Warning -- explicit consideration of  11 degrees of freedom as
           vibrations may cause significant error
 Vibrational temperatures:     68.08    83.65   245.02   296.71   332.42
          (Kelvin)            396.06   450.54   526.35   620.41   673.58
                              875.65  1068.03  1104.09  1171.03  1222.86
                             1267.76  1298.57  1373.96  1394.24  1463.53
                             1487.46  1502.37  1526.32  1562.46  1676.79
                             1713.15  1741.67  1753.43  1826.83  1861.67
                             1915.33  1955.76  1998.98  2028.33  2036.83
                             2112.67  2126.81  2129.09  2142.71  2483.08
                             2611.05  4337.00  4342.73  4345.48  4346.36
                             4404.45  4411.89  4425.22  4476.91  4485.10
                             4587.68

 Zero-point correction=                           0.158797 (Hartree/Particle)
 Thermal correction to Energy=                    0.167678
 Thermal correction to Enthalpy=                  0.168622
 Thermal correction to Gibbs Free Energy=         0.124273
 Sum of electronic and zero-point Energies=           -423.077019
 Sum of electronic and thermal Energies=              -423.068138
 Sum of electronic and thermal Enthalpies=            -423.067193
 Sum of electronic and thermal Free Energies=         -423.111542

                     E (Thermal)             CV                S
                      KCal/Mol        Cal/Mol-Kelvin    Cal/Mol-Kelvin
 Total                  105.220             32.319             93.341
 Electronic               0.000              0.000              0.000
 Translational            0.889              2.981             40.409
 Rotational               0.889              2.981             28.928
 Vibrational            103.442             26.357             24.004
 Vibration     1          0.595              1.979              4.926
 Vibration     2          0.596              1.974              4.519
 Vibration     3          0.625              1.879              2.432
 Vibration     4          0.641              1.831              2.077
 Vibration     5          0.653              1.794              1.871
 Vibration     6          0.677              1.719              1.563
 Vibration     7          0.701              1.649              1.346
 Vibration     8          0.739              1.543              1.097
 Vibration     9          0.792              1.402              0.855
 Vibration    10          0.825              1.321              0.743
 Vibration    11          0.967              1.014              0.435

 Optimization completed.
    -- Stationary point found.
 Normal termination of Gaussian 09 at Mon Jan 27 22:44:19 2020.
