 Gaussian 09, Revision D.01,
 Gaussian 09:  ES64L-G09RevD.01 24-Apr-2013

 -----------------------------
 # b3lyp 6-31G(2df,p) opt Freq
 -----------------------------

 -----
 titel
 -----
 Symbolic Z-matrix:
 Charge =  0 Multiplicity = 1

 SCF Done:  E(RB3LYP) =  -423.126889160     A.U. after   13 cycles
 Optimization completed.
    -- Stationary point found.
 Normal termination of Gaussian 09 at Tue Jan 28 02:51:46 2020.

 ----------------------------------------------------------------------
 #N Geom=AllCheck Guess=TCheck SCRF=Check GenChk RB3LYP/6-31G(2df,p) Fr
 eq
 ----------------------------------------------------------------------

 Structure from the checkpoint file:  "/scratch/puck/g09_3e926940-5181-46c5-98f7-347155d399d7/Gau-112814.chk"
 -----
 titel
 -----
 Charge =  0 Multiplicity = 1

                         Standard orientation:
 ---------------------------------------------------------------------
 Center     Atomic      Atomic             Coordinates (Angstroms)
 Number     Number       Type             X           Y           Z
 ---------------------------------------------------------------------
      1          6           0        2.835867   -0.085019   -0.038542
      2          6           0        1.381969   -0.053970   -0.469204
      3          6           0        0.599883    1.261671   -0.125269
      4          6           0       -0.779307    0.750089    0.221163
      5          6           0       -1.107268    0.072290    1.520749
      6          6           0       -0.653982   -0.740675    0.328458
      7          6           0       -1.711912   -0.774684   -0.779890
      8          8           0       -1.855962    0.678216   -0.731970
      9          8           0        0.670432   -1.128196    0.210383
     10          1           0        3.405041    0.688076   -0.564203
     11          1           0        2.920308    0.090951    1.038542
     12          1           0        3.285377   -1.055395   -0.265751
     13          1           0        1.313492   -0.232491   -1.552698
     14          1           0        1.068841    1.783047    0.715334
     15          1           0        0.570363    1.945568   -0.976213
     16          1           0       -0.366617    0.165881    2.306782
     17          1           0       -2.141576    0.028412    1.848728
     18          1           0       -1.305240   -1.101167   -1.743665
     19          1           0       -2.657257   -1.291245   -0.578953
 ---------------------------------------------------------------------

 SCF Done:  E(RB3LYP) =  -423.126889160     A.U. after    1 cycles

 The electronic state is 1-A.
 Alpha  occ. eigenvalues --  -19.14879 -19.14104 -10.24075 -10.23836 -10.23284
 Alpha  occ. eigenvalues --  -10.22899 -10.20132 -10.19662 -10.18160  -1.06741
 Alpha  occ. eigenvalues --   -1.02608  -0.83216  -0.78676  -0.71535  -0.68718
 Alpha  occ. eigenvalues --   -0.61049  -0.59109  -0.53020  -0.50861  -0.49899
 Alpha  occ. eigenvalues --   -0.46213  -0.44394  -0.43200  -0.41376  -0.40576
 Alpha  occ. eigenvalues --   -0.39722  -0.38499  -0.37295  -0.36031  -0.33677
 Alpha  occ. eigenvalues --   -0.32250  -0.27459  -0.24921  -0.22512
 Alpha virt. eigenvalues --    0.05400   0.08535   0.09509   0.11329   0.12304
 Alpha virt. eigenvalues --    0.13158   0.14021   0.15099   0.15821   0.16588
 Alpha virt. eigenvalues --    0.17393   0.17886   0.18700   0.20456   0.22054

 Mulliken charges:
               1
     1  C   -0.401179
     2  C    0.137298
     3  C   -0.338270
     4  C    0.337216
     5  C   -0.369402
     6  C    0.253169
     7  C   -0.148143
     8  O   -0.325964
     9  O   -0.307290
    10  H    0.119831
    11  H    0.121915
    12  H    0.131020
    13  H    0.081924
    14  H    0.111028
    15  H    0.125659
    16  H    0.127214
    17  H    0.121714
    18  H    0.113257
    19  H    0.109001
 Sum of Mulliken charges =   0.00000

 Dipole moment (field-independent basis, Debye):
    X=              1.1723    Y=              0.2556    Z=              0.0568  Tot=              1.2012
 Quadrupole moment (field-independent basis, Debye-Ang):
   XX=            -52.8045   YY=            -55.5983   ZZ=            -51.2647
   XY=              4.9897   XZ=             -2.2527   YZ=              2.1972

  Exact polarizability:  85.121   4.717  65.421  -1.948   2.524  71.452
 Approx polarizability: 109.640   2.651 107.631  -0.900   0.891 107.362

                      1                      2                      3
                      A                      A                      A
 Frequencies --     85.6489               215.8405               242.5249
 Red. masses --      3.1351                 1.3441                 1.6076
 Frc consts  --      0.0136                 0.0369                 0.0557
 IR Inten    --      0.1437                 1.7663                 2.0608

                      4                      5                      6
                      A                      A                      A
 Frequencies --    278.7858               336.6334               369.8368
 Red. masses --      2.7035                 3.7985                 2.2789
 Frc consts  --      0.1238                 0.2536                 0.1837
 IR Inten    --      0.8330                 5.4158                 6.4512

                      7                      8                      9
                      A                      A                      A
 Frequencies --    423.7710               466.7294               561.1129
 Red. masses --      2.3610                 2.4843                 4.1798
 Frc consts  --      0.2498                 0.3188                 0.7754
 IR Inten    --      2.5743                 5.6424                23.7782

                     10                     11                     12
                      A                      A                      A
 Frequencies --    594.9335               652.6617               793.7291
 Red. masses --      3.5628                 4.3512                 2.9002
 Frc consts  --      0.7430                 1.0920                 1.0765
 IR Inten    --      2.2905                 0.4385                 0.7478

                     13                     14                     15
                      A                      A                      A
 Frequencies --    803.6381               806.1296               862.6897
 Red. masses --      3.6267                 3.9456                 3.7221
 Frc consts  --      1.3800                 1.5107                 1.6321
 IR Inten    --     14.2835                 2.9457                12.9509

                     16                     17                     18
                      A                      A                      A
 Frequencies --    875.8151               891.3793               940.0448
 Red. masses --      2.2210                 2.1781                 1.7461
 Frc consts  --      1.0038                 1.0196                 0.9091
 IR Inten    --      7.5155                 7.2763                10.0419

                     19                     20                     21
                      A                      A                      A
 Frequencies --    941.4587               984.3034              1011.1965
 Red. masses --      1.8904                 4.1610                 1.7115
 Frc consts  --      0.9872                 2.3752                 1.0311
 IR Inten    --      3.1860                42.6083                35.6544

                     22                     23                     24
                      A                      A                      A
 Frequencies --   1017.8826              1066.0978              1090.4921
 Red. masses --      1.7602                 1.3204                 2.3111
 Frc consts  --      1.0745                 0.8842                 1.6193
 IR Inten    --      5.4224                 4.4528                21.4917

                     25                     26                     27
                      A                      A                      A
 Frequencies --   1138.0082              1145.8528              1162.7817
 Red. masses --      1.8360                 1.4103                 2.4536
 Frc consts  --      1.4009                 1.0910                 1.9546
 IR Inten    --      3.4642                 3.0817                 6.3217

                     28                     29                     30
                      A                      A                      A
 Frequencies --   1194.4550              1240.4444              1283.7079
 Red. masses --      1.9821                 1.5870                 3.1448
 Frc consts  --      1.6662                 1.4387                 3.0534
 IR Inten    --      9.1867                 5.6165                74.9635

                     31                     32                     33
                      A                      A                      A
 Frequencies --   1292.6184              1326.1508              1350.4784
 Red. masses --      1.4418                 1.6008                 1.8252
 Frc consts  --      1.4193                 1.6587                 1.9613
 IR Inten    --     16.3098                 1.1973                 7.7772

                     34                     35                     36
                      A                      A                      A
 Frequencies --   1369.0300              1389.8352              1410.9649
 Red. masses --      1.6279                 1.5167                 1.3783
 Frc consts  --      1.7976                 1.7261                 1.6167
 IR Inten    --     31.5147                 1.6485                 8.2554

                     37                     38                     39
                      A                      A                      A
 Frequencies --   1460.5922              1472.8276              1482.9824
 Red. masses --      1.4259                 1.0967                 1.0501
 Frc consts  --      1.7923                 1.4017                 1.3606
 IR Inten    --     11.7642                 3.2077                 4.2086

                     40                     41                     42
                      A                      A                      A
 Frequencies --   1496.7940              1511.4430              2989.2992
 Red. masses --      1.0492                 1.1133                 1.0840
 Frc consts  --      1.3849                 1.4984                 5.7072
 IR Inten    --      4.5906                 1.0296                34.5352

                     43                     44                     45
                      A                      A                      A
 Frequencies --   3026.3291              3040.1006              3054.9292
 Red. masses --      1.0545                 1.0354                 1.0640
 Frc consts  --      5.6904                 5.6380                 5.8506
 IR Inten    --     71.6168                12.2270                24.6594

                     46                     47                     48
                      A                      A                      A
 Frequencies --   3080.4045              3112.7233              3118.8076
 Red. masses --      1.1120                 1.1018                 1.1006
 Frc consts  --      6.2169                 6.2897                 6.3078
 IR Inten    --     34.7655                15.4579                15.0331

                     49                     50                     51
                      A                      A                      A
 Frequencies --   3121.5049              3125.4613              3227.8849
 Red. masses --      1.1014                 1.0557                 1.1168
 Frc consts  --      6.3231                 6.0761                 6.8561
 IR Inten    --     17.7251                11.4362                 4.1696

 - Thermochemistry -
 -------------------
 Temperature   298.150 Kelvin.  Pressure   1.00000 Atm.
 Atom     1 has atomic number  6 and mass  12.00000

 Molecular mass:   126.06808 amu.
 Principal axes and moments of inertia in atomic units:
                           1         2         3
     Eigenvalues --   519.822701293.732321341.84190
           X            0.99947   0.03217  -0.00490
           Y           -0.03046   0.97789   0.20690
           Z            0.01145  -0.20664   0.97835
 This molecule is an asymmetric top.
 Rotational symmetry number  1.
 Warning -- assumption of classical behavior for rotation
           may cause significant error
 Rotational temperatures (Kelvin)      0.16662     0.06695     0.06455
 Rotational constants (GHZ):           3.47184     1.39499     1.34497
 Zero-point vibrational energy     418332.6 (Joules/Mol)
                                   99.98389 (Kcal/Mol)
 Warning -- explicit consideration of  10 degrees of freedom as
           vibrations may cause significant error
 Vibrational temperatures:    123.23   310.55   348.94   401.11   484.34
          (Kelvin)            532.11   609.71   671.52   807.32   855.98
                              939.03  1142.00  1156.25  1159.84  1241.22
                             1260.10  1282.49  1352.51  1354.55  1416.19
                             1454.88  1464.50  1533.87  1568.97  1637.34
                             1648.62  1672.98  1718.55  1784.72  1846.97
                             1859.79  1908.03  1943.03  1969.73  1999.66
                             2030.06  2101.46  2119.07  2133.68  2153.55
                             2174.63  4300.93  4354.21  4374.02  4395.36
                             4432.01  4478.51  4487.26  4491.14  4496.84
                             4644.20

 Zero-point correction=                           0.159334 (Hartree/Particle)
 Thermal correction to Energy=                    0.166994
 Thermal correction to Enthalpy=                  0.167938
 Thermal correction to Gibbs Free Energy=         0.127437
 Sum of electronic and zero-point Energies=           -422.967555
 Sum of electronic and thermal Energies=              -422.959895
 Sum of electronic and thermal Enthalpies=            -422.958951
 Sum of electronic and thermal Free Energies=         -422.999452

                     E (Thermal)             CV                S
                      KCal/Mol        Cal/Mol-Kelvin    Cal/Mol-Kelvin
 Total                  104.790             30.746             85.241
 Electronic               0.000              0.000              0.000
 Translational            0.889              2.981             40.409
 Rotational               0.889              2.981             28.292
 Vibrational            103.013             24.784             16.541
 Vibration     1          0.601              1.959              3.757
 Vibration     2          0.645              1.817              1.994
 Vibration     3          0.659              1.775              1.784
 Vibration     4          0.679              1.713              1.541
 Vibration     5          0.717              1.602              1.228
 Vibration     6          0.742              1.534              1.080
 Vibration     7          0.786              1.419              0.879
 Vibration     8          0.824              1.324              0.747
 Vibration     9          0.917              1.115              0.522
 Vibration    10          0.953              1.043              0.458

 Optimization completed.
    -- Stationary point found.
 Normal termination of Gaussian 09 at Tue Jan 28 03:39:59 2020.
