 Gaussian 09, Revision D.01,
 Gaussian 09:  ES64L-G09RevD.01 24-Apr-2013

 -----------------------------
 # b3lyp 6-31G(2df,p) opt Freq
 -----------------------------

 -----
 titel
 -----
 Symbolic Z-matrix:
 Charge =  0 Multiplicity = 1

 SCF Done:  E(RB3LYP) =  -423.194997202     A.U. after   13 cycles
 Optimization completed.
    -- Stationary point found.
 Normal termination of Gaussian 09 at Mon Jan 27 23:46:16 2020.

 ----------------------------------------------------------------------
 #N Geom=AllCheck Guess=TCheck SCRF=Check GenChk RB3LYP/6-31G(2df,p) Fr
 eq
 ----------------------------------------------------------------------

 Structure from the checkpoint file:  "/scratch/puck/g09_90ccc603-0f4f-4e1f-b7ae-3850dbd246b8/Gau-89044.chk"
 -----
 titel
 -----
 Charge =  0 Multiplicity = 1

                         Standard orientation:
 ---------------------------------------------------------------------
 Center     Atomic      Atomic             Coordinates (Angstroms)
 Number     Number       Type             X           Y           Z
 ---------------------------------------------------------------------
      1          8           0       -2.264196   -0.098970   -0.544788
      2          6           0       -1.381438   -0.004984    0.551325
      3          6           0       -0.271772   -1.073675    0.583438
      4          6           0        0.375945   -1.261521   -0.809258
      5          6           0        1.266160   -0.002489   -0.881334
      6          6           0        0.365738    1.251805   -0.832623
      7          6           0       -0.276397    1.086610    0.563975
      8          6           0        0.695196    0.014702    1.184584
      9          8           0        1.880069    0.012037    0.417702
     10          1           0       -2.881144    0.638527   -0.502313
     11          1           0       -1.937040    0.001072    1.500084
     12          1           0       -0.464660   -2.003298    1.118402
     13          1           0        0.999187   -2.159177   -0.826499
     14          1           0       -0.363029   -1.321799   -1.610017
     15          1           0        2.038809   -0.006114   -1.650166
     16          1           0        0.977586    2.156194   -0.878241
     17          1           0       -0.377525    1.279195   -1.632748
     18          1           0       -0.471627    2.023355    1.087529
     19          1           0        0.911865    0.024821    2.250018
 ---------------------------------------------------------------------

 SCF Done:  E(RB3LYP) =  -423.194997202     A.U. after    1 cycles

 The electronic state is 1-A.
 Alpha  occ. eigenvalues --  -19.14079 -19.13236 -10.22948 -10.22506 -10.22454
 Alpha  occ. eigenvalues --  -10.18138 -10.18119 -10.17694 -10.17459  -1.04436
 Alpha  occ. eigenvalues --   -1.02164  -0.83848  -0.75108  -0.73386  -0.64046
 Alpha  occ. eigenvalues --   -0.58988  -0.57335  -0.54170  -0.52977  -0.48847
 Alpha  occ. eigenvalues --   -0.46363  -0.45699  -0.42402  -0.40100  -0.38871
 Alpha  occ. eigenvalues --   -0.38071  -0.35184  -0.34185  -0.33117  -0.31555
 Alpha  occ. eigenvalues --   -0.31111  -0.28726  -0.26272  -0.24491
 Alpha virt. eigenvalues --    0.06819   0.09603   0.10917   0.14177   0.14800
 Alpha virt. eigenvalues --    0.14919   0.16071   0.16711   0.16915   0.17114
 Alpha virt. eigenvalues --    0.18262   0.18703   0.18805   0.20610   0.23397

 Mulliken charges:
               1
     1  O   -0.427942
     2  C    0.131335
     3  C   -0.099343
     4  C   -0.218389
     5  C    0.059381
     6  C   -0.215842
     7  C   -0.130108
     8  C    0.108899
     9  O   -0.255272
    10  H    0.284070
    11  H    0.063917
    12  H    0.066318
    13  H    0.100558
    14  H    0.119381
    15  H    0.072667
    16  H    0.100223
    17  H    0.103677
    18  H    0.059472
    19  H    0.076999
 Sum of Mulliken charges =   0.00000

 Dipole moment (field-independent basis, Debye):
    X=             -1.5563    Y=              1.0138    Z=              0.2505  Tot=              1.8741
 Quadrupole moment (field-independent basis, Debye-Ang):
   XX=            -54.7405   YY=            -51.6015   ZZ=            -50.8898
   XY=             -3.7030   XZ=             -3.1200   YZ=             -0.6730

  Exact polarizability:  73.744  -1.488  71.728  -2.898  -0.225  71.817
 Approx polarizability: 108.721  -1.665 104.011  -0.158   0.289 108.358

                      1                      2                      3
                      A                      A                      A
 Frequencies --    190.2528               251.6128               277.5518
 Red. masses --      4.7896                 2.6336                 1.1684
 Frc consts  --      0.1021                 0.0982                 0.0530
 IR Inten    --      2.0642                 8.2416               105.0694

                      4                      5                      6
                      A                      A                      A
 Frequencies --    385.0479               458.0990               538.4413
 Red. masses --      1.8791                 2.3085                 5.6674
 Frc consts  --      0.1641                 0.2854                 0.9681
 IR Inten    --      3.6117                 5.4813                 0.9987

                      7                      8                      9
                      A                      A                      A
 Frequencies --    568.1468               609.3836               641.9709
 Red. masses --      4.8625                 4.7514                 3.8272
 Frc consts  --      0.9248                 1.0396                 0.9293
 IR Inten    --      6.7036                 0.6717                 5.3071

                     10                     11                     12
                      A                      A                      A
 Frequencies --    764.3230               797.0878               826.1407
 Red. masses --      3.2860                 3.4483                 2.5286
 Frc consts  --      1.1310                 1.2908                 1.0168
 IR Inten    --      1.9683                 2.8160                 1.0364

                     13                     14                     15
                      A                      A                      A
 Frequencies --    845.6569               869.5227               878.4702
 Red. masses --      2.2415                 2.6169                 3.6724
 Frc consts  --      0.9445                 1.1657                 1.6697
 IR Inten    --      8.4876                11.6355                 8.5928

                     16                     17                     18
                      A                      A                      A
 Frequencies --    915.6122               921.5967               981.6240
 Red. masses --      2.0134                 2.7760                 3.0379
 Frc consts  --      0.9945                 1.3891                 1.7247
 IR Inten    --      0.1973                 4.9249                43.3704

                     19                     20                     21
                      A                      A                      A
 Frequencies --    993.2250              1027.7658              1030.6816
 Red. masses --      1.4670                 1.8239                 2.3157
 Frc consts  --      0.8526                 1.1351                 1.4494
 IR Inten    --      5.5624                10.8215                 7.8461

                     22                     23                     24
                      A                      A                      A
 Frequencies --   1066.9883              1078.8557              1095.7267
 Red. masses --      3.0564                 3.3575                 1.5332
 Frc consts  --      2.0501                 2.3025                 1.0846
 IR Inten    --     43.3086                37.3842                 3.0731

                     25                     26                     27
                      A                      A                      A
 Frequencies --   1099.0336              1152.7236              1182.0644
 Red. masses --      1.2454                 3.0358                 1.1398
 Frc consts  --      0.8863                 2.3767                 0.9384
 IR Inten    --      4.0840                54.0964                 5.9026

                     28                     29                     30
                      A                      A                      A
 Frequencies --   1191.1197              1222.0612              1243.3918
 Red. masses --      1.2574                 1.3521                 1.5845
 Frc consts  --      1.0511                 1.1898                 1.4433
 IR Inten    --      7.4834                 8.0203                 2.1909

                     31                     32                     33
                      A                      A                      A
 Frequencies --   1255.9062              1272.7709              1294.0499
 Red. masses --      1.5808                 1.3120                 1.7440
 Frc consts  --      1.4691                 1.2522                 1.7206
 IR Inten    --     36.2322                 0.8279                 1.9949

                     34                     35                     36
                      A                      A                      A
 Frequencies --   1307.9928              1315.6554              1345.8451
 Red. masses --      1.3128                 1.6157                 1.3902
 Frc consts  --      1.3233                 1.6478                 1.4836
 IR Inten    --      1.1392                27.8973                 3.1932

                     37                     38                     39
                      A                      A                      A
 Frequencies --   1351.8459              1372.4748              1428.4296
 Red. masses --      1.4751                 1.6094                 1.4653
 Frc consts  --      1.5883                 1.7862                 1.7616
 IR Inten    --      8.6552                 3.0248                 3.7296

                     40                     41                     42
                      A                      A                      A
 Frequencies --   1470.2541              1487.2634              2993.6632
 Red. masses --      1.1015                 1.1088                 1.0846
 Frc consts  --      1.4028                 1.4451                 5.7268
 IR Inten    --      4.4725                 3.0921                57.3356

                     43                     44                     45
                      A                      A                      A
 Frequencies --   3065.3237              3069.4119              3096.9546
 Red. masses --      1.0600                 1.0625                 1.0882
 Frc consts  --      5.8685                 5.8976                 6.1492
 IR Inten    --     22.9835                20.5708                45.2487

                     46                     47                     48
                      A                      A                      A
 Frequencies --   3108.6941              3118.9796              3122.4984
 Red. masses --      1.0887                 1.1045                 1.0906
 Frc consts  --      6.1986                 6.3306                 6.2651
 IR Inten    --     37.8391                16.9494                39.1897

                     49                     50                     51
                      A                      A                      A
 Frequencies --   3130.4155              3151.8807              3817.8000
 Red. masses --      1.1038                 1.0919                 1.0662
 Frc consts  --      6.3732                 6.3911                 9.1560
 IR Inten    --     14.6693                28.8550                24.2303

 - Thermochemistry -
 -------------------
 Temperature   298.150 Kelvin.  Pressure   1.00000 Atm.
 Atom     1 has atomic number  8 and mass  15.99491

 Molecular mass:   126.06808 amu.
 Principal axes and moments of inertia in atomic units:
                           1         2         3
     Eigenvalues --   600.913411044.312341067.78622
           X            0.99936  -0.01686  -0.03167
           Y            0.01538   0.99881  -0.04623
           Z            0.03241   0.04572   0.99843
 This molecule is an asymmetric top.
 Rotational symmetry number  1.
 Warning -- assumption of classical behavior for rotation
           may cause significant error
 Rotational temperatures (Kelvin)      0.14414     0.08294     0.08112
 Rotational constants (GHZ):           3.00333     1.72816     1.69017
 Zero-point vibrational energy     428755.3 (Joules/Mol)
                                  102.47497 (Kcal/Mol)
 Warning -- explicit consideration of   8 degrees of freedom as
           vibrations may cause significant error
 Vibrational temperatures:    273.73   362.01   399.33   554.00   659.10
          (Kelvin)            774.70   817.44   876.77   923.65  1099.69
                             1146.83  1188.63  1216.71  1251.05  1263.92
                             1317.36  1325.97  1412.34  1429.03  1478.72
                             1482.92  1535.16  1552.23  1576.50  1581.26
                             1658.51  1700.72  1713.75  1758.27  1788.96
                             1806.97  1831.23  1861.85  1881.91  1892.93
                             1936.37  1945.00  1974.68  2055.19  2115.37
                             2139.84  4307.21  4410.31  4416.19  4455.82
                             4472.71  4487.51  4492.57  4503.96  4534.85
                             5492.96

 Zero-point correction=                           0.163304 (Hartree/Particle)
 Thermal correction to Energy=                    0.169859
 Thermal correction to Enthalpy=                  0.170803
 Thermal correction to Gibbs Free Energy=         0.132770
 Sum of electronic and zero-point Energies=           -423.031693
 Sum of electronic and thermal Energies=              -423.025139
 Sum of electronic and thermal Enthalpies=            -423.024194
 Sum of electronic and thermal Free Energies=         -423.062227

                     E (Thermal)             CV                S
                      KCal/Mol        Cal/Mol-Kelvin    Cal/Mol-Kelvin
 Total                  106.588             28.011             80.047
 Electronic               0.000              0.000              0.000
 Translational            0.889              2.981             40.409
 Rotational               0.889              2.981             27.996
 Vibrational            104.810             22.050             11.643
 Vibration     1          0.634              1.853              2.225
 Vibration     2          0.664              1.760              1.719
 Vibration     3          0.679              1.715              1.549
 Vibration     4          0.754              1.502              1.019
 Vibration     5          0.816              1.343              0.772
 Vibration     6          0.893              1.165              0.569
 Vibration     7          0.924              1.100              0.508
 Vibration     8          0.968              1.012              0.434

 Optimization completed.
    -- Stationary point found.
 Normal termination of Gaussian 09 at Tue Jan 28 00:35:26 2020.
