 Gaussian 09, Revision D.01,
 Gaussian 09:  ES64L-G09RevD.01 24-Apr-2013

 -----------------------------
 # b3lyp 6-31G(2df,p) opt Freq
 -----------------------------

 -----
 titel
 -----
 Symbolic Z-matrix:
 Charge =  0 Multiplicity = 1

 SCF Done:  E(RB3LYP) =  -423.210016866     A.U. after   14 cycles
 Optimization completed.
    -- Stationary point found.
 Normal termination of Gaussian 09 at Mon Jan 27 13:42:14 2020.

 ----------------------------------------------------------------------
 #N Geom=AllCheck Guess=TCheck SCRF=Check GenChk RB3LYP/6-31G(2df,p) Fr
 eq
 ----------------------------------------------------------------------

 Structure from the checkpoint file:  "/scratch/puck/g09_8ab2fc5e-0f10-4a00-ac9a-d6e2b111abf4/Gau-28664.chk"
 -----
 titel
 -----
 Charge =  0 Multiplicity = 1

                         Standard orientation:
 ---------------------------------------------------------------------
 Center     Atomic      Atomic             Coordinates (Angstroms)
 Number     Number       Type             X           Y           Z
 ---------------------------------------------------------------------
      1          8           0       -2.363702    0.836433    0.546609
      2          6           0       -2.356509   -0.156609   -0.128252
      3          8           0       -1.277597   -0.820798   -0.564456
      4          6           0        0.004624   -0.319973   -0.198958
      5          6           0        1.211060   -1.259210   -0.406285
      6          6           0        1.868006   -0.259234    0.592971
      7          6           0        0.469124   -0.168757    1.273510
      8          6           0        1.908999    1.042645   -0.237847
      9          6           0        0.469416    0.997617   -0.847848
     10          1           0       -3.256559   -0.678547   -0.489666
     11          1           0        1.045335   -2.246458    0.029251
     12          1           0        1.630311   -1.344476   -1.412660
     13          1           0        2.758082   -0.528136    1.158718
     14          1           0        0.234303   -1.050870    1.872866
     15          1           0        0.198128    0.745890    1.802397
     16          1           0        2.070059    1.926345    0.385409
     17          1           0        2.690032    1.021185   -1.002842
     18          1           0       -0.154373    1.839203   -0.545127
     19          1           0        0.466759    0.931920   -1.939322
 ---------------------------------------------------------------------

 SCF Done:  E(RB3LYP) =  -423.210016866     A.U. after    1 cycles

 The electronic state is 1-A.
 Alpha  occ. eigenvalues --  -19.18912 -19.13277 -10.30809 -10.25113 -10.19770
 Alpha  occ. eigenvalues --  -10.18743 -10.18587 -10.18499 -10.18306  -1.10539
 Alpha  occ. eigenvalues --   -1.02210  -0.89570  -0.73249  -0.71171  -0.66900
 Alpha  occ. eigenvalues --   -0.63472  -0.55480  -0.54234  -0.51997  -0.48407
 Alpha  occ. eigenvalues --   -0.47594  -0.46086  -0.44313  -0.42374  -0.38679
 Alpha  occ. eigenvalues --   -0.37329  -0.36401  -0.35646  -0.34298  -0.33160
 Alpha  occ. eigenvalues --   -0.31948  -0.30617  -0.28499  -0.27420
 Alpha virt. eigenvalues --    0.00823   0.08523   0.11034   0.12862   0.12987
 Alpha virt. eigenvalues --    0.13622   0.15092   0.15443   0.16367   0.17166
 Alpha virt. eigenvalues --    0.18379   0.18670   0.19976   0.20737   0.22165

 Mulliken charges:
               1
     1  O   -0.305575
     2  C    0.153150
     3  O   -0.276460
     4  C    0.474143
     5  C   -0.281952
     6  C   -0.029726
     7  C   -0.269196
     8  C   -0.211098
     9  C   -0.272829
    10  H    0.107914
    11  H    0.104613
    12  H    0.094154
    13  H    0.069344
    14  H    0.101587
    15  H    0.111813
    16  H    0.103282
    17  H    0.099564
    18  H    0.126951
    19  H    0.100322
 Sum of Mulliken charges =   0.00000

 Dipole moment (field-independent basis, Debye):
    X=              1.3720    Y=             -1.0468    Z=             -0.6187  Tot=              1.8332
 Quadrupole moment (field-independent basis, Debye-Ang):
   XX=            -52.9488   YY=            -54.1793   ZZ=            -52.9747
   XY=              3.4943   XZ=              2.3482   YZ=             -1.8190

  Exact polarizability:  85.949   0.122  71.491  -0.618   1.792  67.544
 Approx polarizability: 112.667  -2.666 111.741  -2.599   9.511 104.658

                      1                      2                      3
                      A                      A                      A
 Frequencies --     75.9121               158.9251               222.5470
 Red. masses --      5.6523                 5.1304                 2.4536
 Frc consts  --      0.0192                 0.0763                 0.0716
 IR Inten    --      1.3336                 4.1456                 6.3349

                      4                      5                      6
                      A                      A                      A
 Frequencies --    270.3553               363.5900               412.5160
 Red. masses --      2.3677                 2.5917                 2.9064
 Frc consts  --      0.1020                 0.2019                 0.2914
 IR Inten    --      3.4219                 3.2765                 8.8636

                      7                      8                      9
                      A                      A                      A
 Frequencies --    448.0793               522.6402               544.8349
 Red. masses --      2.2949                 2.1483                 4.0263
 Frc consts  --      0.2715                 0.3457                 0.7042
 IR Inten    --      1.4507                 2.5233                 1.4209

                     10                     11                     12
                      A                      A                      A
 Frequencies --    653.7219               794.7153               834.5572
 Red. masses --      3.7356                 5.6747                 3.8307
 Frc consts  --      0.9406                 2.1116                 1.5719
 IR Inten    --      0.5598                 9.1147                 0.5501

                     13                     14                     15
                      A                      A                      A
 Frequencies --    837.7978               841.2751               881.3978
 Red. masses --      3.0882                 1.1803                 2.6571
 Frc consts  --      1.2771                 0.4922                 1.2162
 IR Inten    --      3.0205                 0.4400                 1.8274

                     16                     17                     18
                      A                      A                      A
 Frequencies --    930.4719               939.1785               977.5842
 Red. masses --      1.5532                 2.2847                 1.5968
 Frc consts  --      0.7923                 1.1874                 0.8991
 IR Inten    --      3.0019                 1.7547                 1.4629

                     19                     20                     21
                      A                      A                      A
 Frequencies --    979.8669              1014.7843              1022.3413
 Red. masses --      1.6787                 1.9732                 1.4217
 Frc consts  --      0.9497                 1.1972                 0.8755
 IR Inten    --      2.3143                 3.6104                 4.8116

                     22                     23                     24
                      A                      A                      A
 Frequencies --   1045.2906              1083.4187              1118.8662
 Red. masses --      1.6534                 1.2875                 1.3356
 Frc consts  --      1.0644                 0.8904                 0.9851
 IR Inten    --      0.2408                 5.0934                 3.5847

                     25                     26                     27
                      A                      A                      A
 Frequencies --   1131.7917              1144.0256              1199.8913
 Red. masses --      2.5005                 1.8566                 1.6507
 Frc consts  --      1.8872                 1.4317                 1.4002
 IR Inten    --      6.4235                 2.3846                61.5887

                     28                     29                     30
                      A                      A                      A
 Frequencies --   1215.0383              1225.6865              1242.9110
 Red. masses --      3.9442                 2.0209                 1.7586
 Frc consts  --      3.4307                 1.7888                 1.6007
 IR Inten    --    308.0689                56.1613                 4.7694

                     31                     32                     33
                      A                      A                      A
 Frequencies --   1251.3711              1264.1390              1277.0572
 Red. masses --      1.2824                 1.6879                 1.9262
 Frc consts  --      1.1832                 1.5892                 1.8508
 IR Inten    --      5.3971                23.9523                 7.9456

                     34                     35                     36
                      A                      A                      A
 Frequencies --   1323.8092              1329.7811              1414.2232
 Red. masses --      1.5595                 1.7165                 1.1566
 Frc consts  --      1.6103                 1.7883                 1.3630
 IR Inten    --      8.4221                41.0623                 2.3438

                     37                     38                     39
                      A                      A                      A
 Frequencies --   1487.0059              1497.0349              1503.6439
 Red. masses --      1.0998                 1.0824                 1.1066
 Frc consts  --      1.4328                 1.4292                 1.4742
 IR Inten    --      2.5968                 0.1567                 2.9908

                     40                     41                     42
                      A                      A                      A
 Frequencies --   1535.4428              1816.4273              3024.9316
 Red. masses --      1.1386                 9.7056                 1.0899
 Frc consts  --      1.5816                18.8673                 5.8759
 IR Inten    --      2.9032               230.6345                79.3536

                     43                     44                     45
                      A                      A                      A
 Frequencies --   3056.3681              3058.9051              3069.4803
 Red. masses --      1.0587                 1.0583                 1.0629
 Frc consts  --      5.8270                 5.8343                 5.9002
 IR Inten    --     38.3405                31.1037                41.2662

                     46                     47                     48
                      A                      A                      A
 Frequencies --   3076.8440              3099.6265              3126.4090
 Red. masses --      1.0579                 1.1060                 1.1069
 Frc consts  --      5.9005                 6.2606                 6.3747
 IR Inten    --      6.3679                16.0712                18.2600

                     49                     50                     51
                      A                      A                      A
 Frequencies --   3132.0049              3133.6052              3141.8070
 Red. masses --      1.0967                 1.0985                 1.1101
 Frc consts  --      6.3383                 6.3555                 6.4559
 IR Inten    --     30.3955                30.2096                25.6040

 - Thermochemistry -
 -------------------
 Temperature   298.150 Kelvin.  Pressure   1.00000 Atm.
 Atom     1 has atomic number  8 and mass  15.99491

 Molecular mass:   126.06808 amu.
 Principal axes and moments of inertia in atomic units:
                           1         2         3
     Eigenvalues --   529.217101375.836651469.33159
           X            0.99992   0.01285   0.00125
           Y           -0.01270   0.99657  -0.08177
           Z           -0.00230   0.08174   0.99665
 This molecule is an asymmetric top.
 Rotational symmetry number  1.
 Warning -- assumption of classical behavior for rotation
           may cause significant error
 Rotational temperatures (Kelvin)      0.16366     0.06295     0.05895
 Rotational constants (GHZ):           3.41021     1.31174     1.22827
 Zero-point vibrational energy     423202.5 (Joules/Mol)
                                  101.14782 (Kcal/Mol)
 Warning -- explicit consideration of   9 degrees of freedom as
           vibrations may cause significant error
 Vibrational temperatures:    109.22   228.66   320.20   388.98   523.12
          (Kelvin)            593.52   644.69   751.96   783.89   940.56
                             1143.42  1200.74  1205.40  1210.41  1268.13
                             1338.74  1351.27  1406.52  1409.81  1460.05
                             1470.92  1503.94  1558.80  1609.80  1628.39
                             1646.00  1726.37  1748.17  1763.49  1788.27
                             1800.44  1818.81  1837.40  1904.66  1913.26
                             2034.75  2139.47  2153.90  2163.41  2209.16
                             2613.43  4352.20  4397.43  4401.08  4416.29
                             4426.89  4459.67  4498.20  4506.25  4508.55
                             4520.35

 Zero-point correction=                           0.161189 (Hartree/Particle)
 Thermal correction to Energy=                    0.168717
 Thermal correction to Enthalpy=                  0.169661
 Thermal correction to Gibbs Free Energy=         0.129038
 Sum of electronic and zero-point Energies=           -423.048828
 Sum of electronic and thermal Energies=              -423.041300
 Sum of electronic and thermal Enthalpies=            -423.040356
 Sum of electronic and thermal Free Energies=         -423.080979

                     E (Thermal)             CV                S
                      KCal/Mol        Cal/Mol-Kelvin    Cal/Mol-Kelvin
 Total                  105.871             29.708             85.498
 Electronic               0.000              0.000              0.000
 Translational            0.889              2.981             40.409
 Rotational               0.889              2.981             28.461
 Vibrational            104.094             23.746             16.629
 Vibration     1          0.599              1.965              3.994
 Vibration     2          0.621              1.893              2.563
 Vibration     3          0.648              1.807              1.938
 Vibration     4          0.674              1.728              1.594
 Vibration     5          0.737              1.547              1.107
 Vibration     6          0.776              1.443              0.918
 Vibration     7          0.807              1.365              0.802
 Vibration     8          0.878              1.200              0.604
 Vibration     9          0.900              1.151              0.555

 Optimization completed.
    -- Stationary point found.
 Normal termination of Gaussian 09 at Mon Jan 27 14:25:09 2020.
