 Gaussian 09, Revision D.01,
 Gaussian 09:  ES64L-G09RevD.01 24-Apr-2013

 -----------------------------
 # b3lyp 6-31G(2df,p) opt Freq
 -----------------------------

 -----
 titel
 -----
 Symbolic Z-matrix:
 Charge =  0 Multiplicity = 1

 SCF Done:  E(RB3LYP) =  -423.167689629     A.U. after   14 cycles
 Optimization completed.
    -- Stationary point found.
 Normal termination of Gaussian 09 at Mon Jan 27 12:01:21 2020.

 ----------------------------------------------------------------------
 #N Geom=AllCheck Guess=TCheck SCRF=Check GenChk RB3LYP/6-31G(2df,p) Fr
 eq
 ----------------------------------------------------------------------

 Structure from the checkpoint file:  "/scratch/puck/g09_79f2a9df-2e5d-4660-b23a-18177a66141f/Gau-96620.chk"
 -----
 titel
 -----
 Charge =  0 Multiplicity = 1

                         Standard orientation:
 ---------------------------------------------------------------------
 Center     Atomic      Atomic             Coordinates (Angstroms)
 Number     Number       Type             X           Y           Z
 ---------------------------------------------------------------------
      1          6           0        2.476471   -0.224986   -0.306623
      2          8           0        1.866583    0.126281    0.939015
      3          6           0        1.019179   -0.097585   -0.206585
      4          6           0        0.305322    1.146123   -0.692441
      5          6           0       -0.840244    1.496687    0.271182
      6          6           0       -1.755337    0.315583    0.505818
      7          8           0       -2.121858   -0.443564   -0.652642
      8          6           0       -1.267374   -1.061202    0.320958
      9          6           0        0.157209   -1.347757   -0.124260
     10          1           0        3.057373    0.563849   -0.783865
     11          1           0        2.932696   -1.214472   -0.340317
     12          1           0        1.011379    1.978497   -0.756204
     13          1           0       -0.099901    0.966224   -1.693688
     14          1           0       -0.424491    1.808283    1.237165
     15          1           0       -1.421212    2.341433   -0.116372
     16          1           0       -2.575476    0.482420    1.205449
     17          1           0       -1.754203   -1.862081    0.877581
     18          1           0        0.629002   -2.045364    0.574503
     19          1           0        0.115686   -1.841698   -1.103534
 ---------------------------------------------------------------------

 SCF Done:  E(RB3LYP) =  -423.167689629     A.U. after    1 cycles

 The electronic state is 1-A.
 Alpha  occ. eigenvalues --  -19.14584 -19.14580 -10.24184 -10.23650 -10.23547
 Alpha  occ. eigenvalues --  -10.23077 -10.19179 -10.18816 -10.18661  -1.06870
 Alpha  occ. eigenvalues --   -1.06409  -0.80318  -0.75734  -0.69620  -0.65779
 Alpha  occ. eigenvalues --   -0.61927  -0.59904  -0.53245  -0.51960  -0.49076
 Alpha  occ. eigenvalues --   -0.46753  -0.45380  -0.44517  -0.42077  -0.39954
 Alpha  occ. eigenvalues --   -0.38481  -0.37821  -0.36656  -0.34485  -0.33958
 Alpha  occ. eigenvalues --   -0.29749  -0.28678  -0.26432  -0.26102
 Alpha virt. eigenvalues --    0.09006   0.09396   0.10072   0.11302   0.11838
 Alpha virt. eigenvalues --    0.13138   0.13760   0.14715   0.15586   0.16151
 Alpha virt. eigenvalues --    0.17591   0.17847   0.18498   0.19667   0.21530

 Mulliken charges:
               1
     1  C   -0.245096
     2  O   -0.281888
     3  C    0.425059
     4  C   -0.286217
     5  C   -0.239686
     6  C    0.064427
     7  O   -0.259870
     8  C    0.043520
     9  C   -0.301060
    10  H    0.110332
    11  H    0.108687
    12  H    0.101264
    13  H    0.118380
    14  H    0.122150
    15  H    0.105721
    16  H    0.087372
    17  H    0.092698
    18  H    0.115089
    19  H    0.119118
 Sum of Mulliken charges =   0.00000

 Dipole moment (field-independent basis, Debye):
    X=              0.5923    Y=             -0.1201    Z=             -0.2704  Tot=              0.6621
 Quadrupole moment (field-independent basis, Debye-Ang):
   XX=            -55.3695   YY=            -49.3925   ZZ=            -55.0018
   XY=             -2.0398   XZ=             -7.1005   YZ=             -1.1081

  Exact polarizability:  84.683  -3.039  76.676  -4.508  -0.510  61.027
 Approx polarizability: 112.269  -4.119 108.540   0.572   2.112 102.918

                      1                      2                      3
                      A                      A                      A
 Frequencies --     90.6148               174.4913               300.3890
 Red. masses --      3.7754                 2.9335                 6.1932
 Frc consts  --      0.0183                 0.0526                 0.3293
 IR Inten    --      4.4050                 4.1630                 2.4704

                      4                      5                      6
                      A                      A                      A
 Frequencies --    303.6681               343.4096               382.6648
 Red. masses --      2.6076                 2.3562                 1.9739
 Frc consts  --      0.1417                 0.1637                 0.1703
 IR Inten    --      0.7926                 2.4470                 4.0997

                      7                      8                      9
                      A                      A                      A
 Frequencies --    415.6251               493.7640               570.1882
 Red. masses --      2.2851                 3.8865                 3.9982
 Frc consts  --      0.2326                 0.5583                 0.7659
 IR Inten    --      8.1377                 2.6484                 3.7076

                     10                     11                     12
                      A                      A                      A
 Frequencies --    649.9489               718.4633               789.4135
 Red. masses --      3.7593                 2.8143                 4.1531
 Frc consts  --      0.9357                 0.8559                 1.5249
 IR Inten    --      3.7242                 4.5329                 8.7261

                     13                     14                     15
                      A                      A                      A
 Frequencies --    802.2147               819.5761               881.3541
 Red. masses --      2.9252                 2.4972                 2.0882
 Frc consts  --      1.1091                 0.9883                 0.9557
 IR Inten    --      5.0878                33.1750                 3.6641

                     16                     17                     18
                      A                      A                      A
 Frequencies --    908.0426               925.8391               960.4454
 Red. masses --      2.0392                 3.0412                 1.9511
 Frc consts  --      0.9906                 1.5359                 1.0604
 IR Inten    --      5.6903                 2.6300                 9.5137

                     19                     20                     21
                      A                      A                      A
 Frequencies --   1001.1576              1014.5096              1041.5249
 Red. masses --      4.6247                 1.9634                 2.1159
 Frc consts  --      2.7311                 1.1906                 1.3523
 IR Inten    --     16.2966                25.2268                 5.8252

                     22                     23                     24
                      A                      A                      A
 Frequencies --   1052.5068              1082.6597              1128.9476
 Red. masses --      1.7085                 1.2379                 1.2965
 Frc consts  --      1.1151                 0.8549                 0.9736
 IR Inten    --      1.0858                 2.4164                 3.2928

                     25                     26                     27
                      A                      A                      A
 Frequencies --   1150.9034              1166.1243              1189.0200
 Red. masses --      1.2825                 1.4239                 1.4949
 Frc consts  --      1.0009                 1.1408                 1.2452
 IR Inten    --      1.8689                 1.5643                 4.8098

                     28                     29                     30
                      A                      A                      A
 Frequencies --   1237.1267              1250.9336              1288.5026
 Red. masses --      1.3506                 1.3810                 1.4337
 Frc consts  --      1.2179                 1.2732                 1.4024
 IR Inten    --      2.5744                 5.4924                 1.6633

                     31                     32                     33
                      A                      A                      A
 Frequencies --   1291.8179              1322.9614              1361.3654
 Red. masses --      1.4830                 1.9013                 1.5120
 Frc consts  --      1.4582                 1.9606                 1.6510
 IR Inten    --      3.4989                 3.0399                 2.8600

                     34                     35                     36
                      A                      A                      A
 Frequencies --   1375.9227              1383.0766              1438.5384
 Red. masses --      1.7580                 1.3703                 2.0002
 Frc consts  --      1.9610                 1.5444                 2.4388
 IR Inten    --      2.8398                 6.4777                 8.3509

                     37                     38                     39
                      A                      A                      A
 Frequencies --   1452.4409              1468.7680              1480.7952
 Red. masses --      1.2130                 1.3388                 1.3826
 Frc consts  --      1.5076                 1.7016                 1.7862
 IR Inten    --      5.7550                11.5804                 9.2799

                     40                     41                     42
                      A                      A                      A
 Frequencies --   1487.7666              1531.6506              3029.0407
 Red. masses --      1.3540                 1.4018                 1.0641
 Frc consts  --      1.7658                 1.9375                 5.7525
 IR Inten    --      4.5566                 4.0501                17.5785

                     43                     44                     45
                      A                      A                      A
 Frequencies --   3033.2727              3052.2411              3072.5243
 Red. masses --      1.0592                 1.0625                 1.0843
 Frc consts  --      5.7419                 5.8322                 6.0310
 IR Inten    --     20.9818                10.5858                27.3343

                     46                     47                     48
                      A                      A                      A
 Frequencies --   3074.0317              3086.4361              3097.7300
 Red. masses --      1.0652                 1.0968                 1.0863
 Frc consts  --      5.9308                 6.1561                 6.1416
 IR Inten    --     29.0549                 6.5863                28.2080

                     49                     50                     51
                      A                      A                      A
 Frequencies --   3102.7174              3111.9783              3157.1068
 Red. masses --      1.1042                 1.0920                 1.1190
 Frc consts  --      6.2631                 6.2307                 6.5712
 IR Inten    --     24.3635                54.6675                25.0922

 - Thermochemistry -
 -------------------
 Temperature   298.150 Kelvin.  Pressure   1.00000 Atm.
 Atom     1 has atomic number  6 and mass  12.00000

 Molecular mass:   126.06808 amu.
 Principal axes and moments of inertia in atomic units:
                           1         2         3
     Eigenvalues --   546.505761266.806011506.67710
           X            0.99932  -0.01796  -0.03208
           Y            0.01735   0.99967  -0.01898
           Z            0.03241   0.01841   0.99931
 This molecule is an asymmetric top.
 Rotational symmetry number  1.
 Warning -- assumption of classical behavior for rotation
           may cause significant error
 Rotational temperatures (Kelvin)      0.15849     0.06837     0.05749
 Rotational constants (GHZ):           3.30233     1.42464     1.19783
 Zero-point vibrational energy     421960.0 (Joules/Mol)
                                  100.85087 (Kcal/Mol)
 Warning -- explicit consideration of   9 degrees of freedom as
           vibrations may cause significant error
 Vibrational temperatures:    130.37   251.05   432.19   436.91   494.09
          (Kelvin)            550.57   597.99   710.42   820.37   935.13
                             1033.71  1135.79  1154.21  1179.19  1268.07
                             1306.47  1332.07  1381.86  1440.44  1459.65
                             1498.52  1514.32  1557.70  1624.30  1655.89
                             1677.79  1710.73  1779.95  1799.81  1853.87
                             1858.64  1903.44  1958.70  1979.64  1989.94
                             2069.73  2089.74  2113.23  2130.53  2140.56
                             2203.70  4358.11  4364.20  4391.49  4420.67
                             4422.84  4440.69  4456.94  4464.11  4477.44
                             4542.37

 Zero-point correction=                           0.160716 (Hartree/Particle)
 Thermal correction to Energy=                    0.168167
 Thermal correction to Enthalpy=                  0.169111
 Thermal correction to Gibbs Free Energy=         0.128877
 Sum of electronic and zero-point Energies=           -423.006974
 Sum of electronic and thermal Energies=              -422.999523
 Sum of electronic and thermal Enthalpies=            -422.998579
 Sum of electronic and thermal Free Energies=         -423.038813

                     E (Thermal)             CV                S
                      KCal/Mol        Cal/Mol-Kelvin    Cal/Mol-Kelvin
 Total                  105.526             29.846             84.679
 Electronic               0.000              0.000              0.000
 Translational            0.889              2.981             40.409
 Rotational               0.889              2.981             28.436
 Vibrational            103.749             23.884             15.835
 Vibration     1          0.602              1.956              3.647
 Vibration     2          0.627              1.874              2.387
 Vibration     3          0.693              1.673              1.415
 Vibration     4          0.695              1.667              1.397
 Vibration     5          0.722              1.589              1.196
 Vibration     6          0.752              1.507              1.029
 Vibration     7          0.779              1.436              0.907
 Vibration     8          0.849              1.264              0.674
 Vibration     9          0.926              1.096              0.504

 Optimization completed.
    -- Stationary point found.
 Normal termination of Gaussian 09 at Mon Jan 27 12:44:32 2020.
