 Gaussian 09, Revision D.01,
 Gaussian 09:  ES64L-G09RevD.01 24-Apr-2013

 -----------------------------
 # b3lyp 6-31G(2df,p) opt Freq
 -----------------------------

 -----
 titel
 -----
 Symbolic Z-matrix:
 Charge =  0 Multiplicity = 1

 SCF Done:  E(RB3LYP) =  -423.103433282     A.U. after   12 cycles
 Optimization completed.
    -- Stationary point found.
 Normal termination of Gaussian 09 at Tue Jan 28 12:42:23 2020.

 ----------------------------------------------------------------------
 #N Geom=AllCheck Guess=TCheck SCRF=Check GenChk RB3LYP/6-31G(2df,p) Fr
 eq
 ----------------------------------------------------------------------

 Structure from the checkpoint file:  "/scratch/puck/g09_83d4d3b8-b3a6-49ee-8855-2ef40f960fe7/Gau-3354.chk"
 -----
 titel
 -----
 Charge =  0 Multiplicity = 1

                         Standard orientation:
 ---------------------------------------------------------------------
 Center     Atomic      Atomic             Coordinates (Angstroms)
 Number     Number       Type             X           Y           Z
 ---------------------------------------------------------------------
      1          8           0       -2.670109    0.323891    0.256876
      2          6           0       -1.849799   -0.855829    0.236171
      3          6           0       -0.609831   -0.619831   -0.608326
      4          6           0        0.754889   -1.257392   -0.249821
      5          6           0        1.556415   -0.034661   -0.833687
      6          6           0        2.401896    0.107255    0.447295
      7          6           0        1.008268   -0.302042    0.964377
      8          6           0        0.279218    0.552508   -0.160343
      9          8           0       -0.071693    1.882718   -0.123778
     10          1           0       -3.012946    0.454628   -0.633801
     11          1           0       -1.579925   -1.032776    1.281634
     12          1           0       -2.428451   -1.725339   -0.106520
     13          1           0       -0.849456   -0.621885   -1.681448
     14          1           0        1.061973   -2.299239   -0.314362
     15          1           0        1.841999    0.092582   -1.879147
     16          1           0        3.208108   -0.620141    0.585842
     17          1           0        2.743152    1.114912    0.699177
     18          1           0        0.680318   -0.459012    1.992268
     19          1           0       -0.976692    1.903354    0.217585
 ---------------------------------------------------------------------

 SCF Done:  E(RB3LYP) =  -423.103433282     A.U. after    1 cycles

 The electronic state is 1-A.
 Alpha  occ. eigenvalues --  -19.14964 -19.13722 -10.23977 -10.23133 -10.19988
 Alpha  occ. eigenvalues --  -10.19354 -10.19022 -10.18640 -10.17755  -1.03165
 Alpha  occ. eigenvalues --   -1.02081  -0.92951  -0.76165  -0.68241  -0.63233
 Alpha  occ. eigenvalues --   -0.61885  -0.59130  -0.53114  -0.51362  -0.49703
 Alpha  occ. eigenvalues --   -0.47099  -0.45192  -0.43433  -0.41757  -0.40277
 Alpha  occ. eigenvalues --   -0.37320  -0.34430  -0.32872  -0.31638  -0.30743
 Alpha  occ. eigenvalues --   -0.30134  -0.28903  -0.26605  -0.24562
 Alpha virt. eigenvalues --    0.06057   0.10193   0.11499   0.12138   0.12433
 Alpha virt. eigenvalues --    0.12899   0.13892   0.15068   0.16774   0.17167
 Alpha virt. eigenvalues --    0.18252   0.19293   0.19671   0.21152   0.21359

 Mulliken charges:
               1
     1  O   -0.420317
     2  C   -0.116380
     3  C   -0.106690
     4  C   -0.075870
     5  C   -0.090957
     6  C   -0.276909
     7  C   -0.120168
     8  C    0.439832
     9  O   -0.486463
    10  H    0.287632
    11  H    0.116546
    12  H    0.093956
    13  H    0.057634
    14  H    0.077252
    15  H    0.069765
    16  H    0.088258
    17  H    0.105520
    18  H    0.071051
    19  H    0.286308
 Sum of Mulliken charges =   0.00000

 Dipole moment (field-independent basis, Debye):
    X=             -0.9355    Y=             -1.6692    Z=             -0.8183  Tot=              2.0811
 Quadrupole moment (field-independent basis, Debye-Ang):
   XX=            -51.7212   YY=            -55.1930   ZZ=            -51.9459
   XY=             -0.9741   XZ=              3.6413   YZ=              0.1336

  Exact polarizability:  87.546   0.291  70.843   2.490   0.043  67.928
 Approx polarizability: 114.855  -2.157 110.557   1.975  -0.499 108.088

                      1                      2                      3
                      A                      A                      A
 Frequencies --    104.5236               144.7461               227.5107
 Red. masses --      4.0934                 5.4310                 2.0861
 Frc consts  --      0.0263                 0.0670                 0.0636
 IR Inten    --      1.6043                 3.8714                11.0999

                      4                      5                      6
                      A                      A                      A
 Frequencies --    275.4291               317.7092               361.5598
 Red. masses --      2.4056                 1.3248                 3.6689
 Frc consts  --      0.1075                 0.0788                 0.2826
 IR Inten    --     15.7086               110.3436                 2.8951

                      7                      8                      9
                      A                      A                      A
 Frequencies --    382.3386               493.6644               513.9030
 Red. masses --      3.7575                 2.0298                 1.3593
 Frc consts  --      0.3236                 0.2915                 0.2115
 IR Inten    --     32.9547                12.5884                39.5094

                     10                     11                     12
                      A                      A                      A
 Frequencies --    582.5232               659.9942               738.0802
 Red. masses --      2.3147                 4.0885                 3.9678
 Frc consts  --      0.4628                 1.0493                 1.2735
 IR Inten    --     24.5799                 4.5421                 2.7790

                     13                     14                     15
                      A                      A                      A
 Frequencies --    747.1301               863.8942               874.3007
 Red. masses --      3.3286                 2.4211                 1.9874
 Frc consts  --      1.0947                 1.0646                 0.8951
 IR Inten    --      1.3683                 5.3446                 0.3907

                     16                     17                     18
                      A                      A                      A
 Frequencies --    887.5972               912.5776               928.9709
 Red. masses --      1.6144                 2.3483                 2.0691
 Frc consts  --      0.7494                 1.1523                 1.0520
 IR Inten    --      5.3211                 0.5145                 7.6623

                     19                     20                     21
                      A                      A                      A
 Frequencies --    944.2604              1000.8019              1011.8273
 Red. masses --      1.9604                 1.5330                 2.9374
 Frc consts  --      1.0298                 0.9047                 1.7719
 IR Inten    --      1.6731                34.2451                53.2161

                     22                     23                     24
                      A                      A                      A
 Frequencies --   1025.5901              1062.8811              1074.6035
 Red. masses --      1.4997                 2.1186                 2.3162
 Frc consts  --      0.9294                 1.4102                 1.5759
 IR Inten    --      4.4974                 0.3256                 1.3728

                     25                     26                     27
                      A                      A                      A
 Frequencies --   1084.3038              1102.6655              1141.1491
 Red. masses --      1.5315                 2.3233                 1.6653
 Frc consts  --      1.0609                 1.6643                 1.2777
 IR Inten    --      0.8774                17.5466                 1.1609

                     28                     29                     30
                      A                      A                      A
 Frequencies --   1150.5117              1156.2481              1200.7001
 Red. masses --      1.4521                 1.3743                 1.9525
 Frc consts  --      1.1325                 1.0825                 1.6584
 IR Inten    --      0.7400                12.6715                 1.4716

                     31                     32                     33
                      A                      A                      A
 Frequencies --   1214.4172              1224.4209              1243.2570
 Red. masses --      1.5223                 1.6406                 1.7135
 Frc consts  --      1.3228                 1.4492                 1.5605
 IR Inten    --     20.2791                48.4281                17.5010

                     34                     35                     36
                      A                      A                      A
 Frequencies --   1278.1767              1303.9836              1369.6259
 Red. masses --      2.1624                 1.6081                 1.3577
 Frc consts  --      2.0815                 1.6110                 1.5006
 IR Inten    --     45.9749               117.7165                15.0525

                     37                     38                     39
                      A                      A                      A
 Frequencies --   1405.3699              1417.1063              1429.3967
 Red. masses --      1.3177                 1.6076                 2.1119
 Frc consts  --      1.5334                 1.9021                 2.5424
 IR Inten    --     72.7279                20.3310                27.2112

                     40                     41                     42
                      A                      A                      A
 Frequencies --   1505.5590              1507.5881              2999.2763
 Red. masses --      1.0889                 1.1333                 1.0765
 Frc consts  --      1.4542                 1.5177                 5.7056
 IR Inten    --      2.0958                 0.8067                43.5725

                     43                     44                     45
                      A                      A                      A
 Frequencies --   3009.7677              3045.1556              3088.1978
 Red. masses --      1.0755                 1.0555                 1.0947
 Frc consts  --      5.7403                 5.7668                 6.1513
 IR Inten    --     66.0571                58.3313                14.2504

                     46                     47                     48
                      A                      A                      A
 Frequencies --   3101.6925              3105.6721              3108.6708
 Red. masses --      1.0901                 1.1070                 1.0915
 Frc consts  --      6.1790                 6.2908                 6.2148
 IR Inten    --     76.0996                27.9062                33.0381

                     49                     50                     51
                      A                      A                      A
 Frequencies --   3139.5028              3750.1468              3809.0095
 Red. masses --      1.0935                 1.0652                 1.0662
 Frc consts  --      6.3500                 8.8267                 9.1139
 IR Inten    --     32.2231                87.0127                23.4342

 - Thermochemistry -
 -------------------
 Temperature   298.150 Kelvin.  Pressure   1.00000 Atm.
 Atom     1 has atomic number  8 and mass  15.99491

 Molecular mass:   126.06808 amu.
 Principal axes and moments of inertia in atomic units:
                           1         2         3
     Eigenvalues --   549.544541296.410651540.20724
           X            0.99992   0.00750   0.00972
           Y           -0.00751   0.99997   0.00135
           Z           -0.00971  -0.00142   0.99995
 This molecule is an asymmetric top.
 Rotational symmetry number  1.
 Warning -- assumption of classical behavior for rotation
           may cause significant error
 Rotational temperatures (Kelvin)      0.15761     0.06681     0.05624
 Rotational constants (GHZ):           3.28407     1.39211     1.17175
 Zero-point vibrational energy     418860.4 (Joules/Mol)
                                  100.11003 (Kcal/Mol)
 Warning -- explicit consideration of  10 degrees of freedom as
           vibrations may cause significant error
 Vibrational temperatures:    150.39   208.26   327.34   396.28   457.11
          (Kelvin)            520.20   550.10   710.27   739.39   838.12
                              949.58  1061.93  1074.95  1242.95  1257.92
                             1277.05  1312.99  1336.58  1358.58  1439.93
                             1455.79  1475.59  1529.25  1546.11  1560.07
                             1586.49  1641.86  1655.33  1663.58  1727.54
                             1747.27  1761.67  1788.77  1839.01  1876.14
                             1970.58  2022.01  2038.90  2056.58  2166.16
                             2169.08  4315.28  4330.38  4381.29  4443.22
                             4462.64  4468.36  4472.68  4517.04  5395.62
                             5480.31

 Zero-point correction=                           0.159535 (Hartree/Particle)
 Thermal correction to Energy=                    0.167449
 Thermal correction to Enthalpy=                  0.168393
 Thermal correction to Gibbs Free Energy=         0.127335
 Sum of electronic and zero-point Energies=           -422.943898
 Sum of electronic and thermal Energies=              -422.935984
 Sum of electronic and thermal Enthalpies=            -422.935040
 Sum of electronic and thermal Free Energies=         -422.976098

                     E (Thermal)             CV                S
                      KCal/Mol        Cal/Mol-Kelvin    Cal/Mol-Kelvin
 Total                  105.076             31.621             86.414
 Electronic               0.000              0.000              0.000
 Translational            0.889              2.981             40.409
 Rotational               0.889              2.981             28.486
 Vibrational            103.298             25.659             17.520
 Vibration     1          0.605              1.946              3.368
 Vibration     2          0.616              1.908              2.740
 Vibration     3          0.651              1.799              1.899
 Vibration     4          0.677              1.719              1.562
 Vibration     5          0.704              1.640              1.322
 Vibration     6          0.736              1.551              1.115
 Vibration     7          0.752              1.508              1.030
 Vibration     8          0.849              1.264              0.674
 Vibration     9          0.869              1.219              0.624
 Vibration    10          0.939              1.069              0.481

 Normal termination of Gaussian 09 at Tue Jan 28 13:32:09 2020.
