 Gaussian 09, Revision D.01,
 Gaussian 09:  ES64L-G09RevD.01 24-Apr-2013

 -----------------------------
 # b3lyp 6-31G(2df,p) opt Freq
 -----------------------------

 -----
 titel
 -----
 Symbolic Z-matrix:
 Charge =  0 Multiplicity = 1

 SCF Done:  E(RB3LYP) =  -423.129051101     A.U. after   13 cycles
 Optimization completed.
    -- Stationary point found.
 Normal termination of Gaussian 09 at Mon Jan 27 22:02:08 2020.

 ----------------------------------------------------------------------
 #N Geom=AllCheck Guess=TCheck SCRF=Check GenChk RB3LYP/6-31G(2df,p) Fr
 eq
 ----------------------------------------------------------------------

 Structure from the checkpoint file:  "/scratch/puck/g09_61d0cec7-fa94-4321-81a8-f037f82983ef/Gau-98639.chk"
 -----
 titel
 -----
 Charge =  0 Multiplicity = 1

                         Standard orientation:
 ---------------------------------------------------------------------
 Center     Atomic      Atomic             Coordinates (Angstroms)
 Number     Number       Type             X           Y           Z
 ---------------------------------------------------------------------
      1          6           0       -2.397131   -1.339591   -0.009086
      2          6           0       -1.067823   -0.753071   -0.434181
      3          6           0       -0.064953   -0.440764    0.669221
      4          6           0       -0.784866    0.681962   -0.082723
      5          8           0       -1.734273    1.537517    0.446069
      6          6           0        0.534665    1.155866   -0.718200
      7          6           0        1.232202    0.013812    0.051580
      8          6           0        2.586404   -0.026191    0.596530
      9          8           0        2.202852   -0.858328   -0.509661
     10          1           0       -2.317344   -2.420702    0.142811
     11          1           0       -2.749725   -0.887239    0.921692
     12          1           0       -3.164605   -1.168949   -0.772778
     13          1           0       -0.677973   -1.143475   -1.373734
     14          1           0       -0.210155   -0.803817    1.679736
     15          1           0       -2.367683    1.755232   -0.247194
     16          1           0        0.602857    1.119285   -1.810223
     17          1           0        0.833917    2.144788   -0.361355
     18          1           0        3.289154    0.772826    0.360970
     19          1           0        2.781935   -0.553601    1.529964
 ---------------------------------------------------------------------

 SCF Done:  E(RB3LYP) =  -423.129051101     A.U. after    1 cycles

 The electronic state is 1-A.
 Alpha  occ. eigenvalues --  -19.15374 -19.14306 -10.24350 -10.24139 -10.22827
 Alpha  occ. eigenvalues --  -10.19459 -10.18858 -10.18503 -10.18036  -1.06459
 Alpha  occ. eigenvalues --   -1.03923  -0.88962  -0.75483  -0.68220  -0.66186
 Alpha  occ. eigenvalues --   -0.62244  -0.58377  -0.53505  -0.51282  -0.49675
 Alpha  occ. eigenvalues --   -0.47387  -0.43949  -0.43077  -0.42048  -0.40508
 Alpha  occ. eigenvalues --   -0.38044  -0.37683  -0.36344  -0.34463  -0.32554
 Alpha  occ. eigenvalues --   -0.30204  -0.26080  -0.25463  -0.25057
 Alpha virt. eigenvalues --    0.06859   0.08920   0.10774   0.11643   0.12318
 Alpha virt. eigenvalues --    0.13061   0.13515   0.14855   0.15724   0.16617
 Alpha virt. eigenvalues --    0.17389   0.17591   0.18753   0.20952   0.22228

 Mulliken charges:
               1
     1  C   -0.433024
     2  C   -0.071374
     3  C   -0.225927
     4  C    0.384318
     5  O   -0.458973
     6  C   -0.403673
     7  C    0.476298
     8  C   -0.272994
     9  O   -0.277408
    10  H    0.123523
    11  H    0.130924
    12  H    0.112533
    13  H    0.089272
    14  H    0.093116
    15  H    0.288260
    16  H    0.103259
    17  H    0.114796
    18  H    0.112946
    19  H    0.114127
 Sum of Mulliken charges =   0.00000

 Dipole moment (field-independent basis, Debye):
    X=             -1.2442    Y=              0.9403    Z=             -0.0926  Tot=              1.5623
 Quadrupole moment (field-independent basis, Debye-Ang):
   XX=            -50.8024   YY=            -54.0693   ZZ=            -52.5287
   XY=              2.8429   XZ=              5.9455   YZ=             -3.8948

  Exact polarizability:  92.664   3.564  71.482   5.089  -3.169  65.564
 Approx polarizability: 117.859  -1.548 106.635   6.310  -0.513 103.826

                      1                      2                      3
                      A                      A                      A
 Frequencies --     99.8517               181.5192               199.3663
 Red. masses --      4.1597                 1.3585                 1.8053
 Frc consts  --      0.0244                 0.0264                 0.0423
 IR Inten    --      3.7272                 8.4283                 1.5279

                      4                      5                      6
                      A                      A                      A
 Frequencies --    210.0081               257.4883               286.5732
 Red. masses --      2.5517                 1.1143                 5.3597
 Frc consts  --      0.0663                 0.0435                 0.2593
 IR Inten    --      0.6932                93.6036                10.6946

                      7                      8                      9
                      A                      A                      A
 Frequencies --    316.5235               392.8419               424.8590
 Red. masses --      2.4371                 2.9734                 2.4528
 Frc consts  --      0.1439                 0.2704                 0.2609
 IR Inten    --      1.5893                 7.0540                 0.7881

                     10                     11                     12
                      A                      A                      A
 Frequencies --    438.7777               496.2578               591.2590
 Red. masses --      4.5660                 3.1700                 3.7230
 Frc consts  --      0.5179                 0.4600                 0.7668
 IR Inten    --      0.9834                 2.7734                 9.0298

                     13                     14                     15
                      A                      A                      A
 Frequencies --    690.2400               773.1031               804.7229
 Red. masses --      3.5280                 2.6550                 3.4281
 Frc consts  --      0.9903                 0.9349                 1.3080
 IR Inten    --      5.2648                 4.7883                21.8286

                     16                     17                     18
                      A                      A                      A
 Frequencies --    837.1087               899.8824               942.1565
 Red. masses --      2.9710                 1.5839                 2.1196
 Frc consts  --      1.2266                 0.7557                 1.1085
 IR Inten    --     48.3566                 3.9576                15.5528

                     19                     20                     21
                      A                      A                      A
 Frequencies --    949.7001               970.6488              1003.6303
 Red. masses --      1.4649                 2.1610                 2.1481
 Frc consts  --      0.7785                 1.1996                 1.2748
 IR Inten    --      0.2120                 4.3390                 2.8012

                     22                     23                     24
                      A                      A                      A
 Frequencies --   1037.3828              1062.6730              1102.7876
 Red. masses --      1.8278                 2.3122                 1.5515
 Frc consts  --      1.1589                 1.5384                 1.1117
 IR Inten    --     24.0321                 3.7923                 4.5359

                     25                     26                     27
                      A                      A                      A
 Frequencies --   1123.9342              1139.9353              1143.3048
 Red. masses --      1.3445                 1.7784                 1.7029
 Frc consts  --      1.0007                 1.3616                 1.3115
 IR Inten    --      3.7276                14.3393                25.2752

                     28                     29                     30
                      A                      A                      A
 Frequencies --   1156.9933              1170.2323              1216.9671
 Red. masses --      1.4072                 1.7418                 1.5766
 Frc consts  --      1.1099                 1.4053                 1.3757
 IR Inten    --      3.8528                 1.9677                12.5261

                     31                     32                     33
                      A                      A                      A
 Frequencies --   1224.9349              1244.5094              1304.0120
 Red. masses --      1.8881                 2.2890                 1.5355
 Frc consts  --      1.6692                 2.0888                 1.5384
 IR Inten    --     31.0233                15.2748                72.4919

                     34                     35                     36
                      A                      A                      A
 Frequencies --   1370.6231              1413.8544              1432.1678
 Red. masses --      1.7286                 1.3529                 2.2113
 Frc consts  --      1.9133                 1.5934                 2.6722
 IR Inten    --     14.1199                 0.7126                 8.2191

                     37                     38                     39
                      A                      A                      A
 Frequencies --   1444.2999              1482.9075              1494.1710
 Red. masses --      2.2331                 1.1985                 1.0485
 Frc consts  --      2.7446                 1.5529                 1.3792
 IR Inten    --     48.4402                 0.2694                 3.2468

                     40                     41                     42
                      A                      A                      A
 Frequencies --   1506.6556              1540.0877              3032.1527
 Red. masses --      1.1059                 1.7339                 1.0372
 Frc consts  --      1.4791                 2.4230                 5.6184
 IR Inten    --      9.8497                 8.3275                38.6072

                     43                     44                     45
                      A                      A                      A
 Frequencies --   3047.4011              3074.4662              3090.5143
 Red. masses --      1.0590                 1.0504                 1.0990
 Frc consts  --      5.7942                 5.8499                 6.1845
 IR Inten    --     30.0900                30.2781                20.3083

                     46                     47                     48
                      A                      A                      A
 Frequencies --   3100.9251              3108.5918              3121.3871
 Red. masses --      1.0903                 1.1063                 1.0988
 Frc consts  --      6.1769                 6.2990                 6.3074
 IR Inten    --      6.5624                14.6260                27.6496

                     49                     50                     51
                      A                      A                      A
 Frequencies --   3159.3818              3186.6922              3789.0648
 Red. masses --      1.1191                 1.0933                 1.0661
 Frc consts  --      6.5817                 6.5417                 9.0182
 IR Inten    --     22.5617                 8.4729                22.6844

 - Thermochemistry -
 -------------------
 Temperature   298.150 Kelvin.  Pressure   1.00000 Atm.
 Atom     1 has atomic number  6 and mass  12.00000

 Molecular mass:   126.06808 amu.
 Principal axes and moments of inertia in atomic units:
                           1         2         3
     Eigenvalues --   567.600791445.724171745.25978
           X            0.99870   0.04933   0.01284
           Y           -0.04873   0.99787  -0.04330
           Z           -0.01494   0.04262   0.99898
 This molecule is an asymmetric top.
 Rotational symmetry number  1.
 Warning -- assumption of classical behavior for rotation
           may cause significant error
 Rotational temperatures (Kelvin)      0.15260     0.05991     0.04963
 Rotational constants (GHZ):           3.17960     1.24833     1.03408
 Zero-point vibrational energy     413247.2 (Joules/Mol)
                                   98.76844 (Kcal/Mol)
 Warning -- explicit consideration of  12 degrees of freedom as
           vibrations may cause significant error
 Vibrational temperatures:    143.66   261.17   286.84   302.15   370.47
          (Kelvin)            412.31   455.41   565.21   611.28   631.30
                              714.00   850.69   993.10  1112.32  1157.82
                             1204.41  1294.73  1355.55  1366.40  1396.55
                             1444.00  1492.56  1528.95  1586.66  1617.09
                             1640.11  1644.96  1664.65  1683.70  1750.94
                             1762.41  1790.57  1876.18  1972.02  2034.22
                             2060.57  2078.02  2133.57  2149.78  2167.74
                             2215.84  4362.59  4384.53  4423.47  4446.56
                             4461.53  4472.56  4490.97  4545.64  4584.93
                             5451.61

 Zero-point correction=                           0.157398 (Hartree/Particle)
 Thermal correction to Energy=                    0.166106
 Thermal correction to Enthalpy=                  0.167050
 Thermal correction to Gibbs Free Energy=         0.124448
 Sum of electronic and zero-point Energies=           -422.971654
 Sum of electronic and thermal Energies=              -422.962945
 Sum of electronic and thermal Enthalpies=            -422.962001
 Sum of electronic and thermal Free Energies=         -423.004603

                     E (Thermal)             CV                S
                      KCal/Mol        Cal/Mol-Kelvin    Cal/Mol-Kelvin
 Total                  104.233             33.619             89.664
 Electronic               0.000              0.000              0.000
 Translational            0.889              2.981             40.409
 Rotational               0.889              2.981             28.750
 Vibrational            102.456             27.658             20.505
 Vibration     1          0.604              1.949              3.457
 Vibration     2          0.630              1.865              2.313
 Vibration     3          0.637              1.841              2.139
 Vibration     4          0.642              1.826              2.044
 Vibration     5          0.667              1.750              1.679
 Vibration     6          0.684              1.699              1.494
 Vibration     7          0.703              1.642              1.328
 Vibration     8          0.760              1.485              0.989
 Vibration     9          0.787              1.416              0.876
 Vibration    10          0.799              1.386              0.830
 Vibration    11          0.852              1.258              0.668
 Vibration    12          0.949              1.050              0.465

 Normal termination of Gaussian 09 at Mon Jan 27 22:51:00 2020.
