 Gaussian 09, Revision D.01,
 Gaussian 09:  ES64L-G09RevD.01 24-Apr-2013

 -----------------------------
 # b3lyp 6-31G(2df,p) opt Freq
 -----------------------------

 -----
 titel
 -----
 Symbolic Z-matrix:
 Charge =  0 Multiplicity = 1

 SCF Done:  E(RB3LYP) =  -423.168996130     A.U. after   13 cycles
 Optimization completed.
    -- Stationary point found.
 Normal termination of Gaussian 09 at Mon Jan 27 22:03:31 2020.

 ----------------------------------------------------------------------
 #N Geom=AllCheck Guess=TCheck SCRF=Check GenChk RB3LYP/6-31G(2df,p) Fr
 eq
 ----------------------------------------------------------------------

 Structure from the checkpoint file:  "/scratch/puck/g09_9e3ae212-1e64-4f66-b93c-77081a911fee/Gau-181013.chk"
 -----
 titel
 -----
 Charge =  0 Multiplicity = 1

                         Standard orientation:
 ---------------------------------------------------------------------
 Center     Atomic      Atomic             Coordinates (Angstroms)
 Number     Number       Type             X           Y           Z
 ---------------------------------------------------------------------
      1          6           0        2.116811    1.244862    0.364398
      2          6           0        0.710158    0.803962    0.076964
      3          6           0       -0.323385    1.632596   -0.073276
      4          6           0       -1.714719    1.121004   -0.355210
      5          8           0       -1.952896   -0.171310    0.189110
      6          6           0       -0.958898   -1.109434   -0.093773
      7          6           0       -0.051550   -1.513949    1.048382
      8          6           0        0.467963   -0.662877   -0.098626
      9          8           0        1.290747   -1.299157   -1.046707
     10          1           0        2.485793    0.809588    1.302446
     11          1           0        2.796244    0.915783   -0.430792
     12          1           0        2.187302    2.332575    0.443817
     13          1           0       -0.195074    2.709485    0.003846
     14          1           0       -2.464414    1.772868    0.104493
     15          1           0       -1.908019    1.125249   -1.442274
     16          1           0       -1.240636   -1.871554   -0.817519
     17          1           0       -0.231384   -1.031648    2.002379
     18          1           0        0.278737   -2.546947    1.087684
     19          1           0        2.110371   -1.548644   -0.606456
 ---------------------------------------------------------------------

 SCF Done:  E(RB3LYP) =  -423.168996130     A.U. after    1 cycles

 The electronic state is 1-A.
 Alpha  occ. eigenvalues --  -19.14627 -19.13966 -10.23955 -10.23012 -10.22915
 Alpha  occ. eigenvalues --  -10.19056 -10.18388 -10.18347 -10.17942  -1.04217
 Alpha  occ. eigenvalues --   -1.02548  -0.84235  -0.80094  -0.72268  -0.65518
 Alpha  occ. eigenvalues --   -0.61920  -0.59499  -0.52804  -0.50732  -0.49504
 Alpha  occ. eigenvalues --   -0.47036  -0.43964  -0.43891  -0.41719  -0.40231
 Alpha  occ. eigenvalues --   -0.39138  -0.38418  -0.36679  -0.34691  -0.33507
 Alpha  occ. eigenvalues --   -0.28709  -0.26867  -0.24537  -0.23053
 Alpha virt. eigenvalues --    0.01418   0.07349   0.10785   0.11238   0.12823
 Alpha virt. eigenvalues --    0.13146   0.13980   0.15115   0.15505   0.17070
 Alpha virt. eigenvalues --    0.17766   0.19546   0.20146   0.22567   0.23573

 Mulliken charges:
               1
     1  C   -0.503555
     2  C    0.278010
     3  C   -0.174290
     4  C   -0.125332
     5  O   -0.258715
     6  C    0.058983
     7  C   -0.370330
     8  C    0.257164
     9  O   -0.463370
    10  H    0.122518
    11  H    0.129619
    12  H    0.124117
    13  H    0.088020
    14  H    0.114934
    15  H    0.104281
    16  H    0.100605
    17  H    0.122639
    18  H    0.109761
    19  H    0.284940
 Sum of Mulliken charges =   0.00000

 Dipole moment (field-independent basis, Debye):
    X=              1.6527    Y=              0.5630    Z=              0.6626  Tot=              1.8675
 Quadrupole moment (field-independent basis, Debye-Ang):
   XX=            -51.8962   YY=            -49.1754   ZZ=            -55.4241
   XY=             -3.2027   XZ=              2.9877   YZ=             -1.3208

  Exact polarizability:  86.916  -7.049  84.298   4.655  -2.909  61.102
 Approx polarizability: 126.727 -17.034 119.394   5.451  -4.480  94.990

                      1                      2                      3
                      A                      A                      A
 Frequencies --    109.1706               174.6989               198.3410
 Red. masses --      3.2679                 1.4212                 1.8760
 Frc consts  --      0.0229                 0.0256                 0.0435
 IR Inten    --      0.9757                 5.8520                 3.5007

                      4                      5                      6
                      A                      A                      A
 Frequencies --    244.6605               263.1666               278.9009
 Red. masses --      2.2352                 2.6501                 1.4931
 Frc consts  --      0.0788                 0.1081                 0.0684
 IR Inten    --      3.6972                27.6407                37.8377

                      7                      8                      9
                      A                      A                      A
 Frequencies --    324.6834               388.8942               435.1941
 Red. masses --      2.0574                 3.3190                 3.3209
 Frc consts  --      0.1278                 0.2957                 0.3706
 IR Inten    --     31.6048                 0.8962                 2.1236

                     10                     11                     12
                      A                      A                      A
 Frequencies --    479.4242               541.2865               599.8491
 Red. masses --      3.4474                 4.2175                 3.3230
 Frc consts  --      0.4668                 0.7280                 0.7045
 IR Inten    --     10.7615                 2.1351                 4.9031

                     13                     14                     15
                      A                      A                      A
 Frequencies --    657.2422               741.9013               802.2708
 Red. masses --      3.9585                 3.0691                 2.0479
 Frc consts  --      1.0075                 0.9953                 0.7766
 IR Inten    --      1.9865                 5.1424                 9.7270

                     16                     17                     18
                      A                      A                      A
 Frequencies --    820.0339               902.5214               922.4956
 Red. masses --      1.4255                 2.0207                 1.5761
 Frc consts  --      0.5648                 0.9698                 0.7903
 IR Inten    --      7.4401                13.3383                 1.8491

                     19                     20                     21
                      A                      A                      A
 Frequencies --    940.2881               996.6235              1018.6520
 Red. masses --      2.5945                 2.9999                 1.4487
 Frc consts  --      1.3515                 1.7556                 0.8857
 IR Inten    --     19.2012                11.3688                 3.7664

                     22                     23                     24
                      A                      A                      A
 Frequencies --   1039.3309              1048.9005              1067.8116
 Red. masses --      1.5866                 2.3917                 1.5591
 Frc consts  --      1.0097                 1.5503                 1.0474
 IR Inten    --      9.1048                 6.5568                 3.1885

                     25                     26                     27
                      A                      A                      A
 Frequencies --   1076.9316              1092.9591              1162.1462
 Red. masses --      2.0461                 1.7275                 3.1054
 Frc consts  --      1.3981                 1.2158                 2.4711
 IR Inten    --     23.4726                21.0112                 2.1598

                     28                     29                     30
                      A                      A                      A
 Frequencies --   1181.5538              1231.5650              1269.0075
 Red. masses --      3.6400                 2.1502                 1.2381
 Frc consts  --      2.9940                 1.9215                 1.1747
 IR Inten    --    160.5228                45.8983                 1.5324

                     31                     32                     33
                      A                      A                      A
 Frequencies --   1275.9650              1331.7505              1372.7961
 Red. masses --      1.4828                 1.2964                 1.5100
 Frc consts  --      1.4223                 1.3547                 1.6767
 IR Inten    --      9.9785                22.1916                 5.3855

                     34                     35                     36
                      A                      A                      A
 Frequencies --   1390.6032              1401.7045              1415.1405
 Red. masses --      2.1197                 1.2855                 1.3718
 Frc consts  --      2.4151                 1.4881                 1.6187
 IR Inten    --      6.9362                 3.3070                 8.9652

                     37                     38                     39
                      A                      A                      A
 Frequencies --   1468.4164              1476.5662              1496.2510
 Red. masses --      1.6877                 1.0610                 1.1053
 Frc consts  --      2.1441                 1.3629                 1.4579
 IR Inten    --     13.4694                 5.4369                 1.8407

                     40                     41                     42
                      A                      A                      A
 Frequencies --   1496.3930              1736.4602              2951.7982
 Red. masses --      1.0670                 7.5510                 1.0724
 Frc consts  --      1.4077                13.4147                 5.5051
 IR Inten    --      5.4929                 2.6485                63.5032

                     43                     44                     45
                      A                      A                      A
 Frequencies --   3017.1819              3068.6848              3070.7497
 Red. masses --      1.0392                 1.0970                 1.0885
 Frc consts  --      5.5736                 6.0861                 6.0474
 IR Inten    --     28.5704                18.0109                31.9512

                     46                     47                     48
                      A                      A                      A
 Frequencies --   3115.1964              3126.6050              3131.4099
 Red. masses --      1.0991                 1.0747                 1.0672
 Frc consts  --      6.2845                 6.1897                 6.1657
 IR Inten    --     16.2756                16.3736                16.6392

                     49                     50                     51
                      A                      A                      A
 Frequencies --   3157.1328              3230.3434              3802.3324
 Red. masses --      1.0905                 1.1177                 1.0663
 Frc consts  --      6.4043                 6.8720                 9.0826
 IR Inten    --     17.7329                 5.3772                20.9726

 - Thermochemistry -
 -------------------
 Temperature   298.150 Kelvin.  Pressure   1.00000 Atm.
 Atom     1 has atomic number  6 and mass  12.00000

 Molecular mass:   126.06808 amu.
 Principal axes and moments of inertia in atomic units:
                           1         2         3
     Eigenvalues --   806.35402 991.804671476.45874
           X            0.99930   0.02602   0.02694
           Y           -0.02563   0.99956  -0.01478
           Z           -0.02731   0.01408   0.99953
 This molecule is an asymmetric top.
 Rotational symmetry number  1.
 Warning -- assumption of classical behavior for rotation
           may cause significant error
 Rotational temperatures (Kelvin)      0.10741     0.08733     0.05866
 Rotational constants (GHZ):           2.23815     1.81965     1.22234
 Zero-point vibrational energy     415965.4 (Joules/Mol)
                                   99.41812 (Kcal/Mol)
 Warning -- explicit consideration of  12 degrees of freedom as
           vibrations may cause significant error
 Vibrational temperatures:    157.07   251.35   285.37   352.01   378.64
          (Kelvin)            401.28   467.15   559.53   626.15   689.78
                              778.79   863.05   945.62  1067.43  1154.29
                             1179.84  1298.53  1327.26  1352.86  1433.92
                             1465.61  1495.36  1509.13  1536.34  1549.46
                             1572.52  1672.07  1699.99  1771.95  1825.82
                             1835.83  1916.09  1975.14  2000.77  2016.74
                             2036.07  2112.72  2124.45  2152.77  2152.97
                             2498.38  4246.97  4341.05  4415.15  4418.12
                             4482.07  4498.48  4505.39  4542.40  4647.74
                             5470.70

 Zero-point correction=                           0.158433 (Hartree/Particle)
 Thermal correction to Energy=                    0.167023
 Thermal correction to Enthalpy=                  0.167967
 Thermal correction to Gibbs Free Energy=         0.125738
 Sum of electronic and zero-point Energies=           -423.010563
 Sum of electronic and thermal Energies=              -423.001974
 Sum of electronic and thermal Enthalpies=            -423.001029
 Sum of electronic and thermal Free Energies=         -423.043258

                     E (Thermal)             CV                S
                      KCal/Mol        Cal/Mol-Kelvin    Cal/Mol-Kelvin
 Total                  104.808             33.355             88.878
 Electronic               0.000              0.000              0.000
 Translational            0.889              2.981             40.409
 Rotational               0.889              2.981             28.559
 Vibrational            103.031             27.394             19.910
 Vibration     1          0.606              1.942              3.284
 Vibration     2          0.627              1.874              2.384
 Vibration     3          0.637              1.842              2.148
 Vibration     4          0.660              1.772              1.769
 Vibration     5          0.670              1.740              1.641
 Vibration     6          0.679              1.713              1.540
 Vibration     7          0.709              1.626              1.286
 Vibration     8          0.757              1.494              1.004
 Vibration     9          0.796              1.394              0.842
 Vibration    10          0.836              1.296              0.712
 Vibration    11          0.896              1.159              0.563
 Vibration    12          0.958              1.032              0.450

 Normal termination of Gaussian 09 at Mon Jan 27 22:48:05 2020.
