 Gaussian 09, Revision D.01,
 Gaussian 09:  ES64L-G09RevD.01 24-Apr-2013

 -----------------------------
 # b3lyp 6-31G(2df,p) opt Freq
 -----------------------------

 -----
 titel
 -----
 Symbolic Z-matrix:
 Charge =  0 Multiplicity = 1

 SCF Done:  E(RB3LYP) =  -423.162714516     A.U. after   14 cycles
 Optimization completed.
    -- Stationary point found.
 Normal termination of Gaussian 09 at Tue Jan 28 02:54:25 2020.

 ----------------------------------------------------------------------
 #N Geom=AllCheck Guess=TCheck SCRF=Check GenChk RB3LYP/6-31G(2df,p) Fr
 eq
 ----------------------------------------------------------------------

 Structure from the checkpoint file:  "/scratch/puck/g09_7776d853-e4c3-4ecb-b4c1-6872994c6679/Gau-77780.chk"
 -----
 titel
 -----
 Charge =  0 Multiplicity = 1

                         Standard orientation:
 ---------------------------------------------------------------------
 Center     Atomic      Atomic             Coordinates (Angstroms)
 Number     Number       Type             X           Y           Z
 ---------------------------------------------------------------------
      1          6           0       -2.620828   -0.800522    0.049472
      2          6           0       -1.152761   -0.906827   -0.331154
      3          6           0       -0.082858   -0.990608    0.805883
      4          6           0        0.693537    0.199249    0.189462
      5          6           0        0.225191    1.589905    0.652585
      6          8           0       -0.898374    1.591986   -0.253650
      7          6           0       -0.463861    0.369691   -0.873775
      8          6           0        2.114260    0.008336   -0.216871
      9          8           0        2.716760   -1.034897   -0.146560
     10          1           0       -2.946238   -1.695953    0.589063
     11          1           0       -2.790341    0.070502    0.688317
     12          1           0       -3.255178   -0.693386   -0.836987
     13          1           0       -1.001244   -1.721795   -1.047581
     14          1           0       -0.462947   -0.795942    1.812707
     15          1           0        0.501731   -1.911432    0.816673
     16          1           0       -0.078941    1.672825    1.702351
     17          1           0        0.928229    2.400072    0.412355
     18          1           0       -0.316487    0.481852   -1.952106
     19          1           0        2.598245    0.921199   -0.636725
 ---------------------------------------------------------------------

 SCF Done:  E(RB3LYP) =  -423.162714516     A.U. after    1 cycles

 The electronic state is 1-A.
 Alpha  occ. eigenvalues --  -19.14760 -19.14433 -10.27479 -10.25004 -10.24735
 Alpha  occ. eigenvalues --  -10.20895 -10.19721 -10.18938 -10.17742  -1.05743
 Alpha  occ. eigenvalues --   -1.04891  -0.84279  -0.76151  -0.69923  -0.67161
 Alpha  occ. eigenvalues --   -0.62973  -0.58306  -0.53207  -0.51786  -0.49099
 Alpha  occ. eigenvalues --   -0.47160  -0.44408  -0.43964  -0.42152  -0.41193
 Alpha  occ. eigenvalues --   -0.40108  -0.39092  -0.36360  -0.34704  -0.33539
 Alpha  occ. eigenvalues --   -0.31416  -0.29312  -0.26010  -0.25322
 Alpha virt. eigenvalues --   -0.03560   0.05971   0.09262   0.10340   0.11146
 Alpha virt. eigenvalues --    0.12160   0.13416   0.14785   0.15992   0.16620
 Alpha virt. eigenvalues --    0.16942   0.17866   0.18095   0.19740   0.21386

 Mulliken charges:
               1
     1  C   -0.407095
     2  C    0.024386
     3  C   -0.325466
     4  C    0.200208
     5  C   -0.132284
     6  O   -0.282315
     7  C    0.058984
     8  C    0.056931
     9  O   -0.251074
    10  H    0.117135
    11  H    0.130110
    12  H    0.118138
    13  H    0.083733
    14  H    0.101468
    15  H    0.132209
    16  H    0.111987
    17  H    0.105879
    18  H    0.083094
    19  H    0.073971
 Sum of Mulliken charges =   0.00000

 Dipole moment (field-independent basis, Debye):
    X=             -0.9288    Y=              0.6663    Z=              0.2301  Tot=              1.1660
 Quadrupole moment (field-independent basis, Debye-Ang):
   XX=            -60.5425   YY=            -55.7917   ZZ=            -50.5924
   XY=              8.1385   XZ=              0.1208   YZ=              1.3149

  Exact polarizability:  86.875   2.322  76.777  -0.488   0.160  65.826
 Approx polarizability: 117.837  -7.114 117.722   1.877  -0.383 100.731

                      1                      2                      3
                      A                      A                      A
 Frequencies --     67.4927                97.8504               188.7682
 Red. masses --      3.3791                 3.9787                 3.3316
 Frc consts  --      0.0091                 0.0224                 0.0699
 IR Inten    --      1.7638                 8.7380                 5.1965

                      4                      5                      6
                      A                      A                      A
 Frequencies --    217.2042               232.5735               258.1556
 Red. masses --      1.0337                 3.5617                 2.6432
 Frc consts  --      0.0287                 0.1135                 0.1038
 IR Inten    --      0.4310                 5.3852                 3.4116

                      7                      8                      9
                      A                      A                      A
 Frequencies --    352.1813               368.6682               469.6499
 Red. masses --      2.3194                 2.0468                 4.0096
 Frc consts  --      0.1695                 0.1639                 0.5211
 IR Inten    --      1.3473                 0.2568                 2.3809

                     10                     11                     12
                      A                      A                      A
 Frequencies --    540.2718               627.2829               729.2105
 Red. masses --      4.2189                 3.2525                 3.0888
 Frc consts  --      0.7256                 0.7540                 0.9677
 IR Inten    --      3.8950                 2.0564                11.2755

                     13                     14                     15
                      A                      A                      A
 Frequencies --    789.6623               839.6601               877.9791
 Red. masses --      2.5424                 2.7610                 1.9873
 Frc consts  --      0.9341                 1.1469                 0.9026
 IR Inten    --      3.3806                 4.1471                41.1189

                     16                     17                     18
                      A                      A                      A
 Frequencies --    890.0166               904.8680               958.6657
 Red. masses --      1.8312                 3.7331                 1.5686
 Frc consts  --      0.8546                 1.8009                 0.8494
 IR Inten    --      0.9533                 4.7342                14.8973

                     19                     20                     21
                      A                      A                      A
 Frequencies --    973.8821              1018.6994              1033.4702
 Red. masses --      1.6322                 5.0566                 1.7426
 Frc consts  --      0.9121                 3.0917                 1.0966
 IR Inten    --     11.6996                70.7424                 7.2906

                     22                     23                     24
                      A                      A                      A
 Frequencies --   1073.9598              1082.8066              1124.9594
 Red. masses --      2.3377                 2.2607                 2.1144
 Frc consts  --      1.5886                 1.5617                 1.5765
 IR Inten    --     10.1995                16.8725                 7.4835

                     25                     26                     27
                      A                      A                      A
 Frequencies --   1162.1679              1181.7538              1193.0207
 Red. masses --      1.2643                 2.2335                 1.6532
 Frc consts  --      1.0061                 1.8377                 1.3864
 IR Inten    --      2.5407                 4.3681                11.2374

                     28                     29                     30
                      A                      A                      A
 Frequencies --   1220.5282              1251.7679              1273.8144
 Red. masses --      2.0580                 1.4153                 1.5957
 Frc consts  --      1.8063                 1.3066                 1.5255
 IR Inten    --      6.4772                 1.0225                 5.1453

                     31                     32                     33
                      A                      A                      A
 Frequencies --   1300.5398              1324.1266              1354.1876
 Red. masses --      1.8332                 1.4641                 1.5825
 Frc consts  --      1.8269                 1.5125                 1.7098
 IR Inten    --      4.1694                 8.1311                 7.6331

                     34                     35                     36
                      A                      A                      A
 Frequencies --   1367.6099              1407.6004              1427.7294
 Red. masses --      1.5099                 1.2653                 1.2427
 Frc consts  --      1.6639                 1.4771                 1.4925
 IR Inten    --     13.0045                 2.4607                 6.6144

                     37                     38                     39
                      A                      A                      A
 Frequencies --   1480.3701              1490.4769              1500.7987
 Red. masses --      1.0996                 1.0442                 1.0507
 Frc consts  --      1.4198                 1.3667                 1.3944
 IR Inten    --      6.6853                 3.5768                 3.9954

                     40                     41                     42
                      A                      A                      A
 Frequencies --   1519.0127              1811.3210              2857.2009
 Red. masses --      1.0995                10.7087                 1.0820
 Frc consts  --      1.4948                20.7003                 5.2044
 IR Inten    --      0.1815               185.0508               113.8758

                     43                     44                     45
                      A                      A                      A
 Frequencies --   2998.7796              3034.9226              3043.2248
 Red. masses --      1.0599                 1.0382                 1.0820
 Frc consts  --      5.6158                 5.6341                 5.9041
 IR Inten    --     77.9903                23.8959                12.5527

                     46                     47                     48
                      A                      A                      A
 Frequencies --   3059.6158              3063.6288              3066.7580
 Red. masses --      1.0994                 1.0685                 1.0875
 Frc consts  --      6.0639                 5.9089                 6.0262
 IR Inten    --     13.9649                66.4626                27.9075

                     49                     50                     51
                      A                      A                      A
 Frequencies --   3099.3293              3118.9099              3132.2275
 Red. masses --      1.1012                 1.1007                 1.1038
 Frc consts  --      6.2321                 6.3087                 6.3804
 IR Inten    --     23.2532                17.7840                10.2118

 - Thermochemistry -
 -------------------
 Temperature   298.150 Kelvin.  Pressure   1.00000 Atm.
 Atom     1 has atomic number  6 and mass  12.00000

 Molecular mass:   126.06808 amu.
 Principal axes and moments of inertia in atomic units:
                           1         2         3
     Eigenvalues --   638.322721316.777161671.45031
           X            0.99782   0.06585  -0.00378
           Y           -0.06582   0.99781   0.00669
           Z            0.00422  -0.00643   0.99997
 This molecule is an asymmetric top.
 Rotational symmetry number  1.
 Warning -- assumption of classical behavior for rotation
           may cause significant error
 Rotational temperatures (Kelvin)      0.13569     0.06578     0.05182
 Rotational constants (GHZ):           2.82732     1.37057     1.07975
 Zero-point vibrational energy     415459.2 (Joules/Mol)
                                   99.29714 (Kcal/Mol)
 Warning -- explicit consideration of  10 degrees of freedom as
           vibrations may cause significant error
 Vibrational temperatures:     97.11   140.78   271.59   312.51   334.62
          (Kelvin)            371.43   506.71   530.43   675.72   777.33
                              902.52  1049.17  1136.15  1208.08  1263.21
                             1280.53  1301.90  1379.30  1401.20  1465.68
                             1486.93  1545.19  1557.92  1618.56  1672.10
                             1700.28  1716.49  1756.07  1801.01  1832.73
                             1871.18  1905.12  1948.37  1967.68  2025.22
                             2054.18  2129.92  2144.46  2159.31  2185.52
                             2606.08  4110.87  4314.57  4366.57  4378.52
                             4402.10  4407.87  4412.38  4459.24  4487.41
                             4506.57

 Zero-point correction=                           0.158240 (Hartree/Particle)
 Thermal correction to Energy=                    0.166814
 Thermal correction to Enthalpy=                  0.167759
 Thermal correction to Gibbs Free Energy=         0.124683
 Sum of electronic and zero-point Energies=           -423.004474
 Sum of electronic and thermal Energies=              -422.995900
 Sum of electronic and thermal Enthalpies=            -422.994956
 Sum of electronic and thermal Free Energies=         -423.038031

                     E (Thermal)             CV                S
                      KCal/Mol        Cal/Mol-Kelvin    Cal/Mol-Kelvin
 Total                  104.678             31.847             90.660
 Electronic               0.000              0.000              0.000
 Translational            0.889              2.981             40.409
 Rotational               0.889              2.981             28.731
 Vibrational            102.900             25.885             21.520
 Vibration     1          0.598              1.970              4.225
 Vibration     2          0.603              1.951              3.497
 Vibration     3          0.633              1.855              2.240
 Vibration     4          0.646              1.815              1.982
 Vibration     5          0.653              1.791              1.859
 Vibration     6          0.667              1.749              1.674
 Vibration     7          0.729              1.571              1.156
 Vibration     8          0.741              1.537              1.085
 Vibration     9          0.827              1.317              0.739
 Vibration    10          0.895              1.161              0.565

 Normal termination of Gaussian 09 at Tue Jan 28 03:37:19 2020.
