 Gaussian 09, Revision D.01,
 Gaussian 09:  ES64L-G09RevD.01 24-Apr-2013

 -----------------------------
 # b3lyp 6-31G(2df,p) opt Freq
 -----------------------------

 -----
 titel
 -----
 Symbolic Z-matrix:
 Charge =  0 Multiplicity = 1

 SCF Done:  E(RB3LYP) =  -423.152635599     A.U. after   13 cycles
 Optimization completed.
    -- Stationary point found.
 Normal termination of Gaussian 09 at Tue Jan 28 02:55:41 2020.

 ----------------------------------------------------------------------
 #N Geom=AllCheck Guess=TCheck SCRF=Check GenChk RB3LYP/6-31G(2df,p) Fr
 eq
 ----------------------------------------------------------------------

 Structure from the checkpoint file:  "/scratch/puck/g09_7d408875-97f5-4a0d-8b3d-d0f5d2303bae/Gau-65435.chk"
 -----
 titel
 -----
 Charge =  0 Multiplicity = 1

                         Standard orientation:
 ---------------------------------------------------------------------
 Center     Atomic      Atomic             Coordinates (Angstroms)
 Number     Number       Type             X           Y           Z
 ---------------------------------------------------------------------
      1          8           0        2.229640    0.675894   -0.432483
      2          6           0        1.404314   -0.480384   -0.436758
      3          6           0        1.005508   -0.982332    0.984288
      4          6           0       -0.495679   -0.708085    0.949073
      5          6           0       -1.054279   -1.165590   -0.439069
      6          6           0       -2.096821   -0.015615   -0.390665
      7          6           0       -0.767095    0.579197    0.122542
      8          8           0       -0.482890    1.853762    0.608191
      9          6           0        0.016065   -0.181629   -1.003795
     10          1           0        1.736536    1.366463    0.029175
     11          1           0        1.957660   -1.230245   -1.008700
     12          1           0        1.224453   -2.044333    1.135801
     13          1           0        1.536722   -0.416759    1.755207
     14          1           0       -1.098750   -0.888982    1.840439
     15          1           0       -1.223576   -2.191190   -0.759845
     16          1           0       -2.467305    0.349668   -1.353376
     17          1           0       -2.907230   -0.117865    0.336708
     18          1           0       -0.744812    2.499516   -0.057785
     19          1           0       -0.059774    0.163106   -2.036976
 ---------------------------------------------------------------------

 SCF Done:  E(RB3LYP) =  -423.152635599     A.U. after    1 cycles

 The electronic state is 1-A.
 Alpha  occ. eigenvalues --  -19.15971 -19.12097 -10.24963 -10.22251 -10.20349
 Alpha  occ. eigenvalues --  -10.19296 -10.18995 -10.18614 -10.17325  -1.04312
 Alpha  occ. eigenvalues --   -1.00462  -0.92163  -0.76089  -0.69105  -0.64384
 Alpha  occ. eigenvalues --   -0.62685  -0.58098  -0.54151  -0.52496  -0.50087
 Alpha  occ. eigenvalues --   -0.45591  -0.43987  -0.43014  -0.40673  -0.39043
 Alpha  occ. eigenvalues --   -0.37468  -0.36268  -0.33469  -0.32835  -0.31524
 Alpha  occ. eigenvalues --   -0.30871  -0.29631  -0.26641  -0.24894
 Alpha virt. eigenvalues --    0.06559   0.10681   0.11465   0.12195   0.13241
 Alpha virt. eigenvalues --    0.14252   0.15286   0.16048   0.16273   0.16825
 Alpha virt. eigenvalues --    0.17460   0.17982   0.19557   0.21240   0.22056

 Mulliken charges:
               1
     1  O   -0.451174
     2  C    0.118435
     3  C   -0.284040
     4  C   -0.040801
     5  C   -0.083402
     6  C   -0.305552
     7  C    0.378050
     8  O   -0.485308
     9  C   -0.091570
    10  H    0.280888
    11  H    0.077737
    12  H    0.097496
    13  H    0.107029
    14  H    0.066945
    15  H    0.082013
    16  H    0.088179
    17  H    0.095603
    18  H    0.287066
    19  H    0.062405
 Sum of Mulliken charges =   0.00000

 Dipole moment (field-independent basis, Debye):
    X=             -2.1306    Y=             -0.0637    Z=             -0.5280  Tot=              2.1960
 Quadrupole moment (field-independent basis, Debye-Ang):
   XX=            -58.4132   YY=            -48.4778   ZZ=            -53.5821
   XY=             -2.4164   XZ=              2.3299   YZ=             -2.0250

  Exact polarizability:  80.544  -1.209  73.277   1.530  -1.922  69.160
 Approx polarizability: 110.948   0.384 112.905   0.119  -0.068 106.977

                      1                      2                      3
                      A                      A                      A
 Frequencies --    122.2086               210.4058               281.9112
 Red. masses --      4.5908                 3.8358                 1.2405
 Frc consts  --      0.0404                 0.1001                 0.0581
 IR Inten    --      2.5356                 2.0210                62.0419

                      4                      5                      6
                      A                      A                      A
 Frequencies --    332.4872               390.3758               420.2964
 Red. masses --      2.5951                 3.0920                 2.5566
 Frc consts  --      0.1690                 0.2776                 0.2661
 IR Inten    --     46.8870                 4.4500                 7.1719

                      7                      8                      9
                      A                      A                      A
 Frequencies --    465.3280               482.8122               497.3933
 Red. masses --      2.2579                 2.6517                 1.2551
 Frc consts  --      0.2881                 0.3642                 0.1829
 IR Inten    --      4.3102                10.3418                62.0332

                     10                     11                     12
                      A                      A                      A
 Frequencies --    652.9253               688.1810               745.3954
 Red. masses --      4.4379                 4.4664                 3.8005
 Frc consts  --      1.1147                 1.2463                 1.2441
 IR Inten    --      7.7936                 1.0251                13.7771

                     13                     14                     15
                      A                      A                      A
 Frequencies --    780.0740               831.7462               856.4740
 Red. masses --      2.8953                 2.9839                 2.9088
 Frc consts  --      1.0380                 1.2162                 1.2572
 IR Inten    --      1.9591                 2.7571                 4.2594

                     16                     17                     18
                      A                      A                      A
 Frequencies --    895.6664               921.4111               967.0727
 Red. masses --      1.9978                 2.5827                 1.5749
 Frc consts  --      0.9443                 1.2919                 0.8678
 IR Inten    --      2.4916                 2.6331                 0.6205

                     19                     20                     21
                      A                      A                      A
 Frequencies --    971.6668               985.8323              1021.9504
 Red. masses --      1.6548                 2.1434                 2.1568
 Frc consts  --      0.9205                 1.2273                 1.3272
 IR Inten    --      3.1754                 9.2484                 7.8226

                     22                     23                     24
                      A                      A                      A
 Frequencies --   1039.8220              1043.7132              1055.6954
 Red. masses --      1.6309                 1.6165                 1.4680
 Frc consts  --      1.0389                 1.0375                 0.9640
 IR Inten    --      9.6036                 0.9459                14.7367

                     25                     26                     27
                      A                      A                      A
 Frequencies --   1090.9500              1116.8394              1131.0677
 Red. masses --      1.9456                 1.6173                 1.5265
 Frc consts  --      1.3643                 1.1886                 1.1506
 IR Inten    --     41.8933                53.4297                18.3449

                     28                     29                     30
                      A                      A                      A
 Frequencies --   1155.2609              1198.4502              1203.3806
 Red. masses --      1.3564                 1.7756                 1.5784
 Frc consts  --      1.0666                 1.5026                 1.3467
 IR Inten    --     13.3311                16.6568                27.5230

                     31                     32                     33
                      A                      A                      A
 Frequencies --   1223.8661              1244.5978              1269.8154
 Red. masses --      1.7055                 1.8950                 2.4865
 Frc consts  --      1.5051                 1.7295                 2.3622
 IR Inten    --     19.7635                 5.2234               127.4592

                     34                     35                     36
                      A                      A                      A
 Frequencies --   1284.8526              1304.4540              1323.8661
 Red. masses --      1.7392                 1.4535                 1.7151
 Frc consts  --      1.6916                 1.4572                 1.7710
 IR Inten    --      3.1716                 6.3902                35.9781

                     37                     38                     39
                      A                      A                      A
 Frequencies --   1333.1992              1395.8680              1453.6233
 Red. masses --      1.5149                 1.9624                 1.2313
 Frc consts  --      1.5864                 2.2528                 1.5329
 IR Inten    --      8.3134                16.8214                77.1996

                     40                     41                     42
                      A                      A                      A
 Frequencies --   1489.6878              1520.1154              3044.4197
 Red. masses --      1.0984                 1.1860                 1.0545
 Frc consts  --      1.4361                 1.6147                 5.7583
 IR Inten    --      2.8987                 4.7290                52.9083

                     43                     44                     45
                      A                      A                      A
 Frequencies --   3048.4342              3072.2268              3097.3931
 Red. masses --      1.0623                 1.0855                 1.1023
 Frc consts  --      5.8162                 6.0364                 6.2309
 IR Inten    --     23.5791                42.4562                24.1459

                     46                     47                     48
                      A                      A                      A
 Frequencies --   3100.8427              3105.4617              3108.0649
 Red. masses --      1.0899                 1.0914                 1.1067
 Frc consts  --      6.1742                 6.2012                 6.2987
 IR Inten    --     44.4928                 2.9979                62.3667

                     49                     50                     51
                      A                      A                      A
 Frequencies --   3140.9617              3763.9647              3802.6157
 Red. masses --      1.0935                 1.0660                 1.0657
 Frc consts  --      6.3559                 8.8982                 9.0797
 IR Inten    --     31.9350                33.0987                31.8274

 - Thermochemistry -
 -------------------
 Temperature   298.150 Kelvin.  Pressure   1.00000 Atm.
 Atom     1 has atomic number  8 and mass  15.99491

 Molecular mass:   126.06808 amu.
 Principal axes and moments of inertia in atomic units:
                           1         2         3
     Eigenvalues --   673.914351033.384251240.13486
           X            0.99960  -0.01673   0.02302
           Y            0.01781   0.99871  -0.04748
           Z           -0.02219   0.04787   0.99861
 This molecule is an asymmetric top.
 Rotational symmetry number  1.
 Warning -- assumption of classical behavior for rotation
           may cause significant error
 Rotational temperatures (Kelvin)      0.12852     0.08382     0.06984
 Rotational constants (GHZ):           2.67800     1.74644     1.45528
 Zero-point vibrational energy     422790.9 (Joules/Mol)
                                  101.04946 (Kcal/Mol)
 Warning -- explicit consideration of   9 degrees of freedom as
           vibrations may cause significant error
 Vibrational temperatures:    175.83   302.73   405.61   478.37   561.66
          (Kelvin)            604.71   669.50   694.66   715.64   939.41
                              990.14  1072.46  1122.35  1196.70  1232.27
                             1288.66  1325.70  1391.40  1398.01  1418.39
                             1470.36  1496.07  1501.67  1518.91  1569.63
                             1606.88  1627.35  1662.16  1724.30  1731.39
                             1760.87  1790.70  1826.98  1848.61  1876.82
                             1904.75  1918.17  2008.34  2091.44  2143.33
                             2187.10  4380.24  4386.01  4420.24  4456.45
                             4461.42  4468.06  4471.81  4519.14  5415.50
                             5471.11

 Zero-point correction=                           0.161033 (Hartree/Particle)
 Thermal correction to Energy=                    0.168399
 Thermal correction to Enthalpy=                  0.169344
 Thermal correction to Gibbs Free Energy=         0.129656
 Sum of electronic and zero-point Energies=           -422.991603
 Sum of electronic and thermal Energies=              -422.984236
 Sum of electronic and thermal Enthalpies=            -422.983292
 Sum of electronic and thermal Free Energies=         -423.022979

                     E (Thermal)             CV                S
                      KCal/Mol        Cal/Mol-Kelvin    Cal/Mol-Kelvin
 Total                  105.672             30.622             83.529
 Electronic               0.000              0.000              0.000
 Translational            0.889              2.981             40.409
 Rotational               0.889              2.981             28.248
 Vibrational            103.895             24.660             14.872
 Vibration     1          0.610              1.931              3.065
 Vibration     2          0.643              1.825              2.040
 Vibration     3          0.681              1.707              1.522
 Vibration     4          0.714              1.611              1.248
 Vibration     5          0.758              1.491              0.999
 Vibration     6          0.783              1.426              0.891
 Vibration     7          0.823              1.327              0.751
 Vibration     8          0.839              1.288              0.703
 Vibration     9          0.853              1.256              0.665

 Optimization completed.
    -- Stationary point found.
 Normal termination of Gaussian 09 at Tue Jan 28 03:52:33 2020.
