 Gaussian 09, Revision D.01,
 Gaussian 09:  ES64L-G09RevD.01 24-Apr-2013

 -----------------------------
 # b3lyp 6-31G(2df,p) opt Freq
 -----------------------------

 -----
 titel
 -----
 Symbolic Z-matrix:
 Charge =  0 Multiplicity = 1

 SCF Done:  E(RB3LYP) =  -423.198967265     A.U. after   14 cycles
 Optimization completed.
    -- Stationary point found.
 Normal termination of Gaussian 09 at Tue Jan 28 09:20:04 2020.

 ----------------------------------------------------------------------
 #N Geom=AllCheck Guess=TCheck SCRF=Check GenChk RB3LYP/6-31G(2df,p) Fr
 eq
 ----------------------------------------------------------------------

 Structure from the checkpoint file:  "/scratch/puck/g09_fbadfbb1-909a-43d3-9168-f4aa54b02f24/Gau-84108.chk"
 -----
 titel
 -----
 Charge =  0 Multiplicity = 1

                         Standard orientation:
 ---------------------------------------------------------------------
 Center     Atomic      Atomic             Coordinates (Angstroms)
 Number     Number       Type             X           Y           Z
 ---------------------------------------------------------------------
      1          6           0        2.430632   -1.019228   -0.718918
      2          6           0        2.082676    0.310988   -0.043405
      3          6           0        0.619200    0.444297    0.285492
      4          6           0       -0.091050    1.749894    0.376988
      5          6           0       -0.479629    0.738048   -0.717835
      6          6           0       -1.595229   -0.180426   -0.361545
      7          8           0       -2.596349   -0.419155   -0.987634
      8          6           0       -1.193329   -0.852336    0.962552
      9          8           0        0.174203   -0.552507    1.191485
     10          1           0        3.505922   -1.091964   -0.904825
     11          1           0        2.134788   -1.858844   -0.085001
     12          1           0        1.914664   -1.122256   -1.679246
     13          1           0        2.650112    0.415856    0.889786
     14          1           0        2.372272    1.154370   -0.680287
     15          1           0       -0.781684    1.921132    1.195851
     16          1           0        0.417652    2.637733    0.018111
     17          1           0       -0.317459    0.990792   -1.757491
     18          1           0       -1.829121   -0.484465    1.780730
     19          1           0       -1.329595   -1.936483    0.891590
 ---------------------------------------------------------------------

 SCF Done:  E(RB3LYP) =  -423.198967265     A.U. after    1 cycles

 The electronic state is 1-A.
 Alpha  occ. eigenvalues --  -19.15551 -19.13124 -10.27317 -10.25682 -10.23936
 Alpha  occ. eigenvalues --  -10.20594 -10.20473 -10.19547 -10.17854  -1.06217
 Alpha  occ. eigenvalues --   -1.03829  -0.86843  -0.78138  -0.73024  -0.65316
 Alpha  occ. eigenvalues --   -0.64163  -0.57777  -0.55718  -0.50864  -0.48434
 Alpha  occ. eigenvalues --   -0.45481  -0.44823  -0.43888  -0.42927  -0.41321
 Alpha  occ. eigenvalues --   -0.39742  -0.38567  -0.36885  -0.36001  -0.35315
 Alpha  occ. eigenvalues --   -0.33135  -0.29752  -0.26281  -0.23586
 Alpha virt. eigenvalues --   -0.01961   0.07616   0.09130   0.11185   0.12197
 Alpha virt. eigenvalues --    0.13082   0.13750   0.15456   0.16069   0.16944
 Alpha virt. eigenvalues --    0.17262   0.18334   0.19770   0.20434   0.21693

 Mulliken charges:
               1
     1  C   -0.381792
     2  C   -0.261198
     3  C    0.462183
     4  C   -0.364105
     5  C   -0.239990
     6  C    0.393115
     7  O   -0.321397
     8  C   -0.208168
     9  O   -0.303662
    10  H    0.114541
    11  H    0.135017
    12  H    0.117270
    13  H    0.115634
    14  H    0.102206
    15  H    0.128383
    16  H    0.129031
    17  H    0.114652
    18  H    0.128248
    19  H    0.140033
 Sum of Mulliken charges =   0.00000

 Dipole moment (field-independent basis, Debye):
    X=              2.1302    Y=              1.2040    Z=              0.5694  Tot=              2.5122
 Quadrupole moment (field-independent basis, Debye-Ang):
   XX=            -59.1767   YY=            -50.7637   ZZ=            -54.5974
   XY=              0.1498   XZ=             -6.4699   YZ=             -0.6597

  Exact polarizability:  85.899   4.899  73.697   0.734  -0.292  67.924
 Approx polarizability: 120.077   9.662 106.852   9.850  -0.049 106.484

                      1                      2                      3
                      A                      A                      A
 Frequencies --     80.3208               109.9844               137.8186
 Red. masses --      3.3566                 2.5295                 2.5545
 Frc consts  --      0.0128                 0.0180                 0.0286
 IR Inten    --      1.2225                 0.3626                 7.3212

                      4                      5                      6
                      A                      A                      A
 Frequencies --    206.0675               249.9726               305.5772
 Red. masses --      1.2532                 3.4025                 2.1944
 Frc consts  --      0.0314                 0.1253                 0.1207
 IR Inten    --      0.9540                 0.7855                 1.0247

                      7                      8                      9
                      A                      A                      A
 Frequencies --    376.8814               449.4868               497.2211
 Red. masses --      2.5083                 4.5499                 3.3166
 Frc consts  --      0.2099                 0.5416                 0.4831
 IR Inten    --      2.5676                11.8549                 3.1720

                     10                     11                     12
                      A                      A                      A
 Frequencies --    555.8187               595.4279               636.9129
 Red. masses --      2.7756                 3.2723                 6.6809
 Frc consts  --      0.5052                 0.6835                 1.5968
 IR Inten    --      0.7391                 1.1650                 2.5417

                     13                     14                     15
                      A                      A                      A
 Frequencies --    697.7330               771.6280               789.0480
 Red. masses --      3.2426                 1.4508                 2.0004
 Frc consts  --      0.9301                 0.5089                 0.7338
 IR Inten    --      4.3984                 2.9750                 9.4364

                     16                     17                     18
                      A                      A                      A
 Frequencies --    866.2343               905.3245               930.6621
 Red. masses --      2.0119                 1.8139                 1.8333
 Frc consts  --      0.8895                 0.8759                 0.9356
 IR Inten    --     28.5688                18.6527                 5.5284

                     19                     20                     21
                      A                      A                      A
 Frequencies --    951.2177               997.0997              1019.6054
 Red. masses --      2.4123                 1.8768                 1.7259
 Frc consts  --      1.2860                 1.0994                 1.0572
 IR Inten    --     11.5055                 7.4874                 7.5809

                     22                     23                     24
                      A                      A                      A
 Frequencies --   1045.6873              1055.5676              1072.8503
 Red. masses --      1.6284                 1.7162                 2.3857
 Frc consts  --      1.0491                 1.1266                 1.6179
 IR Inten    --      1.2338                 8.1331                33.1331

                     25                     26                     27
                      A                      A                      A
 Frequencies --   1097.5696              1117.1287              1172.2284
 Red. masses --      3.0903                 2.1798                 2.3659
 Frc consts  --      2.1934                 1.6028                 1.9154
 IR Inten    --     40.8838                30.5411                16.1420

                     28                     29                     30
                      A                      A                      A
 Frequencies --   1205.3202              1231.6543              1247.0361
 Red. masses --      1.1247                 1.7763                 2.2786
 Frc consts  --      0.9627                 1.5876                 2.0878
 IR Inten    --      0.3822                 6.3981                64.2055

                     31                     32                     33
                      A                      A                      A
 Frequencies --   1307.3664              1340.3594              1353.4653
 Red. masses --      1.3751                 1.5062                 1.5197
 Frc consts  --      1.3847                 1.5944                 1.6402
 IR Inten    --     24.6658                21.7743                10.4254

                     34                     35                     36
                      A                      A                      A
 Frequencies --   1406.2452              1419.5701              1472.3458
 Red. masses --      1.2514                 2.2487                 1.0821
 Frc consts  --      1.4580                 2.6699                 1.3821
 IR Inten    --      2.6072                 8.0581                 1.9168

                     37                     38                     39
                      A                      A                      A
 Frequencies --   1483.4032              1491.8502              1495.8380
 Red. masses --      1.2292                 1.1847                 1.0604
 Frc consts  --      1.5936                 1.5535                 1.3979
 IR Inten    --     17.3969                 5.0136                 3.2353

                     40                     41                     42
                      A                      A                      A
 Frequencies --   1510.4845              1842.5922              3008.0704
 Red. masses --      1.0856                12.4491                 1.0662
 Frc consts  --      1.4594                24.9027                 5.6841
 IR Inten    --      6.9717               282.6176                31.4540

                     43                     44                     45
                      A                      A                      A
 Frequencies --   3031.5749              3042.2788              3070.4970
 Red. masses --      1.0613                 1.0363                 1.0997
 Frc consts  --      5.7469                 5.6509                 6.1084
 IR Inten    --     19.7257                22.3424                11.4317

                     46                     47                     48
                      A                      A                      A
 Frequencies --   3074.5086              3109.5797              3126.8265
 Red. masses --      1.0960                 1.1013                 1.1014
 Frc consts  --      6.1037                 6.2740                 6.3448
 IR Inten    --     13.1318                33.4431                20.6628

                     49                     50                     51
                      A                      A                      A
 Frequencies --   3133.5122              3203.1442              3223.8572
 Red. masses --      1.0541                 1.0934                 1.1164
 Frc consts  --      6.0980                 6.6095                 6.8364
 IR Inten    --      8.0316                 1.3724                 3.7036

 - Thermochemistry -
 -------------------
 Temperature   298.150 Kelvin.  Pressure   1.00000 Atm.
 Atom     1 has atomic number  6 and mass  12.00000

 Molecular mass:   126.06808 amu.
 Principal axes and moments of inertia in atomic units:
                           1         2         3
     Eigenvalues --   636.933191445.608841517.64068
           X            0.99898  -0.01273  -0.04335
           Y            0.01437   0.99918   0.03782
           Z            0.04283  -0.03840   0.99834
 This molecule is an asymmetric top.
 Rotational symmetry number  1.
 Warning -- assumption of classical behavior for rotation
           may cause significant error
 Rotational temperatures (Kelvin)      0.13599     0.05992     0.05707
 Rotational constants (GHZ):           2.83349     1.24843     1.18918
 Zero-point vibrational energy     415836.6 (Joules/Mol)
                                   99.38734 (Kcal/Mol)
 Warning -- explicit consideration of  11 degrees of freedom as
           vibrations may cause significant error
 Vibrational temperatures:    115.56   158.24   198.29   296.48   359.65
          (Kelvin)            439.66   542.25   646.71   715.39   799.70
                              856.69   916.37  1003.88  1110.20  1135.26
                             1246.32  1302.56  1339.01  1368.59  1434.60
                             1466.98  1504.51  1518.72  1543.59  1579.16
                             1607.30  1686.57  1734.18  1772.07  1794.20
                             1881.01  1928.48  1947.33  2023.27  2042.44
                             2118.37  2134.28  2146.44  2152.17  2173.25
                             2651.08  4327.94  4361.75  4377.16  4417.75
                             4423.53  4473.99  4498.80  4508.42  4608.60
                             4638.41

 Zero-point correction=                           0.158384 (Hartree/Particle)
 Thermal correction to Energy=                    0.166964
 Thermal correction to Enthalpy=                  0.167908
 Thermal correction to Gibbs Free Energy=         0.124979
 Sum of electronic and zero-point Energies=           -423.040583
 Sum of electronic and thermal Energies=              -423.032003
 Sum of electronic and thermal Enthalpies=            -423.031059
 Sum of electronic and thermal Free Energies=         -423.073988

                     E (Thermal)             CV                S
                      KCal/Mol        Cal/Mol-Kelvin    Cal/Mol-Kelvin
 Total                  104.772             32.469             90.352
 Electronic               0.000              0.000              0.000
 Translational            0.889              2.981             40.409
 Rotational               0.889              2.981             28.726
 Vibrational            102.994             26.507             21.217
 Vibration     1          0.600              1.963              3.883
 Vibration     2          0.606              1.941              3.269
 Vibration     3          0.614              1.916              2.834
 Vibration     4          0.641              1.831              2.078
 Vibration     5          0.663              1.763              1.731
 Vibration     6          0.696              1.663              1.386
 Vibration     7          0.747              1.519              1.052
 Vibration     8          0.808              1.362              0.797
 Vibration     9          0.853              1.256              0.665
 Vibration    10          0.911              1.127              0.532
 Vibration    11          0.953              1.042              0.458

 Optimization completed.
    -- Stationary point found.
 Normal termination of Gaussian 09 at Tue Jan 28 10:08:49 2020.
