 Gaussian 09, Revision D.01,
 Gaussian 09:  ES64L-G09RevD.01 24-Apr-2013

 -----------------------------
 # b3lyp 6-31G(2df,p) opt Freq
 -----------------------------

 -----
 titel
 -----
 Symbolic Z-matrix:
 Charge =  0 Multiplicity = 1

 SCF Done:  E(RB3LYP) =  -423.125683597     A.U. after   12 cycles
 SCF Done:  E(RB3LYP) =  -423.125683868     A.U. after    6 cycles
 SCF Done:  E(RB3LYP) =  -423.125684007     A.U. after    6 cycles
 Optimization completed.
    -- Stationary point found.
 Normal termination of Gaussian 09 at Mon Jan 27 22:12:38 2020.

 ----------------------------------------------------------------------
 #N Geom=AllCheck Guess=TCheck SCRF=Check GenChk RB3LYP/6-31G(2df,p) Fr
 eq
 ----------------------------------------------------------------------

 Structure from the checkpoint file:  "/scratch/puck/g09_c489da5b-bb3d-4bc5-88e6-ca1a5e90c2fc/Gau-176323.chk"
 -----
 titel
 -----
 Charge =  0 Multiplicity = 1

                         Standard orientation:
 ---------------------------------------------------------------------
 Center     Atomic      Atomic             Coordinates (Angstroms)
 Number     Number       Type             X           Y           Z
 ---------------------------------------------------------------------
      1          6           0        2.099804   -1.451638    0.085436
      2          6           0        0.880603   -0.761841   -0.516585
      3          6           0       -0.444869   -0.976766    0.276385
      4          6           0       -0.158446    0.359453    1.081966
      5          6           0       -0.747735    1.061856   -0.145801
      6          6           0       -1.511424   -0.198444   -0.548169
      7          8           0       -2.824696   -0.266966   -0.039920
      8          6           0        0.730895    0.702165   -0.094475
      9          8           0        1.658152    1.714687   -0.224594
     10          1           0        2.063095   -2.532826   -0.081012
     11          1           0        3.027452   -1.081784   -0.366333
     12          1           0        2.155986   -1.280855    1.167174
     13          1           0        0.820350   -0.968027   -1.593660
     14          1           0       -0.685473   -1.946831    0.708394
     15          1           0       -0.130638    0.632532    2.126385
     16          1           0       -1.052619    2.097235   -0.236321
     17          1           0       -1.593220   -0.449503   -1.611173
     18          1           0       -2.797666    0.056103    0.869131
     19          1           0        2.432111    1.483470    0.300978
 ---------------------------------------------------------------------

 SCF Done:  E(RB3LYP) =  -423.125684007     A.U. after    1 cycles

 The electronic state is 1-A.
 Alpha  occ. eigenvalues --  -19.15423 -19.13178 -10.24274 -10.23040 -10.19304
 Alpha  occ. eigenvalues --  -10.19153 -10.19129 -10.18949 -10.18122  -1.04148
 Alpha  occ. eigenvalues --   -1.01772  -0.91943  -0.76201  -0.69633  -0.65675
 Alpha  occ. eigenvalues --   -0.62853  -0.56304  -0.55182  -0.52369  -0.49124
 Alpha  occ. eigenvalues --   -0.46751  -0.44728  -0.42962  -0.41029  -0.38786
 Alpha  occ. eigenvalues --   -0.38231  -0.36339  -0.35507  -0.35335  -0.31207
 Alpha  occ. eigenvalues --   -0.30655  -0.27140  -0.24791  -0.23790
 Alpha virt. eigenvalues --    0.06435   0.08388   0.10656   0.11062   0.12113
 Alpha virt. eigenvalues --    0.13267   0.13740   0.15298   0.16123   0.16958
 Alpha virt. eigenvalues --    0.18020   0.18385   0.19856   0.22288   0.22570

 Mulliken charges:
               1
     1  C   -0.430316
     2  C   -0.051376
     3  C   -0.111588
     4  C   -0.207047
     5  C   -0.163411
     6  C    0.153296
     7  O   -0.447707
     8  C    0.401753
     9  O   -0.467683
    10  H    0.120451
    11  H    0.114074
    12  H    0.112546
    13  H    0.066171
    14  H    0.073257
    15  H    0.093846
    16  H    0.095500
    17  H    0.081896
    18  H    0.277618
    19  H    0.288721
 Sum of Mulliken charges =   0.00000

 Dipole moment (field-independent basis, Debye):
    X=              1.8136    Y=             -0.4512    Z=              1.7095  Tot=              2.5328
 Quadrupole moment (field-independent basis, Debye-Ang):
   XX=            -55.3293   YY=            -54.8863   ZZ=            -50.9365
   XY=             -2.3826   XZ=             -0.9084   YZ=              2.1324

  Exact polarizability:  84.789  -2.163  72.151  -0.193   1.194  66.609
 Approx polarizability: 115.993   1.028 106.099  -0.805  -0.424 108.513

                      1                      2                      3
                      A                      A                      A
 Frequencies --    181.0082               207.9231               211.2669
 Red. masses --      3.6888                 2.5697                 2.7136
 Frc consts  --      0.0712                 0.0655                 0.0714
 IR Inten    --      1.1854                 2.1148                 2.0792

                      4                      5                      6
                      A                      A                      A
 Frequencies --    245.3012               260.3768               316.0339
 Red. masses --      1.0718                 3.6641                 1.2211
 Frc consts  --      0.0380                 0.1464                 0.0719
 IR Inten    --      1.2091                 9.5011                79.2466

                      7                      8                      9
                      A                      A                      A
 Frequencies --    357.6331               393.7469               426.1022
 Red. masses --      1.2913                 2.9804                 3.1016
 Frc consts  --      0.0973                 0.2722                 0.3318
 IR Inten    --     49.0661                37.4586                10.1374

                     10                     11                     12
                      A                      A                      A
 Frequencies --    462.3719               563.5304               633.0192
 Red. masses --      4.5662                 3.2935                 3.4564
 Frc consts  --      0.5752                 0.6162                 0.8160
 IR Inten    --      1.2362                 2.2996                 6.1917

                     13                     14                     15
                      A                      A                      A
 Frequencies --    766.1590               799.3265               830.5308
 Red. masses --      2.1629                 2.7100                 1.4858
 Frc consts  --      0.7480                 1.0202                 0.6038
 IR Inten    --      4.6388                 2.0729                12.3142

                     16                     17                     18
                      A                      A                      A
 Frequencies --    839.2512               875.7730               902.9249
 Red. masses --      2.4508                 2.2234                 2.5713
 Frc consts  --      1.0170                 1.0047                 1.2351
 IR Inten    --      2.4951                 4.4972                 7.0901

                     19                     20                     21
                      A                      A                      A
 Frequencies --    926.5380               949.0780               955.2002
 Red. masses --      2.0504                 2.0814                 2.4226
 Frc consts  --      1.0371                 1.1046                 1.3023
 IR Inten    --     12.8351                 5.0027                 5.5132

                     22                     23                     24
                      A                      A                      A
 Frequencies --   1017.9193              1038.1393              1069.3406
 Red. masses --      2.0748                 1.6931                 1.7017
 Frc consts  --      1.2666                 1.0751                 1.1465
 IR Inten    --      9.1606                35.4304                 6.0729

                     25                     26                     27
                      A                      A                      A
 Frequencies --   1094.2882              1105.6164              1120.9826
 Red. masses --      2.1457                 1.9871                 1.7990
 Frc consts  --      1.5139                 1.4311                 1.3319
 IR Inten    --     33.2976                79.0756                20.2102

                     28                     29                     30
                      A                      A                      A
 Frequencies --   1141.1550              1169.3266              1222.1278
 Red. masses --      2.0451                 1.7796                 1.6092
 Frc consts  --      1.5691                 1.4337                 1.4161
 IR Inten    --      2.1868                 3.9636                 9.3482

                     31                     32                     33
                      A                      A                      A
 Frequencies --   1223.3355              1260.3107              1282.3002
 Red. masses --      1.7833                 1.6231                 1.6402
 Frc consts  --      1.5724                 1.5189                 1.5890
 IR Inten    --     21.7300                25.7018                12.4348

                     34                     35                     36
                      A                      A                      A
 Frequencies --   1298.2878              1313.9928              1386.8842
 Red. masses --      2.1221                 1.4662                 1.7219
 Frc consts  --      2.1075                 1.4916                 1.9514
 IR Inten    --     30.1345                75.6515                19.3641

                     37                     38                     39
                      A                      A                      A
 Frequencies --   1405.2163              1434.6391              1435.8243
 Red. masses --      1.2915                 1.3476                 3.1148
 Frc consts  --      1.5026                 1.6342                 3.7834
 IR Inten    --      7.6692                57.3932                91.3396

                     40                     41                     42
                      A                      A                      A
 Frequencies --   1497.1557              1504.3041              3014.4656
 Red. masses --      1.0497                 1.0689                 1.0834
 Frc consts  --      1.3863                 1.4251                 5.8002
 IR Inten    --      3.4251                 5.4688                30.1506

                     43                     44                     45
                      A                      A                      A
 Frequencies --   3022.7649              3056.0733              3086.8076
 Red. masses --      1.0358                 1.0856                 1.1011
 Frc consts  --      5.5761                 5.9735                 6.1813
 IR Inten    --     27.2387                55.8228                33.2588

                     46                     47                     48
                      A                      A                      A
 Frequencies --   3098.8592              3132.5327              3196.4673
 Red. masses --      1.1002                 1.0913                 1.0918
 Frc consts  --      6.2247                 6.3095                 6.5723
 IR Inten    --     24.9462                24.6622                 8.9202

                     49                     50                     51
                      A                      A                      A
 Frequencies --   3225.8182              3778.6924              3794.9853
 Red. masses --      1.0980                 1.0650                 1.0658
 Frc consts  --      6.7318                 8.9595                 9.0441
 IR Inten    --      4.5108                 8.8551                21.0372

 - Thermochemistry -
 -------------------
 Temperature   298.150 Kelvin.  Pressure   1.00000 Atm.
 Atom     1 has atomic number  6 and mass  12.00000

 Molecular mass:   126.06808 amu.
 Principal axes and moments of inertia in atomic units:
                           1         2         3
     Eigenvalues --   606.371451249.573911601.06284
           X            0.99878  -0.04943   0.00075
           Y            0.04942   0.99869   0.01295
           Z           -0.00139  -0.01289   0.99992
 This molecule is an asymmetric top.
 Rotational symmetry number  1.
 Warning -- assumption of classical behavior for rotation
           may cause significant error
 Rotational temperatures (Kelvin)      0.14284     0.06931     0.05410
 Rotational constants (GHZ):           2.97630     1.44429     1.12721
 Zero-point vibrational energy     415892.0 (Joules/Mol)
                                   99.40057 (Kcal/Mol)
 Warning -- explicit consideration of  11 degrees of freedom as
           vibrations may cause significant error
 Vibrational temperatures:    260.43   299.15   303.97   352.93   374.62
          (Kelvin)            454.70   514.55   566.51   613.07   665.25
                              810.79   910.77  1102.33  1150.05  1194.95
                             1207.49  1260.04  1299.11  1333.08  1365.51
                             1374.32  1464.56  1493.65  1538.54  1574.43
                             1590.73  1612.84  1641.87  1682.40  1758.37
                             1760.10  1813.30  1844.94  1867.94  1890.54
                             1995.41  2021.79  2064.12  2065.83  2154.07
                             2164.36  4337.14  4349.08  4397.00  4441.22
                             4458.56  4507.01  4599.00  4641.23  5436.69
                             5460.13

 Zero-point correction=                           0.158405 (Hartree/Particle)
 Thermal correction to Energy=                    0.166694
 Thermal correction to Enthalpy=                  0.167638
 Thermal correction to Gibbs Free Energy=         0.126267
 Sum of electronic and zero-point Energies=           -422.967279
 Sum of electronic and thermal Energies=              -422.958990
 Sum of electronic and thermal Enthalpies=            -422.958046
 Sum of electronic and thermal Free Energies=         -422.999417

                     E (Thermal)             CV                S
                      KCal/Mol        Cal/Mol-Kelvin    Cal/Mol-Kelvin
 Total                  104.602             33.258             87.073
 Electronic               0.000              0.000              0.000
 Translational            0.889              2.981             40.409
 Rotational               0.889              2.981             28.586
 Vibrational            102.825             27.297             18.079
 Vibration     1          0.630              1.866              2.318
 Vibration     2          0.641              1.829              2.062
 Vibration     3          0.643              1.824              2.033
 Vibration     4          0.660              1.771              1.764
 Vibration     5          0.668              1.745              1.659
 Vibration     6          0.703              1.643              1.331
 Vibration     7          0.733              1.560              1.132
 Vibration     8          0.761              1.484              0.986
 Vibration     9          0.788              1.413              0.871
 Vibration    10          0.820              1.334              0.759
 Vibration    11          0.919              1.110              0.517

 Optimization completed.
    -- Stationary point found.
 Normal termination of Gaussian 09 at Mon Jan 27 23:01:12 2020.
